INSANE! Membrane UpperLeaflet>loPI:POPI:DPPI:PYPI:ERGO=180.0:5.0:3.0:2.0:10.0 LowerLeaflet>PSPI:POPI:POPS:YOPS:POPE:YOPE:POPC:YOPC:ERGO=6.0:14.0:21.0:9.0:9.0:21.0:12.0:48.0:60.0
49348
    1loPI    C1    1  15.435   8.894  10.842  0.2974  0.0857 -0.1044
    1loPI    C2    2  15.781   9.053  10.721  0.3005  0.1408 -0.0241
    1loPI    C3    3  15.691   9.043  11.111  0.3102 -0.0747 -0.0261
    1loPI   PO4    4  15.231   8.936  10.679  0.1803 -0.4699 -0.0226
    1loPI   GL1    5  15.036   8.979  10.327 -0.0619  0.0350  0.1014
    1loPI   GL2    6  14.809   9.086  10.424  0.1292  0.1857 -0.2015
    1loPI   C1A    7  14.977   8.978   9.860 -0.1391  0.1501 -0.1932
    1loPI   C2A    8  15.037   8.995   9.339 -0.2006 -0.1397 -0.2679
    1loPI   C3A    9  14.922   9.069   8.909 -0.3386 -0.2397 -0.2673
    1loPI   C4A   10  14.806   8.972   8.484  0.2132  0.0359  0.2660
    1loPI   C5A   11  14.983   8.783   8.125 -0.1714  0.0112  0.1282
    1loPI   C6A   12  15.324   8.599   7.854 -0.0872  0.1280 -0.0128
    1loPI   C1B   13  14.559   8.881  10.026 -0.0911 -0.1706 -0.1659
    1loPI   C2B   14  14.383   8.914   9.589  0.1060 -0.2251 -0.0327
    1loPI   C3B   15  14.519   8.968   9.206  0.1154 -0.1009 -0.0132
    1loPI   C4B   16  14.355   8.924   8.826  0.0194  0.3269  0.0273
    2loPI    C1   17  13.817  11.283  10.670 -0.2631  0.1741 -0.0700
    2loPI    C2   18  13.868  11.655  10.530  0.2607  0.1632  0.0688
    2loPI    C3   19  14.062  11.537  10.859 -0.1476 -0.1392  0.2099
    2loPI   PO4   20  13.569  11.239  10.491  0.2096 -0.0317  0.1532
    2loPI   GL1   21  13.365  11.002  10.151 -0.3788  0.0453  0.0837
    2loPI   GL2   22  13.002  11.000  10.176  0.1402  0.1856 -0.0833
    2loPI   C1A   23  13.334  10.995   9.661 -0.1321 -0.3328  0.1520
    2loPI   C2A   24  13.349  10.950   9.215 -0.0157  0.1478  0.0459
    2loPI   C3A   25  13.300  11.039   8.697  0.1088  0.1262  0.1990
    2loPI   C4A   26  13.129  11.084   8.312  0.0729 -0.0973  0.0201
    2loPI   C5A   27  13.256  11.217   7.908  0.1363 -0.0662  0.2262
    2loPI   C6A   28  13.060  11.270   7.563 -0.2312 -0.3958  0.0869
    2loPI   C1B   29  12.756  10.871   9.780  0.0301  0.0893 -0.1429
    2loPI   C2B   30  12.736  10.955   9.326  0.0389 -0.0817  0.1334
    2loPI   C3B   31  12.818  10.931   8.913 -0.0214  0.0858  0.2058
    2loPI   C4B   32  12.743  10.932   8.595  0.0287 -0.0139 -0.1381
    3loPI    C1   33   7.533   5.774  11.477 -0.0680 -0.0102 -0.1164
    3loPI    C2   34   7.864   5.936  11.632 -0.1054 -0.0722  0.0301
    3loPI    C3   35   7.669   5.649  11.832 -0.2582 -0.0228 -0.0465
    3loPI   PO4   36   7.550   5.639  11.169  0.0146 -0.2564  0.3409
    3loPI   GL1   37   7.438   5.514  10.765  0.0707  0.0328 -0.1737
    3loPI   GL2   38   7.619   5.811  10.634  0.0050  0.2284  0.1044
    3loPI   C1A   39   7.451   5.444  10.347 -0.3419 -0.0650 -0.0306
    3loPI   C2A   40   7.470   5.362   9.924  0.2145 -0.0981 -0.2442
    3loPI   C3A   41   7.503   5.398   9.554 -0.1249 -0.0376 -0.2601
    3loPI   C4A   42   7.555   5.384   9.087  0.0990 -0.1489  0.3822
    3loPI   C5A   43   7.572   5.445   8.678  0.2801 -0.0981  0.1032
    3loPI   C6A   44   7.224   5.584   8.360  0.0467  0.0568  0.1731
    3loPI   C1B   45   7.793   5.885  10.242 -0.0043  0.0602  0.0302
    3loPI   C2B   46   7.742   5.840   9.873 -0.0690 -0.0656  0.3425
    3loPI   C3B   47   7.788   5.871   9.443  0.1842  0.0640 -0.3427
    3loPI   C4B   48   7.799   5.797   9.003 -0.2629  0.0682 -0.1201
    4loPI    C1   49  14.589  16.319  10.664 -0.1297 -0.1653 -0.0783
    4loPI    C2   50  14.665  16.069  10.967  0.0517  0.0029  0.0176
    4loPI    C3   51  14.900  16.388  10.907 -0.0639  0.0456 -0.2191
    4loPI   PO4   52  14.461  16.155  10.418  0.2038  0.1776  0.1597
    4loPI   GL1   53  14.353  15.882  10.134 -0.1907 -0.1802  0.2162
    4loPI   GL2   54  14.046  16.195  10.108 -0.4832 -0.1076 -0.2846
    4loPI   C1A   55  14.339  15.755   9.684 -0.2904 -0.2343  0.0232
    4loPI   C2A   56  14.314  15.576   9.260 -0.0171  0.0258  0.1283
    4loPI   C3A   57  14.318  15.672   8.829  0.0375 -0.0969 -0.3087
    4loPI   C4A   58  14.245  15.635   8.451 -0.1138 -0.0811 -0.0443
    4loPI   C5A   59  14.005  15.461   8.178 -0.1306  0.1950 -0.1802
    4loPI   C6A   60  13.543  15.225   8.221  0.1419 -0.1546  0.2563
    4loPI   C1B   61  13.962  16.137   9.736 -0.4814  0.1785 -0.1035
    4loPI   C2B   62  14.017  16.021   9.378 -0.1136  0.0468  0.1457
    4loPI   C3B   63  13.928  16.027   8.879 -0.1715  0.1360 -0.0795
    4loPI   C4B   64  13.923  16.107   8.441 -0.1861  0.1991  0.2315
    5loPI    C1   65  11.950   2.179  10.822 -0.0463 -0.0250  0.0882
    5loPI    C2   66  11.897   2.109  11.212 -0.0457  0.1022  0.1115
    5loPI    C3   67  12.068   2.450  11.092  0.0388  0.0226  0.0041
    5loPI   PO4   68  11.795   2.172  10.740  0.0187  0.0449  0.1695
    5loPI   GL1   69  11.827   2.398  10.323  0.0809 -0.3812 -0.0510
    5loPI   GL2   70  12.278   2.373  10.335  0.2113 -0.1411  0.0571
    5loPI   C1A   71  12.015   2.325   9.929  0.0423 -0.0334 -0.0297
    5loPI   C2A   72  11.958   2.467   9.579  0.2267  0.3598 -0.0652
    5loPI   C3A   73  12.022   2.307   9.138  0.1356 -0.0668  0.0536
    5loPI   C4A   74  12.303   2.251   8.892  0.0411 -0.0587 -0.0069
    5loPI   C5A   75  12.409   2.033   8.558  0.3350 -0.1591  0.3085
    5loPI   C6A   76  12.704   2.089   8.251 -0.3276  0.0345 -0.0520
    5loPI   C1B   77  12.532   2.467  10.019 -0.3642 -0.1147 -0.0202
    5loPI   C2B   78  12.421   2.379   9.630  0.0679 -0.1141 -0.1282
    5loPI   C3B   79  12.603   2.213   9.323  0.1251  0.2001 -0.3057
    5loPI   C4B   80  12.733   1.925   8.984  0.1115 -0.2290  0.0128
    6loPI    C1   81   6.925  15.978  10.854  0.0969  0.1091 -0.2025
    6loPI    C2   82   7.101  15.620  10.879  0.0781  0.1017 -0.1756
    6loPI    C3   83   6.869  15.749  11.178  0.1075  0.1484 -0.1728
    6loPI   PO4   84   6.869  15.987  10.624 -0.0851 -0.0912 -0.3354
    6loPI   GL1   85   6.921  15.777  10.234 -0.1984  0.1456  0.0728
    6loPI   GL2   86   7.074  16.037  10.142 -0.2147  0.1924  0.1371
    6loPI   C1A   87   6.897  15.622   9.813  0.1952  0.0852 -0.0724
    6loPI   C2A   88   6.958  15.623   9.418  0.0314  0.1670  0.1150
    6loPI   C3A   89   6.944  15.698   8.943 -0.1936 -0.1045 -0.2509
    6loPI   C4A   90   7.071  15.609   8.505  0.2470 -0.0621 -0.1184
    6loPI   C5A   91   7.369  15.460   8.202  0.0681  0.1998 -0.4083
    6loPI   C6A   92   7.711  15.593   7.896  0.2170  0.3964 -0.0887
    6loPI   C1B   93   7.111  16.045   9.749 -0.0222 -0.2662  0.1201
    6loPI   C2B   94   7.130  16.118   9.293  0.3402  0.0259 -0.0888
    6loPI   C3B   95   7.245  16.165   8.921  0.0799 -0.1416 -0.1276
    6loPI   C4B   96   7.249  16.091   8.457 -0.0036 -0.3790  0.1413
    7loPI    C1   97   3.156   3.453  10.954  0.1141 -0.0781 -0.0359
    7loPI    C2   98   3.398   3.771  10.927 -0.0590  0.0607  0.0279
    7loPI    C3   99   3.270   3.646  11.285  0.2812 -0.2914  0.0333
    7loPI   PO4  100   3.194   3.321  10.802  0.0790 -0.1873  0.1308
    7loPI   GL1  101   2.986   3.254  10.446 -0.1246 -0.2620 -0.2620
    7loPI   GL2  102   3.286   3.040  10.376 -0.0198  0.2198 -0.1377
    7loPI   C1A  103   2.852   3.191  10.049 -0.2617  0.1464  0.1967
    7loPI   C2A  104   2.905   3.120   9.722  0.0579 -0.0638  0.1645
    7loPI   C3A  105   2.996   3.138   9.330 -0.4101  0.0149 -0.0543
    7loPI   C4A  106   2.954   3.172   8.942 -0.0165 -0.1067  0.1098
    7loPI   C5A  107   3.135   3.189   8.580 -0.3280 -0.0679  0.3175
    7loPI   C6A  108   3.013   3.351   8.134 -0.0810 -0.0854  0.0122
    7loPI   C1B  109   3.371   3.177  10.004  0.0727  0.0313 -0.2161
    7loPI   C2B  110   3.474   3.227   9.560 -0.0160  0.2745  0.2121
    7loPI   C3B  111   3.493   3.137   9.067 -0.2203  0.1663 -0.2808
    7loPI   C4B  112   3.660   3.254   8.714  0.1719  0.0492 -0.1095
    8loPI    C1  113   9.396  16.836  11.016 -0.0278 -0.0581 -0.1017
    8loPI    C2  114   9.435  17.114  11.301  0.2030 -0.1287 -0.0617
    8loPI    C3  115   9.073  16.973  11.207  0.1375 -0.2101  0.2992
    8loPI   PO4  116   9.510  16.928  10.821 -0.1558  0.1125  0.0859
    8loPI   GL1  117   9.381  17.041  10.414 -0.2337 -0.0974 -0.0619
    8loPI   GL2  118   9.041  17.134  10.259  0.3261  0.0210  0.2540
    8loPI   C1A  119   9.621  17.212  10.143 -0.0738  0.0025  0.0898
    8loPI   C2A  120   9.660  17.301   9.641 -0.1968 -0.0400  0.1049
    8loPI   C3A  121   9.604  17.267   9.263 -0.0294 -0.0294 -0.1988
    8loPI   C4A  122   9.622  17.281   8.841 -0.0296  0.1361  0.1665
    8loPI   C5A  123   9.592  17.148   8.281 -0.1204 -0.1624 -0.2180
    8loPI   C6A  124   9.312  17.005   8.053  0.2205  0.1388  0.2280
    8loPI   C1B  125   9.126  17.266   9.794 -0.0407  0.0120  0.0877
    8loPI   C2B  126   9.116  17.164   9.300 -0.0932 -0.1753 -0.1883
    8loPI   C3B  127   9.142  17.283   8.915 -0.1315 -0.1625 -0.1052
    8loPI   C4B  128   9.193  17.186   8.565  0.1028 -0.0873  0.1098
    9loPI    C1  129  15.541  10.217  10.442 -0.0830  0.0594 -0.0372
    9loPI    C2  130  15.910  10.165  10.587 -0.0686  0.0903 -0.0626
    9loPI    C3  131  15.599   9.987  10.765 -0.0232 -0.0604 -0.1326
    9loPI   PO4  132  15.516  10.562  10.344 -0.1005 -0.2428 -0.0862
    9loPI   GL1  133  15.248  10.783  10.137 -0.1522  0.4604 -0.0474
    9loPI   GL2  134  15.253  11.055  10.123  0.0618 -0.0968 -0.0257
    9loPI   C1A  135  15.252  10.843   9.692  0.1448  0.4185 -0.1305
    9loPI   C2A  136  15.274  10.753   9.291  0.0182 -0.0787  0.2256
    9loPI   C3A  137  15.251  10.823   8.774 -0.1882 -0.1577 -0.1564
    9loPI   C4A  138  15.532  10.635   8.433 -0.3029  0.2187  0.2688
    9loPI   C5A  139  16.005  10.443   8.445  0.1461  0.2311 -0.1949
    9loPI   C6A  140  16.211  10.282   8.136 -0.1186 -0.1538  0.4385
    9loPI   C1B  141  14.987  11.299   9.942  0.0145 -0.0552  0.0671
    9loPI   C2B  142  14.980  11.214   9.502  0.0564 -0.1426  0.0850
    9loPI   C3B  143  14.956  11.212   9.075  0.1560 -0.0968  0.0199
    9loPI   C4B  144  14.911  11.278   8.723 -0.0591  0.0460  0.0957
   10loPI    C1  145  17.492  12.997  10.512 -0.0397  0.1559 -0.0479
   10loPI    C2  146  17.632  12.973  10.886  0.1428  0.0374 -0.1221
   10loPI    C3  147  17.258  13.099  10.820  0.0445 -0.1242  0.1124
   10loPI   PO4  148  17.487  12.797  10.394  0.0124 -0.3973 -0.1409
   10loPI   GL1  149  17.237  12.869  10.006  0.0980  0.0460  0.2386
   10loPI   GL2  150  17.413  12.512   9.973 -0.0502 -0.0267  0.1096
   10loPI   C1A  151  17.169  12.838   9.539  0.0589  0.2503  0.0944
   10loPI   C2A  152  17.056  12.811   9.136  0.2795 -0.1278 -0.0159
   10loPI   C3A  153  17.138  12.843   8.697 -0.0162  0.1352 -0.2180
   10loPI   C4A  154  16.937  13.044   8.274  0.0060 -0.0942  0.1886
   10loPI   C5A  155  16.590  13.244   8.367  0.1013 -0.1176 -0.2339
   10loPI   C6A  156  16.232  13.465   8.255  0.2401 -0.2341 -0.0959
   10loPI   C1B  157  17.500  12.385   9.549 -0.0347  0.1462 -0.3114
   10loPI   C2B  158  17.554  12.191   9.115  0.2252 -0.0166  0.1166
   10loPI   C3B  159  17.794  12.171   8.787 -0.1430  0.1570  0.0450
   10loPI   C4B  160  17.877  12.383   8.414 -0.2083  0.3548  0.0364
   11loPI    C1  161  17.050   4.108  10.861 -0.3168 -0.2480 -0.0400
   11loPI    C2  162  16.843   4.100  11.203 -0.1238 -0.0931  0.0826
   11loPI    C3  163  17.238   4.038  11.207 -0.0947  0.0741 -0.0916
   11loPI   PO4  164  16.827   4.392  10.699 -0.1686  0.0507 -0.2341
   11loPI   GL1  165  16.727   4.451  10.226 -0.1331  0.2624 -0.0661
   11loPI   GL2  166  16.554   4.186  10.228  0.0808 -0.2551 -0.2253
   11loPI   C1A  167  17.081   4.533   9.912 -0.0417  0.1140  0.1349
   11loPI   C2A  168  17.062   4.660   9.492 -0.0364  0.1076 -0.0089
   11loPI   C3A  169  17.061   4.559   8.999  0.0644 -0.1069  0.0828
   11loPI   C4A  170  17.117   4.814   8.610 -0.2507  0.3685  0.0577
   11loPI   C5A  171  17.143   5.007   8.133  0.1964  0.1655 -0.1677
   11loPI   C6A  172  17.393   4.824   7.797  0.0706 -0.0787  0.3076
   11loPI   C1B  173  16.667   4.290   9.778 -0.0746 -0.1097 -0.1226
   11loPI   C2B  174  16.796   4.254   9.321 -0.0106  0.1091 -0.2110
   11loPI   C3B  175  16.857   4.029   8.886 -0.1208  0.1709 -0.2764
   11loPI   C4B  176  16.858   3.717   8.551 -0.2689 -0.0867 -0.0443
   12loPI    C1  177  12.648   0.708  10.487  0.2192 -0.1295  0.0489
   12loPI    C2  178  12.578   1.011  10.739 -0.1380 -0.0179 -0.1766
   12loPI    C3  179  12.442   0.645  10.825 -0.0205 -0.0392 -0.0778
   12loPI   PO4  180  12.635   0.749  10.323  0.2168  0.0767  0.1769
   12loPI   GL1  181  12.499   0.823   9.918  0.0669  0.0362  0.0342
   12loPI   GL2  182  12.647   1.118   9.922  0.0581  0.0302 -0.0011
   12loPI   C1A  183  12.391   0.525   9.562  0.0795  0.1171 -0.2702
   12loPI   C2A  184  12.216   0.546   9.192  0.1288 -0.1163 -0.1074
   12loPI   C3A  185  12.024   0.471   8.832  0.1536  0.0334 -0.0549
   12loPI   C4A  186  12.164   0.559   8.397 -0.1743 -0.0273 -0.0659
   12loPI   C5A  187  12.538   0.752   8.343  0.2293 -0.2684  0.0248
   12loPI   C6A  188  12.650   1.153   8.677 -0.1182  0.1521  0.1810
   12loPI   C1B  189  12.548   1.102   9.471  0.1134  0.1261 -0.0090
   12loPI   C2B  190  12.353   1.058   9.070  0.1565 -0.0975  0.2063
   12loPI   C3B  191  12.124   0.978   8.694 -0.0844 -0.4726  0.1519
   12loPI   C4B  192  11.931   1.174   8.348  0.0186 -0.0632 -0.0221
   13loPI    C1  193   9.201  17.769  11.079 -0.0272  0.1465 -0.0742
   13loPI    C2  194   9.334  17.620  11.426  0.0710  0.0476 -0.1538
   13loPI    C3  195   8.992  17.484  11.267 -0.0584  0.2078 -0.0156
   13loPI   PO4  196   9.331  17.804  10.922  0.0562 -0.0476 -0.0973
   13loPI   GL1  197   9.181  18.136  10.622 -0.0849 -0.0185 -0.2016
   13loPI   GL2  198   9.406  18.040  10.398  0.0730  0.2028 -0.0931
   13loPI   C1A  199   8.933  18.033  10.198 -0.3675  0.0842  0.2117
   13loPI   C2A  200   9.021  18.159   9.711  0.1845  0.0502  0.0443
   13loPI   C3A  201   9.074  18.135   9.287  0.1007 -0.1457 -0.2281
   13loPI   C4A  202   9.119  18.192   8.790 -0.1513 -0.0696  0.3673
   13loPI   C5A  203   9.104  18.145   8.400  0.1043 -0.2621  0.1155
   13loPI   C6A  204   9.408  17.998   8.170 -0.2960  0.2886  0.1753
   13loPI   C1B  205   9.520  18.225  10.052  0.1109  0.1875 -0.1393
   13loPI   C2B  206   9.527  18.145   9.663  0.0787 -0.0675 -0.2028
   13loPI   C3B  207   9.522  18.154   9.173 -0.1417  0.0122 -0.0080
   13loPI   C4B  208   9.626  18.143   8.642 -0.0302  0.0662 -0.0339
   14loPI    C1  209   8.119  11.308  10.960  0.1076 -0.1465 -0.0199
   14loPI    C2  210   7.953  11.429  11.303  0.0217 -0.3593  0.0149
   14loPI    C3  211   8.026  11.693  11.012 -0.1558 -0.2232  0.0921
   14loPI   PO4  212   7.912  11.114  10.852 -0.1633  0.1201  0.1318
   14loPI   GL1  213   7.958  11.041  10.510  0.0747 -0.0826  0.3485
   14loPI   GL2  214   8.204  10.796  10.502 -0.1154  0.4612 -0.1533
   14loPI   C1A  215   7.929  11.245  10.117 -0.0970 -0.2098  0.1759
   14loPI   C2A  216   7.920  11.203   9.579 -0.1099  0.2252  0.1331
   14loPI   C3A  217   7.922  11.279   9.155 -0.1680 -0.2636  0.1768
   14loPI   C4A  218   7.790  11.407   8.820 -0.1393  0.3050  0.0095
   14loPI   C5A  219   7.622  11.152   8.586  0.0548  0.1084 -0.1323
   14loPI   C6A  220   7.843  10.835   8.443  0.0651 -0.0323  0.0170
   14loPI   C1B  221   8.155  10.824  10.106 -0.1989 -0.0300 -0.1953
   14loPI   C2B  222   8.194  10.812   9.702  0.0686 -0.1731 -0.1117
   14loPI   C3B  223   8.275  10.869   9.263  0.0411 -0.0397 -0.1859
   14loPI   C4B  224   8.211  10.918   8.775  0.1730 -0.0837  0.4195
   15loPI    C1  225  12.006   5.494  11.219 -0.0464  0.1350 -0.2423
   15loPI    C2  226  12.136   5.276  11.527 -0.0781  0.0600 -0.2818
   15loPI    C3  227  12.363   5.572  11.382 -0.0989  0.1498 -0.1337
   15loPI   PO4  228  11.999   5.325  10.886  0.1697  0.0603  0.0151
   15loPI   GL1  229  12.058   5.570  10.512 -0.4659  0.0618 -0.0063
   15loPI   GL2  230  11.892   5.338  10.359  0.1649 -0.0157  0.1290
   15loPI   C1A  231  12.354   5.530  10.200 -0.2945  0.0557  0.1196
   15loPI   C2A  232  12.469   5.485   9.813  0.0640  0.0378  0.0080
   15loPI   C3A  233  12.478   5.499   9.398  0.3362  0.2958  0.0492
   15loPI   C4A  234  12.449   5.543   8.995  0.2006 -0.1304 -0.0364
   15loPI   C5A  235  12.328   5.361   8.512 -0.0604  0.2191  0.2589
   15loPI   C6A  236  12.574   5.355   8.190 -0.1725  0.2013  0.0773
   15loPI   C1B  237  11.974   5.317   9.960 -0.0240 -0.1849  0.0283
   15loPI   C2B  238  12.001   5.407   9.586 -0.3223 -0.0217 -0.0525
   15loPI   C3B  239  12.016   5.440   9.242  0.0311 -0.0664  0.2254
   15loPI   C4B  240  11.975   5.435   8.818  0.2889  0.1130  0.0585
   16loPI    C1  241   6.516   5.615  11.359 -0.0482 -0.0309 -0.1819
   16loPI    C2  242   6.374   5.258  11.471  0.0365  0.0170  0.0856
   16loPI    C3  243   6.695   5.412  11.654 -0.0370  0.2584  0.0154
   16loPI   PO4  244   6.490   5.599  11.015 -0.1287  0.0412 -0.0664
   16loPI   GL1  245   6.557   5.884  10.731 -0.0416  0.1478  0.1919
   16loPI   GL2  246   6.294   6.027  10.821 -0.2546  0.0105 -0.1748
   16loPI   C1A  247   6.707   6.213  10.567 -0.0992  0.1183 -0.2602
   16loPI   C2A  248   6.983   6.356  10.202 -0.1569  0.1090 -0.1103
   16loPI   C3A  249   7.023   6.338   9.778  0.2856 -0.2683 -0.2929
   16loPI   C4A  250   6.972   6.247   9.340 -0.3611  0.0828 -0.1864
   16loPI   C5A  251   6.916   6.251   8.838  0.0341  0.0932 -0.1860
   16loPI   C6A  252   7.021   6.171   8.382  0.2184  0.0160  0.0259
   16loPI   C1B  253   6.239   6.292  10.507  0.1726  0.0555 -0.0026
   16loPI   C2B  254   6.404   6.287  10.150  0.0594  0.1916 -0.1725
   16loPI   C3B  255   6.376   6.210   9.689 -0.2406 -0.0516 -0.2935
   16loPI   C4B  256   6.516   6.122   9.221  0.0371  0.2496 -0.2244
   17loPI    C1  257   7.060   5.969  11.597 -0.1499  0.1566  0.0932
   17loPI    C2  258   6.956   5.823  11.954  0.0121 -0.0256  0.0677
   17loPI    C3  259   7.306   6.010  11.910  0.0463 -0.1101 -0.0222
   17loPI   PO4  260   7.051   5.685  11.369 -0.1022  0.0496  0.1468
   17loPI   GL1  261   7.011   5.591  10.897 -0.0996 -0.0418  0.0152
   17loPI   GL2  262   6.982   5.326  10.734 -0.1073 -0.1159 -0.0204
   17loPI   C1A  263   7.018   5.772  10.514  0.3125  0.1218 -0.1922
   17loPI   C2A  264   6.758   5.868  10.149 -0.3285 -0.0819  0.1060
   17loPI   C3A  265   6.711   5.813   9.709  0.0126 -0.0309  0.0475
   17loPI   C4A  266   6.853   5.740   9.351  0.0419  0.0987  0.0497
   17loPI   C5A  267   6.735   5.691   8.883 -0.0016  0.0848 -0.1432
   17loPI   C6A  268   6.722   5.745   8.463 -0.0923  0.1527  0.0274
   17loPI   C1B  269   6.976   5.371  10.226  0.0874 -0.0695 -0.0753
   17loPI   C2B  270   6.945   5.284   9.746  0.0760  0.1191  0.2402
   17loPI   C3B  271   7.071   5.289   9.353 -0.1308 -0.0870 -0.1397
   17loPI   C4B  272   7.104   5.343   8.917  0.0137  0.0821  0.0457
   18loPI    C1  273   0.348  13.174  10.776 -0.1135 -0.0651 -0.1008
   18loPI    C2  274   0.056  13.186  11.049 -0.0598 -0.2042 -0.0364
   18loPI    C3  275   0.398  12.995  11.130  0.0179 -0.1110 -0.1420
   18loPI   PO4  276   0.307  13.484  10.713  0.0935  0.1193  0.2290
   18loPI   GL1  277   0.101  13.534  10.331  0.0969 -0.1778 -0.0576
   18loPI   GL2  278  -0.171  13.603  10.194  0.1832 -0.0817 -0.1553
   18loPI   C1A  279   0.350  13.445   9.904  0.1647 -0.3284  0.0462
   18loPI   C2A  280   0.310  13.442   9.515  0.0016 -0.3043 -0.0548
   18loPI   C3A  281   0.294  13.342   9.085  0.3341 -0.0519 -0.2366
   18loPI   C4A  282   0.533  13.352   8.718 -0.1642 -0.0666  0.1444
   18loPI   C5A  283   0.851  13.404   8.481  0.0216 -0.1600 -0.1173
   18loPI   C6A  284   1.147  13.397   8.152  0.0633 -0.0680 -0.1164
   18loPI   C1B  285  -0.200  13.465   9.801  0.1857 -0.0694 -0.0694
   18loPI   C2B  286  -0.290  13.400   9.354 -0.0665  0.2189  0.3422
   18loPI   C3B  287  -0.108  13.531   8.977  0.0106  0.1576 -0.1210
   18loPI   C4B  288   0.048  13.579   8.595 -0.0885  0.1752  0.0892
   19loPI    C1  289  11.382  17.888  10.814 -0.0477 -0.1993 -0.0886
   19loPI    C2  290  11.290  17.564  11.030 -0.0120 -0.0685  0.1259
   19loPI    C3  291  11.158  17.924  11.143 -0.0173 -0.0015 -0.0885
   19loPI   PO4  292  11.334  17.837  10.527 -0.1605  0.0960 -0.0871
   19loPI   GL1  293  11.352  17.908  10.148 -0.0641 -0.1957 -0.1191
   19loPI   GL2  294  11.515  18.110  10.150  0.0379  0.0021  0.3045
   19loPI   C1A  295  10.909  18.000   9.946 -0.1783  0.0257  0.1137
   19loPI   C2A  296  10.819  17.856   9.575 -0.1323  0.1835  0.2918
   19loPI   C3A  297  10.960  17.932   9.146 -0.0254  0.0661  0.1092
   19loPI   C4A  298  10.905  17.818   8.695  0.1184 -0.2589 -0.1087
   19loPI   C5A  299  10.915  17.770   8.341 -0.1493  0.1067  0.3329
   19loPI   C6A  300  10.944  17.569   8.032 -0.4440 -0.1508  0.2676
   19loPI   C1B  301  11.561  18.153   9.767 -0.1076  0.3381  0.4638
   19loPI   C2B  302  11.412  17.922   9.411  0.2840  0.1442  0.0175
   19loPI   C3B  303  11.418  18.007   9.044 -0.2321 -0.2093  0.0088
   19loPI   C4B  304  11.464  17.957   8.578  0.1824 -0.3336  0.2487
   20loPI    C1  305   2.928   2.381  10.925 -0.0856  0.0794  0.2656
   20loPI    C2  306   2.553   2.358  10.788  0.0260 -0.1774 -0.0082
   20loPI    C3  307   2.633   2.268  11.169 -0.2508  0.2988  0.1707
   20loPI   PO4  308   3.058   2.230  10.701 -0.3791  0.1549  0.0598
   20loPI   GL1  309   3.136   2.150  10.380  0.0921 -0.1453 -0.0746
   20loPI   GL2  310   3.274   1.945  10.226 -0.3095  0.0805  0.1449
   20loPI   C1A  311   2.935   2.237   9.947  0.2108 -0.4775 -0.1825
   20loPI   C2A  312   3.058   2.364   9.522  0.0096 -0.1832 -0.2817
   20loPI   C3A  313   3.147   2.188   9.139  0.1143 -0.1044  0.1576
   20loPI   C4A  314   3.287   2.274   8.716 -0.0165  0.0936 -0.0461
   20loPI   C5A  315   3.325   2.203   8.203 -0.0790 -0.0415 -0.1298
   20loPI   C6A  316   3.529   2.052   7.876  0.0381 -0.1754  0.1150
   20loPI   C1B  317   3.324   1.938   9.807  0.0274  0.1192  0.0719
   20loPI   C2B  318   3.462   1.812   9.337 -0.1992  0.1297  0.0125
   20loPI   C3B  319   3.422   1.814   8.867 -0.0921 -0.1381  0.0366
   20loPI   C4B  320   3.660   1.826   8.418 -0.1079  0.1196  0.0655
   21loPI    C1  321  11.815   8.157  10.884  0.0280  0.2988 -0.2482
   21loPI    C2  322  12.001   8.245  11.227  0.0387 -0.0125 -0.1713
   21loPI    C3  323  12.187   8.304  10.878  0.1050  0.1140 -0.1152
   21loPI   PO4  324  11.661   7.856  10.865  0.0215 -0.1056  0.0085
   21loPI   GL1  325  11.428   7.772  10.506  0.0918  0.1757 -0.0343
   21loPI   GL2  326  11.243   7.803  10.370 -0.1582 -0.0565 -0.2169
   21loPI   C1A  327  11.628   7.632  10.060 -0.2404 -0.0621 -0.2915
   21loPI   C2A  328  11.448   7.658   9.664 -0.2978 -0.1037  0.1319
   21loPI   C3A  329  11.435   7.620   9.234  0.1361  0.0728 -0.2531
   21loPI   C4A  330  11.380   7.709   8.810  0.2397  0.4701 -0.0735
   21loPI   C5A  331  11.427   7.664   8.361  0.0189 -0.1704 -0.1470
   21loPI   C6A  332  11.283   7.594   7.853  0.1480  0.1542 -0.0349
   21loPI   C1B  333  10.988   7.554  10.093 -0.0416 -0.1271 -0.0821
   21loPI   C2B  334  10.939   7.564   9.612 -0.2872 -0.2336 -0.1793
   21loPI   C3B  335  10.951   7.496   9.113 -0.0027 -0.0770 -0.2419
   21loPI   C4B  336  10.906   7.662   8.645  0.2304  0.2720 -0.3034
   22loPI    C1  337   6.872  15.058  10.665 -0.2004  0.0245 -0.1603
   22loPI    C2  338   7.163  15.105  10.936  0.0930 -0.3857 -0.3926
   22loPI    C3  339   6.792  15.230  11.017  0.2346 -0.2561  0.0853
   22loPI   PO4  340   7.069  14.825  10.511 -0.0151 -0.0310 -0.0462
   22loPI   GL1  341   7.013  14.689  10.135 -0.0766  0.0620 -0.0384
   22loPI   GL2  342   6.685  14.773  10.022 -0.2023  0.0150 -0.2312
   22loPI   C1A  343   7.025  14.677   9.676  0.1933 -0.2606 -0.3163
   22loPI   C2A  344   7.012  14.723   9.226 -0.0058 -0.1177  0.2919
   22loPI   C3A  345   6.990  14.657   8.750  0.1283 -0.1239  0.1305
   22loPI   C4A  346   6.971  14.754   8.417 -0.0209 -0.2059  0.1730
   22loPI   C5A  347   6.987  14.592   7.997  0.0695  0.0892 -0.1286
   22loPI   C6A  348   7.213  14.614   7.587 -0.0883 -0.3046 -0.0360
   22loPI   C1B  349   6.507  14.631   9.632 -0.2750  0.1372 -0.3471
   22loPI   C2B  350   6.455  14.693   9.218 -0.5645 -0.0581 -0.3872
   22loPI   C3B  351   6.473  14.736   8.792 -0.4258  0.2410 -0.3757
   22loPI   C4B  352   6.526  14.573   8.327  0.3062  0.2488 -0.1655
   23loPI    C1  353  16.854   8.521  10.755 -0.0665 -0.0760 -0.0025
   23loPI    C2  354  17.161   8.735  10.896  0.0280 -0.1056 -0.1605
   23loPI    C3  355  16.952   8.498  11.142  0.0449  0.0191 -0.0245
   23loPI   PO4  356  16.698   8.692  10.571  0.2450  0.1511  0.0360
   23loPI   GL1  357  16.790   8.855  10.187 -0.0521  0.3028  0.1959
   23loPI   GL2  358  16.614   9.108  10.101 -0.3470 -0.1807  0.1949
   23loPI   C1A  359  16.759   8.608   9.768  0.0831  0.1827 -0.3170
   23loPI   C2A  360  16.818   8.708   9.350  0.3735 -0.1598 -0.1108
   23loPI   C3A  361  17.163   8.716   8.990  0.1313 -0.0497  0.0040
   23loPI   C4A  362  17.202   8.765   8.536  0.1998  0.1455  0.0276
   23loPI   C5A  363  17.597   8.699   8.330  0.2756 -0.1013  0.1250
   23loPI   C6A  364  17.987   8.754   8.116 -0.1263  0.2220 -0.0814
   23loPI   C1B  365  16.459   9.046   9.676  0.0225 -0.3275 -0.1473
   23loPI   C2B  366  16.103   9.158   9.320  0.1292 -0.4307 -0.1249
   23loPI   C3B  367  16.183   9.274   8.901  0.0215 -0.2460 -0.0074
   23loPI   C4B  368  16.341   9.182   8.542  0.2043 -0.2146  0.4031
   24loPI    C1  369   2.260   3.119  10.916  0.0279  0.1061 -0.0054
   24loPI    C2  370   2.078   2.959  10.597  0.2211 -0.2180  0.0430
   24loPI    C3  371   2.173   2.729  10.910  0.1336  0.0760  0.2911
   24loPI   PO4  372   2.101   3.354  10.941 -0.1488  0.1323 -0.4839
   24loPI   GL1  373   2.171   3.465  10.519 -0.2867 -0.0967 -0.0512
   24loPI   GL2  374   1.915   3.707  10.338 -0.0351 -0.1414 -0.0064
   24loPI   C1A  375   2.473   3.598  10.188 -0.1217 -0.1709  0.0307
   24loPI   C2A  376   2.667   3.504   9.795  0.5784 -0.0620  0.1939
   24loPI   C3A  377   2.720   3.537   9.408  0.3036 -0.3394 -0.0748
   24loPI   C4A  378   2.721   3.648   8.977  0.0485 -0.4405 -0.0097
   24loPI   C5A  379   2.784   3.615   8.504  0.1017 -0.1117 -0.1348
   24loPI   C6A  380   2.754   3.690   7.988 -0.3083  0.0352  0.1357
   24loPI   C1B  381   2.111   3.600   9.887 -0.2157  0.0359 -0.0650
   24loPI   C2B  382   2.117   3.554   9.481 -0.0541 -0.1912  0.2576
   24loPI   C3B  383   2.103   3.607   9.020 -0.2597  0.1505  0.0051
   24loPI   C4B  384   2.179   3.800   8.518 -0.0520  0.3842  0.0200
   25loPI    C1  385  11.061  11.789  11.283 -0.1262  0.2044  0.2803
   25loPI    C2  386  10.896  11.452  11.422  0.0090  0.0813  0.1456
   25loPI    C3  387  11.156  11.655  11.648  0.1022 -0.0287  0.1379
   25loPI   PO4  388  10.905  11.879  11.174 -0.4390 -0.0339 -0.1022
   25loPI   GL1  389  10.794  11.876  10.715 -0.0381 -0.2223  0.2040
   25loPI   GL2  390  10.579  11.652  10.540  0.1725 -0.4490  0.0050
   25loPI   C1A  391  10.780  12.060  10.265 -0.1813  0.2327  0.1232
   25loPI   C2A  392  10.775  12.033   9.810 -0.1048  0.0098  0.0676
   25loPI   C3A  393  10.643  12.159   9.513  0.1020 -0.2613  0.1477
   25loPI   C4A  394  10.671  12.060   9.118  0.5542  0.1076 -0.0180
   25loPI   C5A  395  10.554  12.130   8.720 -0.1150  0.1420  0.0047
   25loPI   C6A  396  10.147  12.076   8.592 -0.0576 -0.0063  0.0712
   25loPI   C1B  397  10.620  11.555  10.117  0.3153 -0.1124  0.0027
   25loPI   C2B  398  10.502  11.541   9.654 -0.3602 -0.0107 -0.0580
   25loPI   C3B  399  10.483  11.567   9.236 -0.0513  0.0117 -0.2288
   25loPI   C4B  400  10.390  11.666   8.851 -0.1883  0.1308  0.0817
   26loPI    C1  401  10.650  14.565  10.899 -0.1656 -0.0015 -0.0559
   26loPI    C2  402  10.665  14.623  11.295  0.0733 -0.2400 -0.0273
   26loPI    C3  403  10.312  14.571  11.114 -0.0377 -0.1238  0.1521
   26loPI   PO4  404  10.769  14.706  10.720 -0.0534  0.2043  0.2925
   26loPI   GL1  405  10.607  14.823  10.241 -0.1672  0.0908  0.3016
   26loPI   GL2  406  10.521  14.593  10.199  0.2265  0.0507  0.0806
   26loPI   C1A  407  10.613  15.205   9.944  0.1897  0.2997  0.0900
   26loPI   C2A  408  10.684  15.244   9.553 -0.0413  0.0773  0.1184
   26loPI   C3A  409  10.595  15.178   9.084 -0.0274  0.0849  0.3441
   26loPI   C4A  410  10.619  15.125   8.661  0.0427  0.3945 -0.2804
   26loPI   C5A  411  10.565  15.370   8.342  0.0731  0.0434 -0.0455
   26loPI   C6A  412  10.787  15.632   8.100 -0.5066  0.1219 -0.3984
   26loPI   C1B  413  10.463  14.661   9.750 -0.1942  0.0809  0.3142
   26loPI   C2B  414  10.496  14.581   9.270 -0.0312 -0.1117 -0.3184
   26loPI   C3B  415  10.404  14.730   8.913  0.1330 -0.2111  0.0251
   26loPI   C4B  416  10.194  14.652   8.487 -0.0953  0.0792  0.2920
   27loPI    C1  417   9.268   8.362  10.926 -0.0693  0.0775  0.0514
   27loPI    C2  418   9.298   8.700  11.138  0.0764  0.0210  0.1225
   27loPI    C3  419   9.564   8.406  11.191  0.0938 -0.0085 -0.1141
   27loPI   PO4  420   9.171   8.438  10.684  0.1712 -0.2192  0.0086
   27loPI   GL1  421   9.205   8.609  10.353  0.2048  0.1551  0.0032
   27loPI   GL2  422   9.498   8.638  10.265 -0.1598 -0.0762 -0.1542
   27loPI   C1A  423   9.069   8.678   9.986  0.0053  0.0816  0.1234
   27loPI   C2A  424   9.104   8.692   9.564 -0.0458  0.0363  0.1347
   27loPI   C3A  425   9.213   8.650   9.115  0.0999 -0.3315 -0.0681
   27loPI   C4A  426   9.156   8.709   8.627 -0.0752 -0.1189  0.0227
   27loPI   C5A  427   9.113   8.472   8.218 -0.0881 -0.4650  0.3123
   27loPI   C6A  428   8.890   8.140   7.937 -0.0509  0.3685  0.0765
   27loPI   C1B  429   9.350   9.072  10.081  0.0461  0.3796 -0.1166
   27loPI   C2B  430   9.395   9.272   9.696 -0.0055  0.1692  0.0393
   27loPI   C3B  431   9.362   9.236   9.362 -0.0178  0.0108  0.3050
   27loPI   C4B  432   9.424   9.195   8.891  0.1633  0.2045 -0.2008
   28loPI    C1  433  15.635  12.653  11.059 -0.0078 -0.2372 -0.1287
   28loPI    C2  434  15.694  12.323  11.277  0.0100 -0.1061  0.0674
   28loPI    C3  435  15.655  12.678  11.458 -0.1668 -0.0214 -0.1323
   28loPI   PO4  436  15.759  12.553  10.832 -0.1703  0.2362 -0.1769
   28loPI   GL1  437  15.743  12.310  10.427  0.2084 -0.0401  0.0181
   28loPI   GL2  438  15.459  12.361  10.486  0.0498  0.4413  0.0742
   28loPI   C1A  439  15.917  12.252  10.011  0.0318 -0.2300  0.0949
   28loPI   C2A  440  15.884  12.255   9.559  0.0478  0.1139  0.2878
   28loPI   C3A  441  15.956  12.232   9.159 -0.1753 -0.1200  0.0087
   28loPI   C4A  442  15.779  12.143   8.722  0.4136 -0.0507 -0.0404
   28loPI   C5A  443  15.899  12.032   8.416 -0.2369 -0.1836 -0.2020
   28loPI   C6A  444  16.222  11.908   8.185 -0.1715  0.0642 -0.0546
   28loPI   C1B  445  15.399  12.214  10.084  0.0453 -0.1774  0.1254
   28loPI   C2B  446  15.376  12.134   9.654 -0.2720  0.3134 -0.1864
   28loPI   C3B  447  15.487  12.100   9.226  0.1857 -0.0755  0.0282
   28loPI   C4B  448  15.326  12.218   8.872  0.0036  0.2791 -0.0378
   29loPI    C1  449   1.884  16.062  10.372 -0.0400  0.1063  0.0060
   29loPI    C2  450   2.263  16.142  10.473  0.0629 -0.1989 -0.1272
   29loPI    C3  451   2.078  15.821  10.624 -0.1619 -0.0238 -0.0236
   29loPI   PO4  452   1.846  16.052  10.050  0.2087 -0.1572  0.0295
   29loPI   GL1  453   1.725  15.850   9.691 -0.1965 -0.1314 -0.0908
   29loPI   GL2  454   1.472  16.039   9.588  0.0307 -0.1342  0.0068
   29loPI   C1A  455   1.722  15.562   9.394 -0.0394 -0.1795 -0.0207
   29loPI   C2A  456   1.810  15.430   9.028 -0.0969  0.0699  0.0241
   29loPI   C3A  457   2.039  15.448   8.647  0.0138 -0.0456  0.2406
   29loPI   C4A  458   2.140  15.401   8.190  0.2192  0.3104 -0.0437
   29loPI   C5A  459   1.951  15.186   7.942  0.3622 -0.1233 -0.4753
   29loPI   C6A  460   1.987  15.242   7.474 -0.4213  0.0953  0.1231
   29loPI   C1B  461   1.779  16.060   9.233 -0.1369  0.4414  0.1850
   29loPI   C2B  462   2.085  15.911   8.862 -0.0809  0.1289  0.3953
   29loPI   C3B  463   2.323  15.805   8.476 -0.0699  0.0840  0.0753
   29loPI   C4B  464   2.558  15.725   8.125  0.1799 -0.1386 -0.0566
   30loPI    C1  465   0.516  11.646  11.069  0.0714  0.1280  0.0840
   30loPI    C2  466   0.490  11.254  10.992  0.0285  0.1410  0.0321
   30loPI    C3  467   0.792  11.395  11.212  0.1122  0.0943 -0.0520
   30loPI   PO4  468   0.506  11.829  10.803  0.1289  0.2623  0.0484
   30loPI   GL1  469   0.577  11.836  10.341  0.0958 -0.0611  0.1342
   30loPI   GL2  470   0.966  11.848  10.390  0.0515 -0.4027  0.2311
   30loPI   C1A  471   0.732  11.622   9.969  0.0847  0.0385  0.2979
   30loPI   C2A  472   0.716  11.345   9.531 -0.0274 -0.2422  0.4049
   30loPI   C3A  473   0.635  11.106   9.180 -0.0542  0.0899  0.0375
   30loPI   C4A  474   0.840  11.130   8.828 -0.0445  0.0020 -0.3246
   30loPI   C5A  475   0.842  11.220   8.400 -0.1054 -0.3450  0.0168
   30loPI   C6A  476   1.086  11.326   8.062  0.0608 -0.1883 -0.4339
   30loPI   C1B  477   1.074  11.988  10.042 -0.2045  0.1578 -0.0729
   30loPI   C2B  478   1.056  12.010   9.584 -0.2411  0.1120 -0.2476
   30loPI   C3B  479   1.206  12.106   9.240  0.0580 -0.0820 -0.0691
   30loPI   C4B  480   1.349  12.051   8.851  0.3075  0.1201 -0.0718
   31loPI    C1  481  13.540   6.256  10.790  0.0351 -0.0152 -0.2060
   31loPI    C2  482  13.353   6.514  11.032  0.3235 -0.2786  0.3158
   31loPI    C3  483  13.189   6.157  10.953  0.2904 -0.2435  0.2252
   31loPI   PO4  484  13.594   6.329  10.618 -0.0535 -0.0529  0.2024
   31loPI   GL1  485  14.023   6.250  10.339 -0.1311 -0.0128 -0.1445
   31loPI   GL2  486  13.692   6.098  10.138 -0.2167 -0.1584 -0.0055
   31loPI   C1A  487  14.111   6.446   9.885  0.1717 -0.0185 -0.0359
   31loPI   C2A  488  13.976   6.463   9.504  0.2158  0.0590  0.0823
   31loPI   C3A  489  13.893   6.594   9.059  0.2246  0.0718  0.0838
   31loPI   C4A  490  13.994   6.573   8.582 -0.1340  0.0261  0.0273
   31loPI   C5A  491  13.826   6.593   8.168 -0.2382 -0.3321 -0.0461
   31loPI   C6A  492  13.692   6.394   7.925 -0.1320 -0.1530  0.0479
   31loPI   C1B  493  13.892   6.023   9.770  0.2740  0.0983  0.0980
   31loPI   C2B  494  13.717   6.048   9.275  0.1586 -0.0786 -0.1421
   31loPI   C3B  495  13.733   6.131   8.799 -0.0867  0.2057  0.2302
   31loPI   C4B  496  13.769   6.046   8.351 -0.0490 -0.0508  0.0194
   32loPI    C1  497   7.093   3.155  10.998 -0.0276 -0.0407  0.1486
   32loPI    C2  498   7.038   2.991  11.359 -0.0857 -0.0216  0.1485
   32loPI    C3  499   6.796   3.283  11.233  0.0239  0.0716  0.1531
   32loPI   PO4  500   7.293   2.998  10.892  0.4487 -0.4521 -0.1466
   32loPI   GL1  501   7.217   2.917  10.510 -0.0309 -0.2348 -0.2000
   32loPI   GL2  502   7.328   2.681  10.443  0.2457 -0.1775 -0.1209
   32loPI   C1A  503   7.403   3.173  10.200 -0.0304  0.1222  0.0577
   32loPI   C2A  504   7.484   3.124   9.735 -0.0345 -0.1540  0.1289
   32loPI   C3A  505   7.589   3.094   9.300 -0.0990 -0.1926 -0.4209
   32loPI   C4A  506   7.474   3.260   8.902 -0.2171  0.0820  0.0982
   32loPI   C5A  507   7.512   3.328   8.407  0.1621  0.2813 -0.0637
   32loPI   C6A  508   7.314   3.338   8.014  0.0529  0.0257 -0.5515
   32loPI   C1B  509   7.280   2.635   9.986  0.1421  0.2748 -0.1490
   32loPI   C2B  510   7.280   2.671   9.512  0.0995  0.3153  0.0621
   32loPI   C3B  511   7.282   2.670   9.094 -0.0936  0.2040  0.1180
   32loPI   C4B  512   7.325   2.486   8.694  0.1469 -0.0461 -0.0286
   33loPI    C1  513  11.790   6.303  11.014 -0.1937  0.0661 -0.1168
   33loPI    C2  514  11.748   6.687  11.115 -0.0189  0.0582 -0.0095
   33loPI    C3  515  11.696   6.401  11.390  0.4260  0.0353  0.0577
   33loPI   PO4  516  11.592   6.307  10.797 -0.1387  0.1711  0.1977
   33loPI   GL1  517  11.783   6.269  10.432  0.0179 -0.0784  0.1277
   33loPI   GL2  518  11.727   5.917  10.380 -0.0508  0.3487 -0.1570
   33loPI   C1A  519  11.723   6.652  10.119 -0.2363  0.1309 -0.0608
   33loPI   C2A  520  11.575   6.811   9.759 -0.0609  0.0368 -0.4687
   33loPI   C3A  521  11.551   6.742   9.329 -0.1697  0.0497 -0.2038
   33loPI   C4A  522  11.555   6.704   8.865  0.1161  0.2513 -0.0963
   33loPI   C5A  523  11.426   6.800   8.319 -0.0368  0.0849 -0.0189
   33loPI   C6A  524  11.757   6.769   7.974 -0.1239 -0.1256  0.1036
   33loPI   C1B  525  11.718   5.942   9.958  0.1070 -0.1864 -0.1296
   33loPI   C2B  526  11.644   5.897   9.587 -0.0350  0.1840  0.2438
   33loPI   C3B  527  11.650   5.838   9.153  0.0229 -0.0214 -0.0694
   33loPI   C4B  528  11.542   5.897   8.763 -0.2430 -0.0485  0.2036
   34loPI    C1  529  10.488   4.192  10.845 -0.1940 -0.1185 -0.0202
   34loPI    C2  530  10.183   4.052  11.062 -0.0859  0.2517  0.3832
   34loPI    C3  531  10.536   4.126  11.236  0.2058 -0.0587 -0.0541
   34loPI   PO4  532  10.303   4.301  10.617  0.1510  0.0115  0.3135
   34loPI   GL1  533  10.467   4.430  10.280 -0.2056 -0.0065  0.2529
   34loPI   GL2  534  10.260   4.721  10.185  0.0108 -0.0011 -0.1626
   34loPI   C1A  535  10.615   4.362   9.914 -0.1744  0.3557 -0.1030
   34loPI   C2A  536  10.656   4.392   9.529 -0.0412 -0.4816  0.3415
   34loPI   C3A  537  10.603   4.429   9.140 -0.0743 -0.0093 -0.2685
   34loPI   C4A  538  10.568   4.405   8.605  0.0497 -0.1098 -0.0001
   34loPI   C5A  539  10.185   4.390   8.279 -0.2511 -0.1492 -0.0854
   34loPI   C6A  540   9.924   4.533   7.861 -0.0179  0.0521  0.1386
   34loPI   C1B  541  10.200   4.806   9.735  0.4156  0.1318 -0.1644
   34loPI   C2B  542  10.289   4.807   9.416 -0.2194 -0.0639  0.2603
   34loPI   C3B  543  10.291   4.882   8.923  0.0714 -0.0617  0.0830
   34loPI   C4B  544  10.390   4.863   8.481  0.2209 -0.0247  0.3221
   35loPI    C1  545  13.921  13.480  11.151 -0.0080  0.3366 -0.1963
   35loPI    C2  546  14.031  13.849  11.258 -0.0809  0.2098  0.3520
   35loPI    C3  547  14.144  13.535  11.479  0.0865 -0.1162 -0.1770
   35loPI   PO4  548  13.975  13.473  10.830  0.1744 -0.0279  0.2104
   35loPI   GL1  549  13.870  13.558  10.407  0.2248  0.5724 -0.1232
   35loPI   GL2  550  14.122  13.223  10.352 -0.1582  0.1134  0.2168
   35loPI   C1A  551  14.050  13.812  10.155 -0.2483  0.1373 -0.0326
   35loPI   C2A  552  14.194  13.740   9.816  0.1750  0.3263  0.1629
   35loPI   C3A  553  14.124  13.799   9.465 -0.0784 -0.2696 -0.0639
   35loPI   C4A  554  14.050  13.818   9.048  0.2183  0.1097 -0.1811
   35loPI   C5A  555  13.859  13.679   8.683  0.1497  0.0515  0.2464
   35loPI   C6A  556  13.779  13.547   8.309  0.1250  0.0525  0.0307
   35loPI   C1B  557  13.936  13.300   9.941 -0.1452  0.1405 -0.0726
   35loPI   C2B  558  13.859  13.267   9.503 -0.2304  0.0134  0.0777
   35loPI   C3B  559  13.783  13.325   9.094 -0.0186  0.2852  0.1403
   35loPI   C4B  560  13.641  13.239   8.715  0.1874 -0.0322 -0.4225
   36loPI    C1  561   2.798   6.856  11.495 -0.2695 -0.1702 -0.1075
   36loPI    C2  562   2.437   6.697  11.558 -0.2240 -0.1748  0.1535
   36loPI    C3  563   2.697   6.728  11.860 -0.2956  0.5593  0.1571
   36loPI   PO4  564   2.876   6.798  11.237 -0.2563 -0.1372  0.4088
   36loPI   GL1  565   3.075   6.674  10.841 -0.1438  0.1552  0.0455
   36loPI   GL2  566   2.828   6.572  10.768  0.1333 -0.1770  0.2732
   36loPI   C1A  567   3.160   6.697  10.335 -0.1481 -0.0935  0.0242
   36loPI   C2A  568   3.041   6.845   9.906  0.1735 -0.0844  0.0779
   36loPI   C3A  569   3.193   6.823   9.526 -0.0602  0.3053 -0.1288
   36loPI   C4A  570   3.308   6.903   9.130  0.3628  0.1948 -0.0620
   36loPI   C5A  571   3.170   7.027   8.789 -0.0980  0.3861 -0.1474
   36loPI   C6A  572   2.776   7.236   8.639  0.2361 -0.0033 -0.3649
   36loPI   C1B  573   2.490   6.714  10.470 -0.3202  0.0618 -0.0123
   36loPI   C2B  574   2.636   6.666  10.142  0.0425  0.0081 -0.1208
   36loPI   C3B  575   2.557   6.817   9.783 -0.1220  0.0295 -0.0448
   36loPI   C4B  576   2.706   6.695   9.417 -0.3639 -0.1730 -0.1805
   37loPI    C1  577   1.034   2.892  11.123  0.1315 -0.0184  0.0703
   37loPI    C2  578   0.951   2.555  11.321 -0.1287 -0.1255 -0.2117
   37loPI    C3  579   0.846   2.909  11.475 -0.0063 -0.1815  0.0059
   37loPI   PO4  580   0.977   2.739  10.792 -0.0149 -0.0428  0.0181
   37loPI   GL1  581   0.914   2.467  10.325  0.0946 -0.2646 -0.3205
   37loPI   GL2  582   0.643   2.570  10.228  0.2746  0.2340 -0.1704
   37loPI   C1A  583   1.279   2.456  10.140 -0.3480 -0.1200  0.1980
   37loPI   C2A  584   1.587   2.561   9.753  0.4809 -0.2840 -0.2759
   37loPI   C3A  585   1.711   2.590   9.391  0.1530 -0.0977  0.0366
   37loPI   C4A  586   1.551   2.801   9.065 -0.0741  0.1635 -0.0821
   37loPI   C5A  587   1.566   3.041   8.659  0.1230 -0.0471 -0.1636
   37loPI   C6A  588   1.751   3.421   8.595 -0.1851  0.1182 -0.3684
   37loPI   C1B  589   0.471   2.697   9.950  0.1904  0.1098 -0.0167
   37loPI   C2B  590   0.553   2.560   9.525  0.0672  0.0052 -0.0938
   37loPI   C3B  591   0.676   2.397   9.126 -0.0911  0.0689  0.1392
   37loPI   C4B  592   0.693   2.449   8.731  0.2072 -0.0026  0.3645
   38loPI    C1  593  16.436   0.742  10.714 -0.2228 -0.0533  0.0964
   38loPI    C2  594  16.819   0.645  10.777 -0.2088 -0.0303  0.0469
   38loPI    C3  595  16.620   0.861  11.049 -0.1482  0.0697  0.0124
   38loPI   PO4  596  16.407   0.536  10.435 -0.1376 -0.1545  0.0436
   38loPI   GL1  597  16.720   0.461  10.208 -0.2615  0.0063 -0.2403
   38loPI   GL2  598  16.734   0.572   9.922 -0.4178 -0.1855  0.1905
   38loPI   C1A  599  16.797   0.128   9.872  0.3651 -0.0979  0.2947
   38loPI   C2A  600  16.536  -0.078   9.536 -0.3836 -0.0385 -0.0341
   38loPI   C3A  601  16.437  -0.201   9.130  0.0876 -0.0694 -0.0236
   38loPI   C4A  602  16.615  -0.251   8.674 -0.1205  0.3629  0.0358
   38loPI   C5A  603  16.419  -0.481   8.301 -0.0467 -0.2832 -0.0276
   38loPI   C6A  604  16.018  -0.472   8.171  0.0968  0.0274  0.0761
   38loPI   C1B  605  16.806   0.758   9.457 -0.0568 -0.0912 -0.3213
   38loPI   C2B  606  16.693   0.902   9.038  0.0418  0.0873 -0.3323
   38loPI   C3B  607  16.591   0.742   8.614 -0.0174  0.3853  0.1637
   38loPI   C4B  608  16.789   0.522   8.302 -0.2141 -0.1005 -0.0920
   39loPI    C1  609   0.452   2.964  10.748  0.0429  0.0768  0.1797
   39loPI    C2  610   0.342   3.231  11.024 -0.1395  0.0832  0.1020
   39loPI    C3  611   0.469   2.869  11.137 -0.1272  0.1168  0.1975
   39loPI   PO4  612   0.646   3.126  10.631  0.1335  0.0994  0.2022
   39loPI   GL1  613   0.991   2.961  10.350  0.0756 -0.0061 -0.1723
   39loPI   GL2  614   1.006   3.224  10.201 -0.1635 -0.2858  0.0571
   39loPI   C1A  615   0.961   2.832   9.916  0.6674  0.0526 -0.0792
   39loPI   C2A  616   0.718   3.004   9.488  0.0353 -0.0792 -0.2427
   39loPI   C3A  617   0.504   2.904   9.138  0.1864  0.3386 -0.0517
   39loPI   C4A  618   0.538   2.952   8.738 -0.1169 -0.1592  0.1417
   39loPI   C5A  619   0.597   3.238   8.419 -0.1096 -0.0622 -0.1133
   39loPI   C6A  620   0.620   3.449   8.113 -0.0071  0.0465 -0.2220
   39loPI   C1B  621   1.037   3.395   9.778 -0.1160  0.0693 -0.0859
   39loPI   C2B  622   1.075   3.515   9.354  0.1279 -0.1527  0.2949
   39loPI   C3B  623   0.721   3.322   9.055 -0.1037 -0.1751  0.1534
   39loPI   C4B  624   0.319   3.411   8.832 -0.2469  0.2171 -0.1762
   40loPI    C1  625  17.660  12.008  10.706 -0.0055  0.2323 -0.0405
   40loPI    C2  626  17.515  11.769  10.991  0.2081  0.1118 -0.0310
   40loPI    C3  627  17.346  12.124  10.923 -0.0851 -0.0221 -0.0163
   40loPI   PO4  628  17.633  11.842  10.504 -0.3032 -0.1278 -0.3747
   40loPI   GL1  629  17.510  11.964  10.105  0.1046 -0.2734  0.0364
   40loPI   GL2  630  17.737  12.155  10.091 -0.0371 -0.2506  0.2145
   40loPI   C1A  631  17.395  11.879   9.723  0.2536  0.2020  0.2702
   40loPI   C2A  632  17.207  11.831   9.320 -0.2004  0.1554 -0.2138
   40loPI   C3A  633  17.108  11.887   8.879  0.1304 -0.0902  0.1244
   40loPI   C4A  634  17.068  11.687   8.443 -0.1266  0.1078  0.0324
   40loPI   C5A  635  17.204  11.258   8.301  0.1823  0.1451  0.1877
   40loPI   C6A  636  17.381  11.136   7.862  0.1100 -0.0025 -0.2342
   40loPI   C1B  637  17.992  12.031   9.774 -0.0111  0.0690 -0.2080
   40loPI   C2B  638  17.881  11.916   9.399  0.1096 -0.1492  0.0539
   40loPI   C3B  639  17.621  11.676   9.072 -0.0044  0.2414 -0.1302
   40loPI   C4B  640  17.516  11.513   8.602  0.2697 -0.0137 -0.0321
   41loPI    C1  641  17.363   6.007  10.610  0.0540  0.1011  0.0245
   41loPI    C2  642  17.440   5.927  10.994  0.2557  0.0793 -0.0194
   41loPI    C3  643  17.340   6.298  10.883 -0.0319  0.0360  0.0870
   41loPI   PO4  644  17.372   5.795  10.511 -0.1199 -0.0218 -0.0439
   41loPI   GL1  645  17.226   5.640  10.154  0.0724 -0.4021  0.2053
   41loPI   GL2  646  17.027   5.477  10.108 -0.0255 -0.3030 -0.4831
   41loPI   C1A  647  17.435   6.001   9.837 -0.2076  0.1566 -0.0903
   41loPI   C2A  648  17.812   6.001   9.553 -0.0524  0.0276 -0.2500
   41loPI   C3A  649  17.939   6.223   9.251  0.0974  0.0389  0.0203
   41loPI   C4A  650  17.995   6.302   8.817  0.0001 -0.0723 -0.2386
   41loPI   C5A  651  18.015   6.683   8.558 -0.1822  0.3072 -0.0747
   41loPI   C6A  652  18.374   6.776   8.282 -0.2476 -0.0755 -0.2272
   41loPI   C1B  653  17.156   5.612   9.620  0.1639 -0.4396  0.0840
   41loPI   C2B  654  17.113   5.565   9.157  0.1538  0.1691  0.0867
   41loPI   C3B  655  17.149   5.760   8.771 -0.0313  0.2308  0.2815
   41loPI   C4B  656  17.335   5.703   8.333  0.2922  0.0824  0.0114
   42loPI    C1  657   4.224  14.891  10.981 -0.1035 -0.0981  0.1007
   42loPI    C2  658   4.392  15.237  11.091  0.0119 -0.0660 -0.1675
   42loPI    C3  659   4.005  15.169  11.168  0.0525  0.0132  0.1200
   42loPI   PO4  660   4.466  14.744  10.907 -0.0634  0.1409 -0.0518
   42loPI   GL1  661   4.678  14.632  10.447  0.0928  0.1775  0.0519
   42loPI   GL2  662   4.972  14.676  10.330  0.1333  0.2696 -0.0247
   42loPI   C1A  663   4.467  14.524  10.075  0.4311  0.0683 -0.4488
   42loPI   C2A  664   4.357  14.502   9.685 -0.1707  0.0966  0.3541
   42loPI   C3A  665   4.393  14.673   9.184  0.3012  0.2963  0.2445
   42loPI   C4A  666   4.595  14.572   8.776 -0.0446  0.2028  0.1135
   42loPI   C5A  667   4.614  14.633   8.317  0.2164 -0.1677  0.1238
   42loPI   C6A  668   5.026  14.663   8.156  0.1825  0.1248 -0.1677
   42loPI   C1B  669   4.947  14.637   9.858 -0.2150 -0.4695  0.1826
   42loPI   C2B  670   4.872  14.563   9.445 -0.1616  0.0085 -0.2160
   42loPI   C3B  671   4.995  14.610   9.091  0.2077 -0.0935  0.0525
   42loPI   C4B  672   5.066  14.583   8.635  0.1406 -0.1147 -0.2421
   43loPI    C1  673   5.057  17.831  10.864 -0.0581  0.2158 -0.0326
   43loPI    C2  674   5.409  17.846  11.055 -0.0972  0.1870  0.0421
   43loPI    C3  675   5.113  17.618  11.198 -0.0922  0.0831 -0.1110
   43loPI   PO4  676   5.174  17.790  10.606  0.1033  0.1657  0.3796
   43loPI   GL1  677   5.221  17.791  10.174  0.1054  0.3314  0.0947
   43loPI   GL2  678   5.273  18.131  10.258  0.1125  0.1132  0.1302
   43loPI   C1A  679   5.419  17.924   9.855  0.3699  0.0336 -0.0646
   43loPI   C2A  680   5.387  17.737   9.411  0.0050 -0.2465  0.0510
   43loPI   C3A  681   5.496  17.826   8.934 -0.0081 -0.3882 -0.0820
   43loPI   C4A  682   5.424  17.822   8.553 -0.1870 -0.3082 -0.1932
   43loPI   C5A  683   5.195  17.588   8.228  0.1264 -0.1750  0.1426
   43loPI   C6A  684   5.066  17.663   7.844  0.2072  0.2495  0.0473
   43loPI   C1B  685   5.400  18.522  10.133  0.1765 -0.2064 -0.4033
   43loPI   C2B  686   5.405  18.758   9.763 -0.0993  0.1014 -0.0033
   43loPI   C3B  687   5.349  18.681   9.333  0.2129  0.0357 -0.3422
   43loPI   C4B  688   5.336  18.714   8.928 -0.3718  0.1976  0.0481
   44loPI    C1  689   5.951  17.765  10.872 -0.0656 -0.1491 -0.0895
   44loPI    C2  690   5.916  17.476  11.146 -0.1699 -0.1054 -0.0562
   44loPI    C3  691   5.959  17.857  11.261  0.0428 -0.1148 -0.0994
   44loPI   PO4  692   6.080  17.572  10.673  0.1588 -0.0066  0.0835
   44loPI   GL1  693   5.947  17.603  10.253 -0.0589  0.0804  0.0128
   44loPI   GL2  694   5.883  17.856  10.085 -0.0752 -0.2445 -0.0325
   44loPI   C1A  695   6.170  17.431   9.871 -0.5730 -0.1590  0.2142
   44loPI   C2A  696   6.235  17.414   9.398  0.1347  0.3680  0.1119
   44loPI   C3A  697   6.259  17.385   8.959  0.0205  0.1056  0.2511
   44loPI   C4A  698   6.328  17.430   8.604  0.1664 -0.5207  0.1477
   44loPI   C5A  699   6.440  17.485   8.268  0.2108  0.1775 -0.1174
   44loPI   C6A  700   6.333  17.270   7.937 -0.1056 -0.2747 -0.2731
   44loPI   C1B  701   5.937  17.894   9.631 -0.0437  0.1852  0.0949
   44loPI   C2B  702   5.964  17.855   9.204 -0.0946  0.3942 -0.2342
   44loPI   C3B  703   5.984  17.796   8.779  0.0808  0.3280 -0.1110
   44loPI   C4B  704   6.181  17.891   8.464 -0.1165  0.0470  0.2994
   45loPI    C1  705   8.825  11.161  11.415  0.1979 -0.2898  0.0386
   45loPI    C2  706   9.180  11.253  11.255 -0.0046  0.1406 -0.1805
   45loPI    C3  707   9.049  11.450  11.577 -0.0685  0.0186 -0.1314
   45loPI   PO4  708   8.665  11.103  11.145 -0.2702  0.1870  0.1093
   45loPI   GL1  709   8.671  11.223  10.800  0.3822  0.0980 -0.0754
   45loPI   GL2  710   8.498  11.543  10.688 -0.2652  0.1598  0.0461
   45loPI   C1A  711   8.702  10.934  10.445 -0.1357 -0.1699 -0.1555
   45loPI   C2A  712   8.629  10.887  10.041  0.1875 -0.0511 -0.0880
   45loPI   C3A  713   8.703  10.838   9.557  0.3064 -0.2812  0.0774
   45loPI   C4A  714   8.714  11.054   9.099 -0.4231 -0.0208 -0.0898
   45loPI   C5A  715   8.632  11.204   8.694  0.1076  0.0322 -0.1151
   45loPI   C6A  716   8.928  11.082   8.326  0.1302  0.0545 -0.0258
   45loPI   C1B  717   8.394  11.274  10.330  0.2471  0.0562  0.1917
   45loPI   C2B  718   8.377  11.338   9.917 -0.1093  0.2340 -0.3453
   45loPI   C3B  719   8.416  11.256   9.491 -0.0740 -0.3409  0.1602
   45loPI   C4B  720   8.374  11.414   9.112  0.0098  0.1034  0.1614
   46loPI    C1  721   6.894   4.328  11.330 -0.0783  0.0451  0.0886
   46loPI    C2  722   6.586   4.452  11.553 -0.1133 -0.0108  0.0716
   46loPI    C3  723   6.882   4.241  11.720 -0.1915 -0.1433  0.0442
   46loPI   PO4  724   6.770   4.365  11.061 -0.2333  0.3306 -0.0863
   46loPI   GL1  725   6.629   4.225  10.775  0.2765  0.1883  0.1544
   46loPI   GL2  726   6.813   4.029  10.499 -0.3988  0.2336 -0.0526
   46loPI   C1A  727   6.574   4.466  10.272 -0.1743  0.1534  0.0310
   46loPI   C2A  728   6.561   4.470   9.822  0.0777 -0.2585 -0.3146
   46loPI   C3A  729   6.627   4.465   9.422 -0.0315  0.1399  0.3490
   46loPI   C4A  730   6.579   4.387   9.081 -0.0232 -0.1298 -0.2130
   46loPI   C5A  731   6.689   4.497   8.701 -0.0604  0.1080  0.3503
   46loPI   C6A  732   6.594   4.321   8.296 -0.0204  0.0121  0.0665
   46loPI   C1B  733   6.871   4.125  10.106  0.3453 -0.1357  0.2023
   46loPI   C2B  734   6.837   4.038   9.675  0.0090 -0.0485 -0.1666
   46loPI   C3B  735   6.893   4.065   9.255  0.1193  0.0691  0.1077
   46loPI   C4B  736   6.809   3.960   8.830 -0.1206  0.1339 -0.1003
   47loPI    C1  737   9.503   9.395  10.979  0.0610  0.0261  0.0238
   47loPI    C2  738   9.649   9.056  11.132 -0.1495 -0.1965 -0.2581
   47loPI    C3  739   9.319   9.219  11.287 -0.0879 -0.1575 -0.1673
   47loPI   PO4  740   9.494   9.378  10.715 -0.2739 -0.1313  0.0820
   47loPI   GL1  741   9.519   9.523  10.304  0.1643  0.0262 -0.0247
   47loPI   GL2  742   9.846   9.506  10.315  0.1761 -0.0850  0.0465
   47loPI   C1A  743   9.595   9.734   9.844  0.2089  0.1968 -0.0369
   47loPI   C2A  744   9.664   9.769   9.414 -0.1585  0.0676  0.0278
   47loPI   C3A  745   9.611   9.681   9.012 -0.0709 -0.2218 -0.4083
   47loPI   C4A  746   9.725   9.659   8.592  0.1596  0.0343  0.2759
   47loPI   C5A  747   9.897   9.736   8.253 -0.1767 -0.0192 -0.2990
   47loPI   C6A  748  10.165  10.036   8.247  0.0920  0.1186  0.0852
   47loPI   C1B  749   9.850   9.248   9.910  0.0382  0.2835  0.1697
   47loPI   C2B  750   9.980   9.212   9.564 -0.0478  0.1773 -0.3590
   47loPI   C3B  751   9.880   9.369   9.199  0.1070  0.4461  0.1216
   47loPI   C4B  752   9.916   9.195   8.760 -0.0825 -0.0159  0.1341
   48loPI    C1  753   4.993   3.106  11.498 -0.0672  0.0187  0.4726
   48loPI    C2  754   5.355   2.963  11.590  0.0662  0.0414  0.0106
   48loPI    C3  755   5.305   3.355  11.527  0.0146  0.0080 -0.1615
   48loPI   PO4  756   4.973   2.921  11.225  0.0706  0.2487  0.1782
   48loPI   GL1  757   4.939   2.999  10.828  0.0105  0.1619  0.0528
   48loPI   GL2  758   5.217   2.822  10.744  0.0861 -0.0356 -0.2476
   48loPI   C1A  759   5.085   3.299  10.585  0.0701  0.0129 -0.0705
   48loPI   C2A  760   4.986   3.257  10.149 -0.2263 -0.1506 -0.0783
   48loPI   C3A  761   5.079   3.285   9.703  0.1795 -0.1592 -0.0513
   48loPI   C4A  762   5.080   3.354   9.262 -0.4484 -0.0638 -0.0084
   48loPI   C5A  763   5.157   3.302   8.810  0.1217  0.2223  0.4584
   48loPI   C6A  764   5.416   3.088   8.498  0.0011  0.0643 -0.0710
   48loPI   C1B  765   5.325   2.894  10.276  0.1100  0.2026 -0.0329
   48loPI   C2B  766   5.470   3.035   9.944  0.0484 -0.1109  0.2190
   48loPI   C3B  767   5.442   2.980   9.418 -0.0867  0.1108 -0.0436
   48loPI   C4B  768   5.454   2.870   8.991 -0.1578  0.0697  0.0672
   49loPI    C1  769  17.884   6.779  11.140  0.2580  0.1140 -0.0413
   49loPI    C2  770  17.930   6.382  11.140 -0.0096  0.0807 -0.2466
   49loPI    C3  771  17.979   6.588  11.479 -0.2210 -0.1710 -0.0586
   49loPI   PO4  772  17.615   6.734  10.964 -0.1401  0.2193  0.2094
   49loPI   GL1  773  17.568   6.707  10.534  0.2527 -0.0942  0.0115
   49loPI   GL2  774  17.463   6.550  10.360  0.1766 -0.2211  0.0431
   49loPI   C1A  775  17.958   6.735  10.208  0.3987  0.0268 -0.0624
   49loPI   C2A  776  18.341   6.629   9.997 -0.4080 -0.0690  0.2338
   49loPI   C3A  777  18.516   6.494   9.686  0.0854  0.2837  0.2973
   49loPI   C4A  778  18.583   6.579   9.209 -0.1241 -0.0926  0.0567
   49loPI   C5A  779  18.590   6.484   8.732  0.1399 -0.0965 -0.0362
   49loPI   C6A  780  18.512   6.227   8.451  0.0766 -0.2347 -0.0667
   49loPI   C1B  781  17.338   6.464   9.896 -0.0359 -0.0104 -0.2518
   49loPI   C2B  782  17.519   6.557   9.437  0.1246 -0.0715 -0.2520
   49loPI   C3B  783  17.590   6.505   8.921  0.4086 -0.2801  0.0472
   49loPI   C4B  784  17.522   6.493   8.559 -0.2113  0.0707  0.1662
   50loPI    C1  785   9.705   1.064  11.025  0.0767  0.1518  0.0069
   50loPI    C2  786   9.854   0.706  10.928  0.4040  0.3155 -0.1084
   50loPI    C3  787   9.913   0.854  11.294 -0.1317  0.0540  0.0938
   50loPI   PO4  788   9.596   1.173  10.752  0.0720  0.1604 -0.1929
   50loPI   GL1  789   9.543   1.080  10.248  0.1522 -0.0814 -0.0299
   50loPI   GL2  790   9.378   0.872  10.188  0.0072 -0.0146 -0.1118
   50loPI   C1A  791   9.540   1.064   9.804  0.0761 -0.0633 -0.1606
   50loPI   C2A  792   9.425   1.087   9.413 -0.0161 -0.0136  0.1320
   50loPI   C3A  793   9.478   1.115   9.004  0.0243  0.1179  0.1286
   50loPI   C4A  794   9.479   1.158   8.604 -0.2370 -0.1265  0.3437
   50loPI   C5A  795   9.071   1.238   8.369  0.0863 -0.3526  0.1544
   50loPI   C6A  796   8.819   1.045   8.031  0.0437 -0.1922  0.0662
   50loPI   C1B  797   8.980   1.049  10.058  0.0187 -0.0384  0.2608
   50loPI   C2B  798   8.875   1.048   9.617 -0.1879  0.3214  0.0908
   50loPI   C3B  799   8.889   0.961   9.241 -0.5527 -0.1009 -0.0767
   50loPI   C4B  800   8.981   0.987   8.780  0.0065 -0.0043  0.0568
   51loPI    C1  801  17.981  11.573  10.745 -0.0793  0.1403  0.0206
   51loPI    C2  802  18.082  11.833  11.032  0.0445  0.0211  0.0866
   51loPI    C3  803  17.901  11.490  11.128  0.1067 -0.0296  0.0244
   51loPI   PO4  804  18.180  11.473  10.623  0.0735 -0.1317  0.0561
   51loPI   GL1  805  18.318  11.449  10.184 -0.1380 -0.1391 -0.1085
   51loPI   GL2  806  18.070  11.636  10.148 -0.1362  0.0845 -0.1793
   51loPI   C1A  807  18.559  11.158   9.950 -0.1484 -0.0696 -0.1456
   51loPI   C2A  808  18.749  10.879   9.655  0.0133  0.1753 -0.0992
   51loPI   C3A  809  19.051  10.703   9.416 -0.1812  0.1083 -0.0452
   51loPI   C4A  810  19.104  10.724   9.057 -0.1216 -0.3626 -0.0275
   51loPI   C5A  811  19.107  10.770   8.606  0.1016  0.3127 -0.3663
   51loPI   C6A  812  19.110  10.744   8.268  0.0064 -0.0872 -0.2849
   51loPI   C1B  813  18.247  11.578   9.720  0.0832 -0.3769 -0.0428
   51loPI   C2B  814  18.282  11.582   9.335 -0.1049 -0.2528  0.1665
   51loPI   C3B  815  18.577  11.664   9.141 -0.0596 -0.0993 -0.0906
   51loPI   C4B  816  18.971  11.670   9.178  0.1108  0.0227 -0.2192
   52loPI    C1  817   5.485  11.995  11.159  0.0321 -0.1886 -0.0565
   52loPI    C2  818   5.713  12.242  11.377 -0.0484 -0.1440 -0.0223
   52loPI    C3  819   5.420  12.032  11.552 -0.1135 -0.1076 -0.0874
   52loPI   PO4  820   5.518  12.115  10.868  0.1836  0.1324  0.0155
   52loPI   GL1  821   5.480  12.014  10.414  0.2047  0.1614  0.1146
   52loPI   GL2  822   5.642  11.734  10.363  0.0053 -0.2095  0.1916
   52loPI   C1A  823   5.379  12.296  10.055  0.0283 -0.0195  0.2647
   52loPI   C2A  824   5.366  12.353   9.521 -0.2072  0.0715  0.0439
   52loPI   C3A  825   5.382  12.423   9.083 -0.0774  0.2258  0.1896
   52loPI   C4A  826   5.409  12.380   8.596 -0.1174  0.1270 -0.0514
   52loPI   C5A  827   5.449  12.329   8.139 -0.0429  0.1220 -0.0121
   52loPI   C6A  828   5.471  12.536   7.775  0.0451 -0.1695  0.2913
   52loPI   C1B  829   5.646  11.882   9.913  0.0223  0.1938 -0.0727
   52loPI   C2B  830   5.729  11.998   9.505  0.3774 -0.0973 -0.0078
   52loPI   C3B  831   5.701  12.006   8.992  0.0206  0.1421  0.0147
   52loPI   C4B  832   5.703  11.970   8.492 -0.3040  0.0096 -0.1819
   53loPI    C1  833  17.990   2.193  10.708 -0.3839  0.0976 -0.1507
   53loPI    C2  834  18.006   2.564  10.561 -0.0498  0.1471  0.0028
   53loPI    C3  835  18.027   2.504  10.956  0.2771 -0.0539 -0.0418
   53loPI   PO4  836  18.110   2.096  10.461 -0.0634 -0.0284  0.0000
   53loPI   GL1  837  18.030   2.111  10.087 -0.3952 -0.0337 -0.1873
   53loPI   GL2  838  17.890   1.966   9.831 -0.2361 -0.0296 -0.1491
   53loPI   C1A  839  18.347   2.215   9.852 -0.1043 -0.1968 -0.0996
   53loPI   C2A  840  18.608   1.946   9.635  0.1971  0.1656  0.2394
   53loPI   C3A  841  18.744   1.767   9.235 -0.0545 -0.1356 -0.1546
   53loPI   C4A  842  18.887   1.544   8.923 -0.0992 -0.0089  0.1449
   53loPI   C5A  843  19.087   1.190   8.775 -0.1326  0.1093 -0.0581
   53loPI   C6A  844  19.045   0.968   8.367  0.1672 -0.0444  0.1496
   53loPI   C1B  845  18.114   2.119   9.418  0.0399  0.0346 -0.3690
   53loPI   C2B  846  18.262   2.194   9.030  0.0945 -0.0728 -0.2470
   53loPI   C3B  847  18.395   1.899   8.823  0.2901 -0.0845  0.0146
   53loPI   C4B  848  18.640   1.797   8.494  0.0178 -0.1376 -0.0635
   54loPI    C1  849  12.259   7.052  10.731  0.0860 -0.1954  0.2286
   54loPI    C2  850  12.439   7.034  11.087  0.0422  0.0368  0.2640
   54loPI    C3  851  12.041   7.062  11.066  0.0500  0.1030  0.1991
   54loPI   PO4  852  12.375   7.248  10.619 -0.3445 -0.0083  0.0720
   54loPI   GL1  853  12.580   7.389  10.314 -0.0417 -0.2695 -0.1924
   54loPI   GL2  854  12.604   7.717  10.333  0.2301  0.0885 -0.4864
   54loPI   C1A  855  12.397   7.315   9.908 -0.3253 -0.1753  0.2101
   54loPI   C2A  856  12.289   7.276   9.518  0.2297 -0.0824  0.1662
   54loPI   C3A  857  12.236   7.230   9.094  0.2097  0.0004  0.0951
   54loPI   C4A  858  12.173   7.265   8.657  0.2686 -0.0208 -0.1808
   54loPI   C5A  859  12.122   7.397   8.213 -0.1132  0.2371 -0.5285
   54loPI   C6A  860  11.804   7.689   7.954  0.1374  0.2758 -0.2180
   54loPI   C1B  861  12.617   7.755   9.854  0.0528  0.0213 -0.2239
   54loPI   C2B  862  12.462   7.761   9.411  0.1262  0.0473 -0.0038
   54loPI   C3B  863  12.528   7.793   8.966  0.1362  0.2046  0.0735
   54loPI   C4B  864  12.379   7.728   8.502 -0.0210  0.1786  0.1229
   55loPI    C1  865  11.557   5.478  10.717  0.1761 -0.0763  0.2962
   55loPI    C2  866  11.365   5.624  11.036 -0.1984 -0.1183  0.0964
   55loPI    C3  867  11.539   5.264  11.055 -0.1482 -0.0855  0.2765
   55loPI   PO4  868  11.434   5.479  10.535  0.1734  0.0035  0.2689
   55loPI   GL1  869  11.363   5.608  10.140 -0.0644  0.1246  0.0079
   55loPI   GL2  870  11.121   5.639  10.167 -0.1011  0.1599 -0.1495
   55loPI   C1A  871  11.473   5.438   9.806 -0.1050 -0.1455  0.0207
   55loPI   C2A  872  11.525   5.355   9.341 -0.2342 -0.2295 -0.0658
   55loPI   C3A  873  11.461   5.423   8.946 -0.2915  0.0818  0.0026
   55loPI   C4A  874  11.509   5.461   8.548  0.3122 -0.1541  0.0850
   55loPI   C5A  875  11.841   5.473   8.203 -0.3602 -0.0751 -0.0823
   55loPI   C6A  876  12.189   5.663   7.956 -0.1558 -0.1171 -0.1561
   55loPI   C1B  877  11.156   5.832   9.767  0.1726 -0.0061 -0.0121
   55loPI   C2B  878  11.153   5.820   9.330 -0.1323 -0.3174  0.1570
   55loPI   C3B  879  11.099   5.817   8.921  0.1008 -0.1667  0.5625
   55loPI   C4B  880  11.060   5.857   8.475  0.2837 -0.1104 -0.1665
   56loPI    C1  881   5.224   5.129  11.338 -0.3629 -0.0576  0.1280
   56loPI    C2  882   5.095   5.371  11.630 -0.0969  0.2520 -0.0041
   56loPI    C3  883   5.363   5.085  11.711 -0.1960  0.1869  0.0975
   56loPI   PO4  884   5.157   5.256  11.137  0.1352  0.0407 -0.2371
   56loPI   GL1  885   4.917   5.169  10.722 -0.1059 -0.2286  0.1142
   56loPI   GL2  886   4.878   5.554  10.807 -0.0519  0.2935  0.1261
   56loPI   C1A  887   4.869   5.155  10.346 -0.2322  0.3544 -0.1230
   56loPI   C2A  888   4.790   5.183   9.884  0.1440 -0.2080 -0.0940
   56loPI   C3A  889   4.956   5.060   9.452 -0.0447 -0.3004  0.1254
   56loPI   C4A  890   4.943   5.105   9.054 -0.0360  0.0440 -0.2707
   56loPI   C5A  891   5.019   5.204   8.603 -0.0130  0.0617  0.0409
   56loPI   C6A  892   5.440   5.302   8.292  0.0044  0.0039 -0.1953
   56loPI   C1B  893   5.033   5.650  10.377  0.0071  0.1018  0.3252
   56loPI   C2B  894   5.125   5.705   9.949  0.0611  0.0318 -0.2365
   56loPI   C3B  895   5.181   5.525   9.611 -0.1492  0.2779  0.0556
   56loPI   C4B  896   5.224   5.673   9.158 -0.0480 -0.0969 -0.0938
   57loPI    C1  897   1.695   2.890  10.948  0.1638 -0.4787 -0.0817
   57loPI    C2  898   1.778   2.668  11.271  0.0002 -0.1132  0.2197
   57loPI    C3  899   1.857   3.060  11.272  0.0146 -0.1103 -0.1958
   57loPI   PO4  900   1.490   2.885  10.879  0.0601 -0.1106 -0.2835
   57loPI   GL1  901   1.435   2.903  10.479  0.0905 -0.2592  0.6579
   57loPI   GL2  902   1.708   2.650  10.447 -0.1328 -0.4459  0.0376
   57loPI   C1A  903   1.448   2.994  10.024  0.1969  0.2320 -0.2598
   57loPI   C2A  904   1.297   3.025   9.599  0.0892 -0.1842 -0.0064
   57loPI   C3A  905   1.120   2.996   9.129 -0.1348 -0.0311  0.2797
   57loPI   C4A  906   1.031   2.927   8.690 -0.2619  0.3105  0.2423
   57loPI   C5A  907   0.781   2.745   8.323  0.2564  0.0233 -0.2005
   57loPI   C6A  908   0.921   2.949   7.893  0.0749  0.0930 -0.0341
   57loPI   C1B  909   1.913   2.722  10.103 -0.1001 -0.1411  0.2110
   57loPI   C2B  910   2.138   2.666   9.637  0.0896 -0.0377  0.0673
   57loPI   C3B  911   2.293   2.698   9.240  0.4138  0.1594 -0.1036
   57loPI   C4B  912   2.428   2.748   8.812  0.0439 -0.2851 -0.0516
   58loPI    C1  913   2.384  14.537  10.414 -0.2521  0.0363  0.0534
   58loPI    C2  914   2.593  14.259  10.216 -0.3938 -0.0539  0.0288
   58loPI    C3  915   2.468  14.187  10.589  0.1406  0.2354  0.2747
   58loPI   PO4  916   2.145  14.505  10.237  0.2750  0.1149  0.0074
   58loPI   GL1  917   2.102  14.394   9.900 -0.1413  0.0123 -0.0138
   58loPI   GL2  918   1.944  14.620   9.799 -0.0982  0.1124  0.0037
   58loPI   C1A  919   2.449  14.134   9.777 -0.3127 -0.0227 -0.1813
   58loPI   C2A  920   2.688  14.029   9.390 -0.0956  0.1651  0.0869
   58loPI   C3A  921   2.721  13.998   9.032 -0.0095 -0.0596  0.0672
   58loPI   C4A  922   2.626  13.944   8.592 -0.0020  0.0714  0.1444
   58loPI   C5A  923   2.592  13.648   8.189  0.2899  0.1844 -0.1975
   58loPI   C6A  924   2.492  13.300   7.870  0.0643 -0.0140  0.0809
   58loPI   C1B  925   1.911  14.654   9.324  0.0488  0.1705 -0.2499
   58loPI   C2B  926   1.751  14.833   9.050 -0.3472  0.0741  0.0956
   58loPI   C3B  927   1.653  15.018   8.611 -0.1869 -0.3385 -0.0177
   58loPI   C4B  928   1.528  15.120   8.168 -0.0400 -0.1464 -0.0020
   59loPI    C1  929  14.560   9.347  10.933  0.1501  0.2266  0.1701
   59loPI    C2  930  14.214   9.300  11.128  0.0902  0.1687  0.0509
   59loPI    C3  931  14.513   9.504  11.297  0.0714  0.0408  0.2411
   59loPI   PO4  932  14.488   9.206  10.743  0.1159 -0.2074  0.1976
   59loPI   GL1  933  14.243   9.218  10.312 -0.1573  0.1052 -0.2678
   59loPI   GL2  934  14.102   9.491  10.562 -0.0979  0.0872 -0.0014
   59loPI   C1A  935  14.083   9.256   9.903  0.0341 -0.0769  0.0421
   59loPI   C2A  936  14.141   9.290   9.410 -0.1644  0.2014 -0.0118
   59loPI   C3A  937  14.003   9.324   9.004  0.1214  0.2096  0.3038
   59loPI   C4A  938  14.080   9.405   8.651 -0.1922 -0.0064 -0.1670
   59loPI   C5A  939  14.305   9.302   8.234  0.2194 -0.1617  0.1129
   59loPI   C6A  940  14.517   9.254   7.822 -0.2378  0.1781 -0.1241
   59loPI   C1B  941  13.839   9.728  10.267 -0.2789  0.0001  0.3290
   59loPI   C2B  942  13.717   9.685   9.815 -0.2778 -0.1339  0.2250
   59loPI   C3B  943  13.733   9.722   9.363 -0.2098  0.1368 -0.0525
   59loPI   C4B  944  13.746   9.759   8.905  0.1248  0.0612 -0.0655
   60loPI    C1  945   3.471  11.604  10.811  0.1790  0.1291 -0.0946
   60loPI    C2  946   3.608  11.309  11.045 -0.0106  0.1899  0.0962
   60loPI    C3  947   3.516  11.664  11.204  0.1290  0.3246 -0.1179
   60loPI   PO4  948   3.296  11.507  10.713 -0.4271 -0.0873  0.0639
   60loPI   GL1  949   3.338  11.257  10.386  0.3138  0.1582  0.0104
   60loPI   GL2  950   3.605  11.359  10.203  0.1063  0.1863  0.0246
   60loPI   C1A  951   3.134  11.305   9.966  0.0780  0.0842  0.0374
   60loPI   C2A  952   3.253  11.311   9.564 -0.2086  0.0556  0.2023
   60loPI   C3A  953   3.380  11.232   9.154  0.1205  0.2191 -0.2712
   60loPI   C4A  954   3.315  11.308   8.648 -0.0763  0.1206  0.0118
   60loPI   C5A  955   3.180  11.607   8.361 -0.2643  0.1329  0.0564
   60loPI   C6A  956   2.867  11.989   8.301  0.2166  0.0473  0.0352
   60loPI   C1B  957   3.782  11.398   9.768 -0.3232  0.0752 -0.4671
   60loPI   C2B  958   3.886  11.281   9.315 -0.0939  0.1058  0.1486
   60loPI   C3B  959   3.894  11.288   8.852 -0.0094 -0.0547 -0.1671
   60loPI   C4B  960   3.968  11.317   8.328 -0.3806  0.0186 -0.3358
   61loPI    C1  961  14.808  11.420  10.772  0.0249 -0.1577  0.1991
   61loPI    C2  962  15.055  11.157  10.600  0.0389  0.0120 -0.0453
   61loPI    C3  963  15.092  11.240  10.989  0.1879 -0.1685 -0.0194
   61loPI   PO4  964  14.537  11.442  10.627 -0.2765 -0.2515  0.0023
   61loPI   GL1  965  14.330  11.633  10.386  0.0813  0.2808  0.2344
   61loPI   GL2  966  14.283  11.910  10.346 -0.1194  0.0009 -0.0626
   61loPI   C1A  967  14.231  11.506   9.951  0.1341  0.0140  0.1939
   61loPI   C2A  968  14.207  11.526   9.449 -0.0488  0.0504  0.0451
   61loPI   C3A  969  14.028  11.633   9.086 -0.1441  0.2202 -0.0934
   61loPI   C4A  970  14.012  11.492   8.698 -0.0896 -0.1601 -0.2281
   61loPI   C5A  971  14.006  11.138   8.299  0.0183 -0.0149  0.0320
   61loPI   C6A  972  13.626  10.883   8.152 -0.2266  0.0005 -0.0912
   61loPI   C1B  973  14.316  11.998   9.837  0.2881 -0.1392  0.1174
   61loPI   C2B  974  14.228  12.009   9.414  0.2090 -0.1379  0.1647
   61loPI   C3B  975  14.192  12.086   8.930 -0.2210  0.0399 -0.0116
   61loPI   C4B  976  14.089  12.032   8.462  0.3412 -0.2476  0.1873
   62loPI    C1  977   1.455  16.836  10.514 -0.1675  0.5137 -0.0446
   62loPI    C2  978   1.152  17.073  10.623 -0.1396  0.3837  0.3333
   62loPI    C3  979   1.395  16.919  10.901 -0.0376  0.0712  0.0774
   62loPI   PO4  980   1.267  16.852  10.194  0.0881 -0.2537 -0.0160
   62loPI   GL1  981   1.262  16.775   9.846 -0.1413  0.2533 -0.1183
   62loPI   GL2  982   1.588  16.780   9.724 -0.0756  0.1455 -0.1176
   62loPI   C1A  983   1.376  16.500   9.417  0.2333 -0.1274  0.1020
   62loPI   C2A  984   1.345  16.261   9.044  0.1221 -0.0821  0.3411
   62loPI   C3A  985   1.470  15.850   8.960 -0.0855 -0.1982 -0.1711
   62loPI   C4A  986   1.581  15.679   8.498  0.0001 -0.1687  0.0542
   62loPI   C5A  987   1.584  15.592   8.016 -0.0236 -0.0561  0.1290
   62loPI   C6A  988   1.558  15.592   7.505  0.1430  0.1104  0.0368
   62loPI   C1B  989   1.553  16.992   9.378  0.0719  0.2200 -0.3941
   62loPI   C2B  990   1.598  16.972   8.916  0.0511  0.2708 -0.1006
   62loPI   C3B  991   1.364  16.668   8.713 -0.0354  0.0052  0.2279
   62loPI   C4B  992   1.140  16.254   8.605  0.1796 -0.0525 -0.0111
   63loPI    C1  993  10.317  15.348  10.878 -0.0604  0.0540 -0.0916
   63loPI    C2  994  10.612  15.420  11.138 -0.1624  0.2029 -0.0157
   63loPI    C3  995  10.543  15.046  11.013  0.0911  0.1740 -0.0746
   63loPI   PO4  996  10.300  15.540  10.732 -0.1829 -0.1539 -0.1120
   63loPI   GL1  997  10.500  15.495  10.351  0.1002  0.1818 -0.0470
   63loPI   GL2  998  10.263  15.309  10.254  0.0183 -0.1029 -0.1322
   63loPI   C1A  999  10.359  15.592   9.893 -0.0242 -0.3425 -0.2941
   63loPI   C2A 1000  10.423  15.612   9.396  0.1308 -0.2076 -0.2236
   63loPI   C3A 1001  10.338  15.610   9.016  0.3398  0.1851  0.2548
   63loPI   C4A 1002  10.209  15.659   8.608  0.2020  0.0300  0.0000
   63loPI   C5A 1003  10.042  15.742   8.204  0.0339  0.3608 -0.0813
   63loPI   C6A 1004   9.740  15.802   7.855 -0.2430  0.2422  0.0316
   63loPI   C1B 1005  10.141  15.121   9.738  0.0714  0.0226  0.1794
   63loPI   C2B 1006  10.192  15.022   9.300  0.0855  0.2060 -0.0230
   63loPI   C3B 1007  10.142  15.126   8.821 -0.4702  0.0511 -0.3371
   63loPI   C4B 1008  10.082  15.223   8.383 -0.1803  0.1020 -0.0127
   64loPI    C1 1009   3.690  10.801  10.969 -0.0254  0.0164  0.1042
   64loPI    C2 1010   3.770  10.541  11.262 -0.0305 -0.0068  0.0850
   64loPI    C3 1011   3.807  10.934  11.328 -0.0288 -0.0121  0.1160
   64loPI   PO4 1012   3.710  10.651  10.690  0.3873 -0.3672 -0.1544
   64loPI   GL1 1013   3.565  10.790  10.325 -0.3260 -0.0470 -0.0066
   64loPI   GL2 1014   3.382  10.533  10.262 -0.0085 -0.1669  0.2788
   64loPI   C1A 1015   3.496  10.908   9.903  0.0394  0.1833  0.1920
   64loPI   C2A 1016   3.685  10.876   9.532  0.0725  0.4755 -0.0871
   64loPI   C3A 1017   3.718  10.839   9.050 -0.3570 -0.0291  0.2526
   64loPI   C4A 1018   3.840  10.877   8.469 -0.2504  0.0177 -0.2877
   64loPI   C5A 1019   3.705  10.721   8.138  0.0375 -0.0578 -0.1071
   64loPI   C6A 1020   3.338  10.795   7.920  0.2506  0.1171 -0.1476
   64loPI   C1B 1021   3.288  10.463   9.838 -0.2990  0.1115  0.0818
   64loPI   C2B 1022   3.400  10.466   9.418 -0.1051 -0.1010  0.0524
   64loPI   C3B 1023   3.427  10.383   9.007 -0.0872  0.1568  0.0690
   64loPI   C4B 1024   3.513  10.555   8.623  0.0911 -0.0379 -0.1664
   65loPI    C1 1025  11.158   5.042  10.648  0.0331  0.0190  0.0050
   65loPI    C2 1026  10.938   5.358  10.539 -0.0061  0.0178  0.0803
   65loPI    C3 1027  11.022   5.296  10.925 -0.1626 -0.1711  0.0855
   65loPI   PO4 1028  11.069   4.862  10.547  0.2566  0.2028  0.2146
   65loPI   GL1 1029  11.110   4.613  10.240  0.0344 -0.0127  0.1708
   65loPI   GL2 1030  10.850   4.742  10.108  0.0437 -0.0021 -0.1579
   65loPI   C1A 1031  11.092   4.324   9.857  0.0536 -0.0652 -0.1228
   65loPI   C2A 1032  11.149   4.308   9.463  0.4085  0.1311  0.1114
   65loPI   C3A 1033  11.097   4.374   9.144 -0.0600  0.1428  0.0183
   65loPI   C4A 1034  11.091   4.475   8.783 -0.1249 -0.3087  0.2598
   65loPI   C5A 1035  11.039   4.344   8.429  0.0099  0.0227 -0.0751
   65loPI   C6A 1036  11.186   4.224   8.010 -0.0579  0.0783 -0.1163
   65loPI   C1B 1037  10.734   4.886   9.740 -0.0467 -0.1339 -0.1654
   65loPI   C2B 1038  10.777   4.933   9.243  0.0495  0.2875  0.1761
   65loPI   C3B 1039  10.774   4.837   8.836  0.0645 -0.2008  0.3073
   65loPI   C4B 1040  10.907   4.864   8.496 -0.1007  0.1933 -0.0360
   66loPI    C1 1041   7.327  17.589  11.094 -0.1872 -0.2391  0.0199
   66loPI    C2 1042   7.476  17.870  11.337  0.0530 -0.0704 -0.3138
   66loPI    C3 1043   7.616  17.495  11.354  0.1486 -0.0327 -0.2697
   66loPI   PO4 1044   7.327  17.696  10.871  0.1717  0.1742  0.2158
   66loPI   GL1 1045   7.479  17.542  10.555  0.0931  0.1423  0.1788
   66loPI   GL2 1046   7.330  17.255  10.417 -0.2729 -0.1978 -0.5086
   66loPI   C1A 1047   7.688  17.603  10.161 -0.0366 -0.2804 -0.0214
   66loPI   C2A 1048   7.758  17.480   9.773  0.1006  0.0645  0.1457
   66loPI   C3A 1049   7.814  17.592   9.459  0.1221  0.0060  0.1313
   66loPI   C4A 1050   7.827  17.657   8.976  0.1349 -0.0805  0.1025
   66loPI   C5A 1051   7.845  17.694   8.571 -0.0490  0.1635 -0.0333
   66loPI   C6A 1052   7.530  17.656   8.247  0.1001 -0.0393  0.3274
   66loPI   C1B 1053   7.256  17.354   9.933  0.0095  0.0335  0.3121
   66loPI   C2B 1054   7.245  17.482   9.530 -0.0920 -0.0792  0.0338
   66loPI   C3B 1055   7.233  17.512   9.147  0.2862  0.3690  0.0060
   66loPI   C4B 1056   7.269  17.579   8.724 -0.0580  0.0367  0.0181
   67loPI    C1 1057  11.013   6.288  10.941 -0.1959  0.2551  0.0492
   67loPI    C2 1058  11.278   6.511  11.141 -0.0703  0.0826  0.0768
   67loPI    C3 1059  11.304   6.112  11.151 -0.1446  0.0700 -0.1734
   67loPI   PO4 1060  10.985   6.389  10.744 -0.0038 -0.0218  0.4512
   67loPI   GL1 1061  11.209   6.327  10.315 -0.1294  0.0292 -0.2548
   67loPI   GL2 1062  11.311   6.080  10.151 -0.0887  0.1053 -0.2266
   67loPI   C1A 1063  11.108   6.596  10.070 -0.1179 -0.1166  0.4046
   67loPI   C2A 1064  11.069   6.726   9.572 -0.2754  0.2675  0.1858
   67loPI   C3A 1065  11.052   6.692   9.077 -0.0462 -0.0587  0.2851
   67loPI   C4A 1066  11.008   6.692   8.600  0.1308 -0.1110 -0.2498
   67loPI   C5A 1067  10.900   6.869   8.204 -0.0490  0.4311  0.1757
   67loPI   C6A 1068  10.801   6.754   7.761  0.0534 -0.0050  0.0520
   67loPI   C1B 1069  11.370   6.276   9.717 -0.1417  0.0179 -0.1897
   67loPI   C2B 1070  11.388   6.281   9.372 -0.0191  0.1806 -0.0247
   67loPI   C3B 1071  11.327   6.268   9.013  0.1651 -0.2642 -0.0432
   67loPI   C4B 1072  11.320   6.353   8.545  0.0462 -0.1183  0.1531
   68loPI    C1 1073   0.855   8.599  10.411 -0.0102  0.0717 -0.1011
   68loPI    C2 1074   1.160   8.811  10.560  0.0247  0.0623 -0.1589
   68loPI    C3 1075   0.801   8.827  10.735  0.0523  0.0920 -0.1047
   68loPI   PO4 1076   0.817   8.643  10.187  0.1050  0.3722  0.1927
   68loPI   GL1 1077   1.107   8.729   9.864 -0.2511  0.2927  0.1124
   68loPI   GL2 1078   1.242   8.863  10.040 -0.3456 -0.0738 -0.0554
   68loPI   C1A 1079   1.264   8.929   9.452  0.2558  0.2960  0.0939
   68loPI   C2A 1080   1.344   8.859   8.978 -0.0108  0.3048  0.1854
   68loPI   C3A 1081   1.422   8.861   8.495  0.2779  0.0304 -0.3220
   68loPI   C4A 1082   1.758   8.771   8.249 -0.2469  0.2985  0.2468
   68loPI   C5A 1083   2.174   8.574   8.131 -0.1319  0.0329 -0.1972
   68loPI   C6A 1084   2.393   8.143   8.132 -0.0617 -0.0786  0.0761
   68loPI   C1B 1085   1.272   9.260   9.825 -0.1936  0.0975  0.1731
   68loPI   C2B 1086   1.347   9.425   9.393 -0.2480  0.1730  0.0963
   68loPI   C3B 1087   1.457   9.310   9.044  0.2950 -0.0778  0.2755
   68loPI   C4B 1088   1.328   9.328   8.711  0.1875  0.1098  0.0779
   69loPI    C1 1089   9.865   8.684  10.970 -0.0244 -0.0320 -0.0798
   69loPI    C2 1090  10.132   8.925  11.146 -0.0452  0.0621 -0.1763
   69loPI    C3 1091   9.939   8.649  11.362  0.0417  0.0742 -0.0824
   69loPI   PO4 1092   9.950   8.738  10.684 -0.0875 -0.1529 -0.3244
   69loPI   GL1 1093  10.051   8.785  10.326  0.0761 -0.2139  0.0176
   69loPI   GL2 1094  10.266   9.024  10.251 -0.2349 -0.0313 -0.2488
   69loPI   C1A 1095   9.848   8.733   9.932 -0.0622 -0.1630 -0.1010
   69loPI   C2A 1096   9.571   8.760   9.605 -0.0229 -0.1660  0.1941
   69loPI   C3A 1097   9.670   8.754   9.206  0.2668  0.1017 -0.0484
   69loPI   C4A 1098   9.671   8.775   8.788 -0.0632  0.2381  0.1483
   69loPI   C5A 1099   9.620   8.749   8.356 -0.0290 -0.0721 -0.0362
   69loPI   C6A 1100  10.017   8.837   8.022  0.0933  0.0894 -0.3136
   69loPI   C1B 1101  10.343   8.886   9.827 -0.0504 -0.2413 -0.2731
   69loPI   C2B 1102  10.496   8.739   9.475 -0.2310  0.1112 -0.2335
   69loPI   C3B 1103  10.165   8.908   9.212 -0.1220 -0.1593  0.0724
   69loPI   C4B 1104  10.220   8.820   8.736 -0.1846  0.1393 -0.0614
   70loPI    C1 1105   7.874  13.833  10.881 -0.0698 -0.1346 -0.0750
   70loPI    C2 1106   7.820  13.561  11.169  0.0947 -0.2230 -0.1261
   70loPI    C3 1107   7.683  13.934  11.218  0.0122 -0.2707  0.0132
   70loPI   PO4 1108   7.738  13.661  10.648  0.1894  0.2121 -0.3323
   70loPI   GL1 1109   7.783  13.504  10.287 -0.2847 -0.2196 -0.1986
   70loPI   GL2 1110   8.025  13.754  10.285 -0.1727 -0.1752  0.4681
   70loPI   C1A 1111   7.431  13.428  10.015  0.1577  0.2315 -0.0160
   70loPI   C2A 1112   7.318  13.481   9.542 -0.3348 -0.1990  0.2079
   70loPI   C3A 1113   7.436  13.530   9.095 -0.1173  0.1449  0.0011
   70loPI   C4A 1114   7.474  13.387   8.614 -0.1317 -0.0893 -0.0712
   70loPI   C5A 1115   7.258  13.217   8.237 -0.0434 -0.4670 -0.1397
   70loPI   C6A 1116   6.879  12.926   8.271  0.0612 -0.0044 -0.0013
   70loPI   C1B 1117   8.290  13.884   9.989 -0.0064 -0.1413  0.0997
   70loPI   C2B 1118   8.205  13.930   9.563  0.1473 -0.2013  0.0324
   70loPI   C3B 1119   8.149  14.052   9.201  0.1027 -0.0822  0.0111
   70loPI   C4B 1120   8.114  14.046   8.675  0.1406  0.0299 -0.3253
   71loPI    C1 1121   3.087   5.755  11.201  0.4109  0.2039  0.0948
   71loPI    C2 1122   3.272   5.409  11.125 -0.0155 -0.0439  0.1536
   71loPI    C3 1123   3.070   5.457  11.467 -0.1101  0.1981  0.0656
   71loPI   PO4 1124   2.961   5.769  10.973  0.2248 -0.0656 -0.1522
   71loPI   GL1 1125   3.050   5.843  10.577  0.5058  0.0032 -0.0212
   71loPI   GL2 1126   3.015   6.115  10.651 -0.0017  0.0167  0.0554
   71loPI   C1A 1127   3.204   5.848  10.185  0.2154 -0.0957  0.1171
   71loPI   C2A 1128   3.212   5.878   9.736  0.1069 -0.1937 -0.3918
   71loPI   C3A 1129   3.390   5.859   9.297  0.0367 -0.0032  0.0626
   71loPI   C4A 1130   3.382   5.862   8.781 -0.0919 -0.0305 -0.0054
   71loPI   C5A 1131   3.272   5.694   8.434  0.0834  0.1375 -0.1629
   71loPI   C6A 1132   3.370   5.737   8.063  0.3366 -0.1682  0.3022
   71loPI   C1B 1133   2.900   6.245  10.212 -0.0580  0.1180  0.0190
   71loPI   C2B 1134   3.001   6.356   9.836  0.0075 -0.2547  0.0342
   71loPI   C3B 1135   3.027   6.333   9.440  0.1116 -0.0285  0.0224
   71loPI   C4B 1136   3.138   6.308   9.082 -0.4608  0.0546 -0.0114
   72loPI    C1 1137  15.137  10.128  10.821 -0.1647  0.0364  0.1410
   72loPI    C2 1138  15.238   9.890  11.126 -0.2320 -0.0346  0.1084
   72loPI    C3 1139  15.061  10.242  11.197 -0.0629  0.0411  0.1604
   72loPI   PO4 1140  15.055   9.997  10.611 -0.0393  0.0552 -0.0351
   72loPI   GL1 1141  15.044  10.051  10.294  0.1968  0.1075  0.0282
   72loPI   GL2 1142  15.016  10.335  10.228  0.1806  0.1531  0.1195
   72loPI   C1A 1143  14.937   9.949   9.915 -0.0010  0.0779  0.1061
   72loPI   C2A 1144  14.837   9.859   9.451 -0.3855  0.0263  0.0303
   72loPI   C3A 1145  14.828   9.880   9.015 -0.2120 -0.0743 -0.0269
   72loPI   C4A 1146  14.993  10.046   8.620 -0.2771 -0.1112 -0.3041
   72loPI   C5A 1147  14.993  10.374   8.434  0.3451 -0.0020  0.1169
   72loPI   C6A 1148  15.255  10.632   8.038  0.1308  0.0407 -0.1028
   72loPI   C1B 1149  15.152  10.379   9.789 -0.2841  0.0207 -0.0177
   72loPI   C2B 1150  15.556  10.361   9.654 -0.2299 -0.1829  0.1198
   72loPI   C3B 1151  16.016  10.489   9.558  0.1192  0.0282  0.1666
   72loPI   C4B 1152  16.319  10.215   9.407 -0.0961  0.2099  0.0762
   73loPI    C1 1153   4.217  16.233  10.721 -0.1378  0.2228 -0.1917
   73loPI    C2 1154   3.865  16.114  10.573 -0.1327 -0.0528  0.0080
   73loPI    C3 1155   3.904  16.181  10.965 -0.0425  0.2850 -0.0554
   73loPI   PO4 1156   4.460  16.138  10.552 -0.0343  0.1710  0.2472
   73loPI   GL1 1157   4.361  16.235  10.186  0.0301  0.1310  0.0455
   73loPI   GL2 1158   4.201  15.917  10.169  0.0081  0.1142  0.0284
   73loPI   C1A 1159   4.498  16.374   9.780 -0.1641  0.1481  0.1288
   73loPI   C2A 1160   4.710  16.415   9.354 -0.2876  0.1706  0.0501
   73loPI   C3A 1161   4.715  16.439   8.999 -0.1734 -0.1159  0.3009
   73loPI   C4A 1162   4.814  16.453   8.549 -0.0961 -0.2203 -0.0772
   73loPI   C5A 1163   5.168  16.333   8.213  0.3181  0.0863 -0.4028
   73loPI   C6A 1164   5.542  16.263   8.108 -0.0232 -0.1045  0.1636
   73loPI   C1B 1165   4.347  15.918   9.804  0.0820  0.0476  0.0568
   73loPI   C2B 1166   4.545  15.974   9.462 -0.2053  0.2644  0.3090
   73loPI   C3B 1167   4.573  15.932   8.956 -0.0278  0.2242  0.0128
   73loPI   C4B 1168   4.637  15.983   8.516  0.0254 -0.0240 -0.1091
   74loPI    C1 1169   0.066  16.851  10.581  0.0434 -0.0530 -0.1247
   74loPI    C2 1170  -0.012  17.182  10.791 -0.0505 -0.2291  0.1216
   74loPI    C3 1171   0.336  16.991  10.841 -0.0857 -0.2884  0.1416
   74loPI   PO4 1172  -0.038  16.927  10.276  0.0072  0.1178  0.1448
   74loPI   GL1 1173  -0.395  16.955  10.117 -0.1255  0.0096 -0.4296
   74loPI   GL2 1174  -0.177  17.288   9.972 -0.3319 -0.2512  0.0933
   74loPI   C1A 1175  -0.562  17.073   9.691 -0.0548 -0.1785 -0.0367
   74loPI   C2A 1176  -0.799  17.268   9.365 -0.0148 -0.2070  0.0352
   74loPI   C3A 1177  -0.923  17.457   9.064 -0.1485  0.2849  0.1188
   74loPI   C4A 1178  -1.166  17.332   8.680  0.3688 -0.3460  0.0197
   74loPI   C5A 1179  -1.161  17.022   8.332 -0.5441 -0.3552  0.0015
   74loPI   C6A 1180  -1.416  16.618   8.173 -0.1790 -0.3905  0.1094
   74loPI   C1B 1181   0.128  17.346   9.648 -0.1472  0.0983 -0.0383
   74loPI   C2B 1182   0.256  17.369   9.179 -0.0631  0.1243  0.0420
   74loPI   C3B 1183   0.420  17.367   8.702  0.1533 -0.1908 -0.1942
   74loPI   C4B 1184   0.381  17.431   8.255  0.1999  0.2265 -0.0453
   75loPI    C1 1185   7.653   4.243  11.162  0.1778  0.1767 -0.0491
   75loPI    C2 1186   7.820   4.336  11.513  0.0771 -0.0645  0.0650
   75loPI    C3 1187   7.424   4.291  11.486  0.1048 -0.2645 -0.0290
   75loPI   PO4 1188   7.701   4.363  11.004 -0.0908 -0.0339 -0.0856
   75loPI   GL1 1189   8.016   4.266  10.720  0.0954 -0.0414 -0.0942
   75loPI   GL2 1190   8.341   4.067  10.608 -0.1227 -0.1062 -0.0120
   75loPI   C1A 1191   8.052   4.395  10.322  0.2079 -0.0090 -0.0503
   75loPI   C2A 1192   8.082   4.511   9.865 -0.3653 -0.0335 -0.1877
   75loPI   C3A 1193   8.077   4.533   9.356  0.0269 -0.1368  0.1710
   75loPI   C4A 1194   8.163   4.562   8.898  0.0655  0.0255 -0.1701
   75loPI   C5A 1195   8.303   4.297   8.551 -0.3770 -0.0774  0.1475
   75loPI   C6A 1196   8.617   4.102   8.430  0.0951  0.1945 -0.0356
   75loPI   C1B 1197   8.273   3.971  10.195 -0.2079 -0.1691 -0.0561
   75loPI   C2B 1198   8.354   4.058   9.879 -0.0421  0.2016 -0.1537
   75loPI   C3B 1199   8.403   4.163   9.443  0.1817 -0.2975  0.0745
   75loPI   C4B 1200   8.556   4.184   8.976  0.2809 -0.0467  0.3318
   76loPI    C1 1201  10.339  17.880  10.806  0.0486  0.0318 -0.2029
   76loPI    C2 1202  10.098  18.136  10.997 -0.0196 -0.1176 -0.0870
   76loPI    C3 1203  10.494  18.157  11.049 -0.0253 -0.0382 -0.0749
   76loPI   PO4 1204  10.241  17.805  10.585 -0.2314 -0.0536 -0.2330
   76loPI   GL1 1205   9.972  17.676  10.279  0.0676  0.0395  0.1806
   76loPI   GL2 1206   9.767  17.809  10.209 -0.2821  0.1092 -0.1858
   76loPI   C1A 1207  10.114  17.371   9.999 -0.0492 -0.2459  0.0331
   76loPI   C2A 1208  10.129  17.293   9.594 -0.0936  0.1695  0.1346
   76loPI   C3A 1209  10.105  17.337   9.182  0.0393 -0.1879  0.3060
   76loPI   C4A 1210  10.123  17.316   8.832  0.3333 -0.2027 -0.0179
   76loPI   C5A 1211  10.064  17.314   8.340  0.2846  0.1755 -0.1290
   76loPI   C6A 1212  10.114  17.024   8.033  0.2793 -0.1966 -0.0264
   76loPI   C1B 1213   9.885  17.809   9.764 -0.0430  0.0079  0.0776
   76loPI   C2B 1214   9.847  17.779   9.333 -0.3977  0.3894 -0.1279
   76loPI   C3B 1215   9.848  17.769   8.882  0.0260  0.1403 -0.0359
   76loPI   C4B 1216   9.733  17.707   8.416  0.2391 -0.0122 -0.0434
   77loPI    C1 1217   7.626  12.215  10.814  0.0620  0.2059 -0.2261
   77loPI    C2 1218   7.970  12.253  11.015  0.1227 -0.2551 -0.2324
   77loPI    C3 1219   7.644  12.448  11.139  0.3092 -0.0544 -0.0484
   77loPI   PO4 1220   7.655  11.980  10.773  0.1051  0.1143  0.2699
   77loPI   GL1 1221   7.789  11.736  10.473 -0.0216 -0.3310 -0.1435
   77loPI   GL2 1222   8.112  11.701  10.530  0.0098 -0.3962  0.1129
   77loPI   C1A 1223   7.571  11.672  10.058  0.2590  0.0242  0.0047
   77loPI   C2A 1224   7.534  11.677   9.631 -0.1363 -0.1621  0.1487
   77loPI   C3A 1225   7.507  11.744   9.215  0.1176 -0.1388  0.0355
   77loPI   C4A 1226   7.502  11.799   8.775 -0.0264  0.0201 -0.0042
   77loPI   C5A 1227   7.180  11.947   8.440 -0.0385 -0.4915 -0.0258
   77loPI   C6A 1228   7.110  12.124   8.074 -0.0820  0.1244  0.0386
   77loPI   C1B 1229   8.202  11.782  10.086  0.0505  0.1741 -0.0899
   77loPI   C2B 1230   8.100  11.693   9.629 -0.1147 -0.1379  0.0760
   77loPI   C3B 1231   8.010  11.805   9.112  0.0402  0.0198 -0.0830
   77loPI   C4B 1232   8.075  11.937   8.680  0.2047  0.0833 -0.1640
   78loPI    C1 1233   3.680   7.808  11.430 -0.1106 -0.0944 -0.1080
   78loPI    C2 1234   3.567   7.583  11.740 -0.0184  0.1758  0.1262
   78loPI    C3 1235   3.331   7.879  11.612  0.0769  0.2531  0.1281
   78loPI   PO4 1236   3.816   7.537  11.243  0.1859  0.0250 -0.1775
   78loPI   GL1 1237   3.794   7.261  10.806  0.0028 -0.2635 -0.2182
   78loPI   GL2 1238   3.464   7.295  10.711  0.0030  0.3382  0.0010
   78loPI   C1A 1239   3.962   7.292  10.402 -0.0099  0.1477  0.2089
   78loPI   C2A 1240   3.807   7.393  10.035 -0.2464 -0.1949 -0.1982
   78loPI   C3A 1241   3.915   7.266   9.583  0.0910 -0.6021  0.4896
   78loPI   C4A 1242   4.063   7.379   9.187 -0.4788 -0.0692 -0.0039
   78loPI   C5A 1243   4.024   7.145   8.695  0.1138 -0.1828  0.0911
   78loPI   C6A 1244   4.329   6.790   8.530  0.1179 -0.0288 -0.0107
   78loPI   C1B 1245   3.261   7.326  10.297  0.3542 -0.0060 -0.2956
   78loPI   C2B 1246   3.348   7.313   9.869 -0.0849  0.2240  0.4014
   78loPI   C3B 1247   3.404   7.251   9.453  0.1090  0.0450 -0.0700
   78loPI   C4B 1248   3.564   7.313   8.969  0.1291  0.1009 -0.2248
   79loPI    C1 1249  16.853   2.793  10.416 -0.0525  0.1212 -0.0531
   79loPI    C2 1250  17.067   2.841  10.751 -0.1143 -0.0898  0.0179
   79loPI    C3 1251  16.809   2.537  10.719 -0.0640 -0.1077 -0.2451
   79loPI   PO4 1252  17.009   2.769  10.210 -0.0622  0.3343 -0.3815
   79loPI   GL1 1253  17.116   2.741   9.785  0.1713 -0.0167  0.0023
   79loPI   GL2 1254  16.833   2.817   9.755  0.1685  0.0722  0.0159
   79loPI   C1A 1255  17.089   2.920   9.315 -0.0502 -0.0714  0.1083
   79loPI   C2A 1256  16.991   3.242   9.014 -0.0552  0.0993 -0.1664
   79loPI   C3A 1257  17.102   3.635   9.112  0.0403 -0.1704 -0.2378
   79loPI   C4A 1258  17.497   3.738   9.242 -0.1256 -0.0699  0.3635
   79loPI   C5A 1259  17.781   3.978   9.220 -0.0175  0.0021  0.0429
   79loPI   C6A 1260  17.874   4.354   8.934  0.0577  0.0753  0.3476
   79loPI   C1B 1261  16.668   2.649   9.408 -0.1996  0.0338  0.1955
   79loPI   C2B 1262  16.748   2.657   8.981  0.0208 -0.1765  0.0789
   79loPI   C3B 1263  17.166   2.806   8.773  0.2695 -0.0247  0.0848
   79loPI   C4B 1264  17.287   2.965   8.391 -0.3026  0.0821 -0.0290
   80loPI    C1 1265   4.576   7.169  11.188 -0.0572 -0.0519  0.1306
   80loPI    C2 1266   4.279   7.391  11.038 -0.1165 -0.1047  0.1692
   80loPI    C3 1267   4.396   7.442  11.417  0.2325  0.2362  0.0223
   80loPI   PO4 1268   4.517   6.951  11.170 -0.0181  0.0002  0.0899
   80loPI   GL1 1269   4.406   6.660  10.776  0.0451 -0.1187 -0.1268
   80loPI   GL2 1270   4.130   6.876  10.620  0.1722  0.0914 -0.1071
   80loPI   C1A 1271   4.484   6.538  10.377  0.3409  0.0998  0.3370
   80loPI   C2A 1272   4.548   6.489   9.970  0.2871  0.0371  0.4231
   80loPI   C3A 1273   4.669   6.481   9.585  0.2152 -0.2488 -0.0855
   80loPI   C4A 1274   4.593   6.382   9.119 -0.1760 -0.0618 -0.4658
   80loPI   C5A 1275   4.585   6.336   8.665  0.0372 -0.3428 -0.0295
   80loPI   C6A 1276   4.586   6.247   8.199 -0.2096  0.2195  0.1272
   80loPI   C1B 1277   4.123   6.860  10.128 -0.2567  0.1952 -0.1277
   80loPI   C2B 1278   4.203   6.887   9.785  0.1159 -0.2095 -0.0695
   80loPI   C3B 1279   4.313   6.981   9.436 -0.0091 -0.0663  0.0714
   80loPI   C4B 1280   4.420   6.846   9.011 -0.2138  0.4388  0.1683
   81loPI    C1 1281  15.051  15.456  10.723  0.2589 -0.0888 -0.1651
   81loPI    C2 1282  15.358  15.605  10.931  0.2120 -0.1433 -0.0562
   81loPI    C3 1283  15.222  15.237  11.011 -0.1629  0.0444  0.1974
   81loPI   PO4 1284  15.138  15.544  10.448  0.1193 -0.0422  0.1482
   81loPI   GL1 1285  15.452  15.405  10.026 -0.2261  0.0317  0.1687
   81loPI   GL2 1286  15.755  15.554  10.090  0.0717 -0.0189  0.1799
   81loPI   C1A 1287  15.107  15.472   9.833 -0.0419 -0.0556  0.0196
   81loPI   C2A 1288  15.129  15.399   9.378  0.1866 -0.2385  0.4652
   81loPI   C3A 1289  15.169  15.236   8.975  0.4686 -0.0249  0.0947
   81loPI   C4A 1290  15.181  15.164   8.489 -0.1960  0.1113 -0.2633
   81loPI   C5A 1291  15.009  15.209   8.171 -0.1858 -0.0109  0.2098
   81loPI   C6A 1292  14.732  15.057   8.021  0.1310 -0.0075  0.0457
   81loPI   C1B 1293  15.669  15.494   9.608 -0.0444  0.2772 -0.0854
   81loPI   C2B 1294  15.737  15.359   9.164  0.0096 -0.0872 -0.1298
   81loPI   C3B 1295  15.740  15.315   8.770 -0.2207  0.1933  0.1831
   81loPI   C4B 1296  15.734  15.333   8.273 -0.1582 -0.0501 -0.4502
   82loPI    C1 1297  17.137   0.280  10.658 -0.3333  0.1721 -0.0863
   82loPI    C2 1298  16.761   0.164  10.582 -0.0881 -0.4921 -0.3666
   82loPI    C3 1299  16.977  -0.026  10.860 -0.0555  0.1028  0.0333
   82loPI   PO4 1300  17.178   0.451  10.432  0.1847 -0.3721 -0.2100
   82loPI   GL1 1301  17.212   0.440  10.053  0.4118 -0.0245  0.2335
   82loPI   GL2 1302  17.369   0.532   9.925  0.2530  0.3276  0.1745
   82loPI   C1A 1303  17.229   0.041   9.896 -0.0510  0.2559 -0.0436
   82loPI   C2A 1304  17.253  -0.180   9.480 -0.1448  0.0971  0.0162
   82loPI   C3A 1305  17.468  -0.238   9.053  0.1274 -0.0204 -0.0043
   82loPI   C4A 1306  17.401  -0.064   8.689 -0.3021 -0.0765 -0.0370
   82loPI   C5A 1307  17.382   0.389   8.505 -0.1510 -0.0498  0.2290
   82loPI   C6A 1308  17.829   0.641   8.394  0.2596 -0.1458 -0.0337
   82loPI   C1B 1309  17.113   0.416   9.598  0.1432  0.1272 -0.1568
   82loPI   C2B 1310  16.814   0.252   9.396  0.2139  0.0600 -0.1182
   82loPI   C3B 1311  16.896  -0.020   9.034 -0.0187 -0.2306 -0.1881
   82loPI   C4B 1312  16.937   0.117   8.606 -0.3095  0.0464 -0.2035
   83loPI    C1 1313  16.030   8.616  10.695 -0.1756 -0.1745  0.1281
   83loPI    C2 1314  16.162   8.871  10.973  0.0545 -0.0730 -0.0708
   83loPI    C3 1315  16.345   8.519  10.922 -0.0639 -0.1438 -0.0122
   83loPI   PO4 1316  16.054   8.718  10.475 -0.2399  0.0719  0.1816
   83loPI   GL1 1317  16.072   8.992  10.037  0.0474 -0.1536 -0.1193
   83loPI   GL2 1318  16.322   8.622  10.005  0.1950  0.0291 -0.1824
   83loPI   C1A 1319  15.704   8.905   9.745  0.0791 -0.0819 -0.1478
   83loPI   C2A 1320  15.544   8.966   9.379  0.0939  0.1450  0.2340
   83loPI   C3A 1321  15.508   9.192   8.904  0.1697 -0.0164 -0.1830
   83loPI   C4A 1322  15.443   9.259   8.470  0.0410  0.1134  0.2068
   83loPI   C5A 1323  15.494   9.114   8.076  0.3776 -0.1891  0.0068
   83loPI   C6A 1324  15.746   8.727   8.002 -0.1882 -0.0897  0.0665
   83loPI   C1B 1325  16.086   8.665   9.572  0.4453 -0.1537  0.0132
   83loPI   C2B 1326  15.815   8.547   9.289 -0.2098 -0.1591  0.2834
   83loPI   C3B 1327  15.678   8.738   8.870  0.1409 -0.1357  0.0796
   83loPI   C4B 1328  15.864   9.033   8.542  0.0016 -0.3585  0.0118
   84loPI    C1 1329  12.655   9.732  11.142  0.1235 -0.1582  0.0200
   84loPI    C2 1330  12.343   9.521  11.278 -0.0252  0.0310 -0.0237
   84loPI    C3 1331  12.678   9.546  11.496 -0.0418 -0.1682  0.0261
   84loPI   PO4 1332  12.559   9.729  10.866 -0.1236  0.1037  0.2333
   84loPI   GL1 1333  12.529   9.573  10.366  0.2361 -0.2307 -0.0836
   84loPI   GL2 1334  12.801   9.444  10.198 -0.3825 -0.0812 -0.0366
   84loPI   C1A 1335  12.267   9.498  10.007 -0.3850 -0.2535 -0.0917
   84loPI   C2A 1336  12.207   9.491   9.564 -0.0174  0.0291  0.0466
   84loPI   C3A 1337  12.101   9.602   9.138  0.1733 -0.1704  0.1184
   84loPI   C4A 1338  11.987   9.570   8.814  0.0450 -0.0535  0.0690
   84loPI   C5A 1339  12.135   9.480   8.440  0.0004 -0.3183 -0.1000
   84loPI   C6A 1340  12.361   9.581   8.049 -0.1059 -0.0287  0.0730
   84loPI   C1B 1341  12.682   9.552   9.741 -0.1699  0.1163  0.2186
   84loPI   C2B 1342  12.719   9.591   9.266  0.1797 -0.0255  0.0108
   84loPI   C3B 1343  12.675   9.607   8.861 -0.1101  0.3561  0.0059
   84loPI   C4B 1344  12.697   9.582   8.399  0.2740  0.3410 -0.0724
   85loPI    C1 1345  17.807  15.352  10.849  0.1328  0.3326  0.0265
   85loPI    C2 1346  17.947  15.676  10.660  0.3362  0.3016  0.1212
   85loPI    C3 1347  18.186  15.468  10.905  0.1279  0.2363  0.2720
   85loPI   PO4 1348  17.602  15.266  10.657 -0.2223  0.2689  0.0445
   85loPI   GL1 1349  17.596  15.202  10.221 -0.1400 -0.0202 -0.2286
   85loPI   GL2 1350  17.324  15.365  10.089 -0.0786 -0.0054  0.3059
   85loPI   C1A 1351  17.776  15.207   9.886 -0.1827  0.2120  0.0525
   85loPI   C2A 1352  17.825  15.153   9.428 -0.1591  0.2436 -0.1428
   85loPI   C3A 1353  17.856  15.106   9.023  0.1151 -0.3193  0.2846
   85loPI   C4A 1354  17.867  15.276   8.551  0.0471  0.0296 -0.1364
   85loPI   C5A 1355  17.693  15.586   8.272  0.3573  0.2023  0.3015
   85loPI   C6A 1356  17.772  15.749   7.918  0.2418 -0.1507 -0.2850
   85loPI   C1B 1357  17.371  15.339   9.640  0.0045  0.3262  0.3898
   85loPI   C2B 1358  17.412  15.368   9.224 -0.1782 -0.2343  0.2134
   85loPI   C3B 1359  17.428  15.370   8.774  0.0930 -0.0075  0.0504
   85loPI   C4B 1360  17.202  15.555   8.507 -0.2691  0.1998  0.0504
   86loPI    C1 1361   9.537  13.695  10.743 -0.0620 -0.2355  0.1315
   86loPI    C2 1362   9.578  13.777  11.133  0.2920  0.0941  0.0311
   86loPI    C3 1363   9.894  13.655  10.920  0.0001 -0.5483 -0.0570
   86loPI   PO4 1364   9.374  13.586  10.687 -0.4481  0.0856 -0.1837
   86loPI   GL1 1365   9.274  13.380  10.370  0.0143  0.0337  0.0074
   86loPI   GL2 1366   9.504  13.220  10.396  0.1861 -0.0006  0.0847
   86loPI   C1A 1367   9.104  13.361  10.010  0.4938  0.4725  0.2119
   86loPI   C2A 1368   8.966  13.242   9.597  0.0126 -0.0172  0.4597
   86loPI   C3A 1369   8.680  13.201   9.262  0.0983 -0.0801 -0.0347
   86loPI   C4A 1370   8.546  13.274   8.778  0.1213 -0.0579 -0.2548
   86loPI   C5A 1371   8.605  13.447   8.402 -0.0909 -0.1578 -0.1224
   86loPI   C6A 1372   8.529  13.843   8.307 -0.3057 -0.1766 -0.0149
   86loPI   C1B 1373   9.644  13.081  10.002 -0.2047 -0.1663  0.1147
   86loPI   C2B 1374   9.459  13.120   9.628 -0.3445  0.0435  0.1130
   86loPI   C3B 1375   9.538  12.849   9.249  0.1770 -0.0566 -0.2924
   86loPI   C4B 1376   9.510  12.891   8.804  0.0049  0.1071 -0.3134
   87loPI    C1 1377  17.798   5.586  10.884 -0.1000  0.2044 -0.0060
   87loPI    C2 1378  17.918   5.832  11.176  0.2837 -0.3393  0.3123
   87loPI    C3 1379  17.662   5.535  11.257  0.0280 -0.2137 -0.0120
   87loPI   PO4 1380  17.849   5.749  10.672 -0.1028  0.0027  0.2305
   87loPI   GL1 1381  17.808   5.920  10.268  0.0522 -0.0414 -0.3079
   87loPI   GL2 1382  17.846   5.566  10.189 -0.1983 -0.0117  0.0227
   87loPI   C1A 1383  17.840   6.255  10.071  0.4173 -0.0352  0.1188
   87loPI   C2A 1384  17.968   6.473   9.674  0.3338  0.0945  0.1140
   87loPI   C3A 1385  17.980   6.693   9.166 -0.2732 -0.0123 -0.1409
   87loPI   C4A 1386  17.863   6.986   8.952  0.1035 -0.0765  0.1586
   87loPI   C5A 1387  17.789   7.301   8.590 -0.0972 -0.1450  0.0022
   87loPI   C6A 1388  17.685   7.499   8.194 -0.1088 -0.1248 -0.1796
   87loPI   C1B 1389  17.615   5.541   9.836 -0.0504 -0.0627  0.0024
   87loPI   C2B 1390  17.642   5.496   9.396 -0.0025 -0.1843 -0.1608
   87loPI   C3B 1391  17.496   5.299   8.967  0.0428 -0.0809 -0.1490
   87loPI   C4B 1392  17.438   5.240   8.499 -0.1969 -0.1149  0.0513
   88loPI    C1 1393   8.711   9.926  11.095 -0.1077 -0.1125  0.2349
   88loPI    C2 1394   9.054   9.723  11.130  0.1421  0.2785  0.1167
   88loPI    C3 1395   8.968  10.018  11.387 -0.0460  0.2673  0.0678
   88loPI   PO4 1396   8.651  10.010  10.864  0.0833 -0.0101 -0.1624
   88loPI   GL1 1397   8.429   9.985  10.488  0.2604  0.0198 -0.1934
   88loPI   GL2 1398   8.162   9.954  10.331 -0.2395 -0.1601  0.0482
   88loPI   C1A 1399   8.756  10.044  10.101  0.3375  0.0739  0.1618
   88loPI   C2A 1400   8.791   9.988   9.706 -0.1754 -0.0502 -0.2200
   88loPI   C3A 1401   8.771  10.077   9.268  0.2045 -0.0815  0.2076
   88loPI   C4A 1402   8.789  10.113   8.796  0.0490 -0.1759  0.1786
   88loPI   C5A 1403   8.824   9.964   8.390 -0.0382  0.2612  0.0143
   88loPI   C6A 1404   8.936   9.513   8.287 -0.1432 -0.2444 -0.0913
   88loPI   C1B 1405   8.239   9.944   9.935 -0.1865  0.1596 -0.0124
   88loPI   C2B 1406   8.310   9.974   9.540 -0.0085  0.0081  0.1661
   88loPI   C3B 1407   8.297   9.971   9.092  0.0643 -0.0434 -0.1914
   88loPI   C4B 1408   8.278  10.018   8.633  0.1107  0.3036 -0.1408
   89loPI    C1 1409  13.530  10.331  10.929  0.1139 -0.0039 -0.0230
   89loPI    C2 1410  13.368  10.279  11.291  0.1920  0.1305  0.0320
   89loPI    C3 1411  13.742  10.156  11.219  0.2038  0.1733  0.0197
   89loPI   PO4 1412  13.345  10.247  10.733 -0.0298  0.0488  0.0965
   89loPI   GL1 1413  13.161  10.396  10.316  0.0367  0.2182  0.0214
   89loPI   GL2 1414  12.793  10.359  10.258  0.1877 -0.0347 -0.0445
   89loPI   C1A 1415  13.149  10.510   9.830  0.1208  0.0015  0.0727
   89loPI   C2A 1416  13.168  10.519   9.382 -0.0956  0.0403  0.1591
   89loPI   C3A 1417  13.119  10.550   8.954  0.1196  0.2335  0.0197
   89loPI   C4A 1418  13.055  10.560   8.534  0.1371  0.0997  0.3075
   89loPI   C5A 1419  12.814  10.511   8.221  0.0803  0.1043  0.1451
   89loPI   C6A 1420  12.662  10.109   8.022 -0.2347 -0.0269  0.0187
   89loPI   C1B 1421  12.599  10.383   9.883  0.1639 -0.1870  0.2844
   89loPI   C2B 1422  12.636  10.444   9.478 -0.0347  0.1554  0.1694
   89loPI   C3B 1423  12.532  10.514   9.108  0.1052  0.0786 -0.1378
   89loPI   C4B 1424  12.545  10.435   8.604 -0.1947 -0.0822 -0.1030
   90loPI    C1 1425   2.037   4.586  11.008 -0.3012  0.1366 -0.0308
   90loPI    C2 1426   1.819   4.529  11.338  0.2284 -0.1850  0.2773
   90loPI    C3 1427   1.901   4.221  11.097  0.0529  0.0016 -0.0263
   90loPI   PO4 1428   1.979   4.750  10.883  0.0729 -0.1104 -0.0277
   90loPI   GL1 1429   1.979   4.890  10.524 -0.1746 -0.1450 -0.1260
   90loPI   GL2 1430   2.347   5.072  10.591 -0.1024  0.3225  0.0184
   90loPI   C1A 1431   2.177   4.912  10.093  0.0694 -0.3483  0.1460
   90loPI   C2A 1432   2.314   4.810   9.669  0.0211  0.0241 -0.2529
   90loPI   C3A 1433   2.436   4.891   9.312  0.0388 -0.1586 -0.0852
   90loPI   C4A 1434   2.437   4.957   8.925  0.0435 -0.0708  0.3546
   90loPI   C5A 1435   2.626   5.201   8.525 -0.2631  0.2719  0.0080
   90loPI   C6A 1436   2.786   5.591   8.388 -0.1607  0.0131  0.0203
   90loPI   C1B 1437   2.300   5.388  10.275  0.1235 -0.0085  0.0973
   90loPI   C2B 1438   2.351   5.368   9.851  0.1316 -0.1305 -0.2253
   90loPI   C3B 1439   2.579   5.361   9.484  0.0034 -0.0223 -0.0547
   90loPI   C4B 1440   2.630   5.423   8.991  0.3573  0.0570 -0.1136
   91loPI    C1 1441  16.776   3.374  10.880  0.0454 -0.0020 -0.1764
   91loPI    C2 1442  17.035   3.653  11.004  0.0349 -0.2444  0.4259
   91loPI    C3 1443  16.643   3.732  11.000  0.0587 -0.1299  0.2354
   91loPI   PO4 1444  16.867   3.299  10.682 -0.0282 -0.1013  0.1977
   91loPI   GL1 1445  16.749   3.455  10.280 -0.0237 -0.3646  0.0486
   91loPI   GL2 1446  16.420   3.676  10.169 -0.1283  0.2154 -0.2582
   91loPI   C1A 1447  16.724   3.417   9.822  0.1075  0.0547  0.2619
   91loPI   C2A 1448  16.600   3.179   9.485 -0.0750 -0.3533 -0.2390
   91loPI   C3A 1449  16.423   2.947   9.149 -0.1166 -0.0697 -0.1927
   91loPI   C4A 1450  16.156   2.956   8.688  0.0404 -0.1336 -0.2723
   91loPI   C5A 1451  16.251   3.255   8.340  0.4005 -0.1467 -0.0955
   91loPI   C6A 1452  16.338   3.591   8.160 -0.0099  0.1774  0.0548
   91loPI   C1B 1453  16.266   3.545   9.784  0.2972  0.1478  0.0131
   91loPI   C2B 1454  16.175   3.763   9.340  0.1920 -0.0187 -0.0627
   91loPI   C3B 1455  16.344   3.992   9.062  0.1001 -0.2793 -0.2702
   91loPI   C4B 1456  16.388   4.401   8.999 -0.0604  0.4675  0.0855
   92loPI    C1 1457  17.198   0.944  10.606 -0.0544 -0.0202  0.0796
   92loPI    C2 1458  16.912   1.194  10.731  0.1093  0.1291  0.1602
   92loPI    C3 1459  17.288   1.239  10.860  0.1962  0.0152 -0.0472
   92loPI   PO4 1460  17.176   0.934  10.317 -0.3736 -0.1355  0.0364
   92loPI   GL1 1461  17.063   1.021  10.005  0.2536  0.0935  0.2769
   92loPI   GL2 1462  16.752   1.148   9.816  0.0540 -0.0583 -0.1263
   92loPI   C1A 1463  17.270   0.900   9.637 -0.1971 -0.0959 -0.0319
   92loPI   C2A 1464  17.270   0.988   9.134 -0.0894 -0.1349  0.4242
   92loPI   C3A 1465  17.073   1.303   8.876  0.0589  0.0042  0.0205
   92loPI   C4A 1466  17.170   1.460   8.490 -0.0779 -0.0636 -0.2334
   92loPI   C5A 1467  16.914   1.735   8.499 -0.0597  0.1980  0.2777
   92loPI   C6A 1468  16.602   2.005   8.357  0.0139 -0.4199  0.1037
   92loPI   C1B 1469  16.887   1.326   9.294  0.2725  0.1589 -0.2130
   92loPI   C2B 1470  16.785   1.692   8.972  0.2123  0.2639 -0.1024
   92loPI   C3B 1471  16.396   2.081   8.846  0.0379 -0.3480  0.2319
   92loPI   C4B 1472  16.423   2.473   8.632 -0.1090  0.1602  0.2298
   93loPI    C1 1473   0.205   4.087  10.889  0.1911 -0.2189 -0.0980
   93loPI    C2 1474   0.059   3.811  11.139 -0.0118 -0.0951 -0.0779
   93loPI    C3 1475   0.296   4.101  11.278  0.0080 -0.1208 -0.0578
   93loPI   PO4 1476   0.370   3.922  10.625 -0.3691 -0.0526  0.2033
   93loPI   GL1 1477   0.208   3.850  10.271 -0.1068  0.2942 -0.0640
   93loPI   GL2 1478   0.151   3.497  10.094  0.1439  0.0132  0.0681
   93loPI   C1A 1479   0.495   3.760   9.907 -0.0943 -0.0446  0.2401
   93loPI   C2A 1480   0.667   3.932   9.540  0.1238  0.0963  0.0249
   93loPI   C3A 1481   0.850   3.974   9.187 -0.0625  0.0001  0.0006
   93loPI   C4A 1482   0.704   3.812   8.812  0.0909 -0.1012  0.1786
   93loPI   C5A 1483   0.879   3.699   8.483  0.0876 -0.1591  0.1805
   93loPI   C6A 1484   1.328   3.698   8.328  0.1596  0.3679  0.0359
   93loPI   C1B 1485   0.095   3.070   9.799  0.0888 -0.4193  0.3031
   93loPI   C2B 1486   0.023   3.047   9.443  0.1170 -0.1466  0.0711
   93loPI   C3B 1487   0.023   3.066   8.974 -0.2193  0.3295  0.0898
   93loPI   C4B 1488  -0.143   3.215   8.587 -0.2331  0.1116 -0.1060
   94loPI    C1 1489   5.238   4.208  11.069  0.1801  0.0411  0.0357
   94loPI    C2 1490   5.287   3.846  10.906  0.0778 -0.0104  0.1182
   94loPI    C3 1491   5.295   3.890  11.304  0.2205  0.0985  0.1040
   94loPI   PO4 1492   5.411   4.405  10.849  0.1469 -0.2926 -0.0533
   94loPI   GL1 1493   5.535   4.278  10.588  0.0807  0.2442 -0.1045
   94loPI   GL2 1494   5.815   4.130  10.638 -0.1625 -0.0462 -0.0106
   94loPI   C1A 1495   5.350   4.250  10.253  0.0434  0.0139  0.0276
   94loPI   C2A 1496   5.436   4.240   9.921  0.0663 -0.1707 -0.1004
   94loPI   C3A 1497   5.583   4.366   9.438 -0.0172  0.0285 -0.3547
   94loPI   C4A 1498   5.543   4.239   9.104  0.0253  0.2323  0.0136
   94loPI   C5A 1499   5.557   4.353   8.589  0.0470  0.1389  0.0596
   94loPI   C6A 1500   5.138   4.290   8.317  0.0563 -0.0283 -0.0796
   94loPI   C1B 1501   5.797   3.965  10.204 -0.2532 -0.1063  0.2454
   94loPI   C2B 1502   5.889   3.977   9.839  0.0997 -0.3100 -0.3872
   94loPI   C3B 1503   5.846   3.858   9.361  0.1687  0.2637  0.2896
   94loPI   C4B 1504   5.882   3.878   9.013 -0.0052 -0.2421  0.0839
   95loPI    C1 1505   9.517   0.312  11.009 -0.1784  0.0449 -0.1137
   95loPI    C2 1506   9.738   0.395  11.332 -0.2003 -0.0163 -0.0829
   95loPI    C3 1507   9.439   0.639  11.226 -0.2446 -0.0389 -0.0105
   95loPI   PO4 1508   9.675   0.239  10.809  0.0121  0.1107  0.2394
   95loPI   GL1 1509   9.971   0.254  10.503  0.0154 -0.2181  0.4058
   95loPI   GL2 1510   9.864   0.594  10.424 -0.2258  0.2535  0.1148
   95loPI   C1A 1511  10.130   0.224  10.046 -0.0373 -0.1933  0.2290
   95loPI   C2A 1512  10.082   0.274   9.674 -0.1676 -0.1704  0.2302
   95loPI   C3A 1513  10.025   0.281   9.279  0.2056  0.0540  0.3608
   95loPI   C4A 1514  10.131   0.314   8.808  0.0086  0.0626  0.1947
   95loPI   C5A 1515  10.091   0.057   8.434 -0.1582  0.0831 -0.1199
   95loPI   C6A 1516  10.311  -0.273   8.200 -0.2708  0.0366 -0.2665
   95loPI   C1B 1517   9.727   0.624   9.982 -0.0325 -0.3097  0.1315
   95loPI   C2B 1518   9.749   0.662   9.633  0.1259 -0.2757 -0.2404
   95loPI   C3B 1519   9.807   0.762   9.163  0.0591  0.2336 -0.1236
   95loPI   C4B 1520   9.722   0.762   8.767 -0.2180 -0.3229 -0.2671
   96loPI    C1 1521  10.181   1.063  10.868  0.0775  0.0025  0.0449
   96loPI    C2 1522  10.567   1.033  10.766  0.0582  0.0653 -0.0470
   96loPI    C3 1523  10.457   1.281  11.060  0.0713  0.1567 -0.1188
   96loPI   PO4 1524  10.078   1.060  10.603 -0.3031 -0.0940 -0.2107
   96loPI   GL1 1525  10.114   1.045  10.253 -0.1212 -0.2336 -0.1193
   96loPI   GL2 1526  10.299   0.710  10.279 -0.0886  0.1826  0.3667
   96loPI   C1A 1527  10.020   1.169   9.902 -0.1756 -0.0803 -0.0683
   96loPI   C2A 1528   9.954   1.137   9.455  0.4599 -0.2714  0.1940
   96loPI   C3A 1529   9.988   1.179   8.969  0.0516 -0.0411  0.0085
   96loPI   C4A 1530  10.026   1.224   8.506 -0.0636  0.0585  0.0915
   96loPI   C5A 1531   9.878   0.819   8.252  0.1337  0.4877 -0.0366
   96loPI   C6A 1532   9.728   0.404   8.264 -0.0040 -0.4181 -0.0822
   96loPI   C1B 1533  10.206   0.713   9.865 -0.2565 -0.0887  0.1137
   96loPI   C2B 1534  10.217   0.714   9.457 -0.2909  0.2173 -0.2379
   96loPI   C3B 1535  10.281   0.761   9.012 -0.0460  0.2224  0.0513
   96loPI   C4B 1536  10.279   0.782   8.532 -0.2648  0.0543 -0.0080
   97loPI    C1 1537   1.849   6.800  11.093  0.0267  0.0143  0.0282
   97loPI    C2 1538   1.994   6.458  11.241  0.1277  0.0270 -0.0403
   97loPI    C3 1539   1.657   6.613  11.390  0.1401 -0.0454  0.0647
   97loPI   PO4 1540   1.899   6.793  10.878 -0.4415  0.0313  0.2955
   97loPI   GL1 1541   1.777   6.890  10.564  0.4524  0.0843  0.0108
   97loPI   GL2 1542   1.930   6.695  10.343  0.1402  0.2445 -0.2463
   97loPI   C1A 1543   1.808   7.162  10.110  0.1174 -0.0637 -0.0327
   97loPI   C2A 1544   1.836   7.207   9.735 -0.0497 -0.1715 -0.2320
   97loPI   C3A 1545   1.853   7.092   9.334 -0.2771 -0.0018  0.0666
   97loPI   C4A 1546   1.910   7.086   8.897 -0.0636 -0.4575  0.3103
   97loPI   C5A 1547   2.190   6.817   8.624  0.1500 -0.4187  0.1744
   97loPI   C6A 1548   2.255   6.723   8.135  0.1376 -0.0646 -0.1265
   97loPI   C1B 1549   2.117   6.641  10.000 -0.3439  0.1515  0.0650
   97loPI   C2B 1550   2.208   6.587   9.582  0.3759  0.1009 -0.0830
   97loPI   C3B 1551   2.245   6.636   9.145 -0.1861 -0.1737 -0.3570
   97loPI   C4B 1552   2.349   6.360   8.764  0.3464 -0.3406 -0.0604
   98loPI    C1 1553  14.836  13.713  10.878  0.0173  0.0909  0.0127
   98loPI    C2 1554  14.583  14.005  10.978 -0.0287  0.0880 -0.0942
   98loPI    C3 1555  14.818  13.841  11.256 -0.1681  0.0673  0.0128
   98loPI   PO4 1556  14.765  13.630  10.637  0.1765 -0.2445 -0.1252
   98loPI   GL1 1557  14.490  13.638  10.329 -0.2649 -0.2480 -0.1343
   98loPI   GL2 1558  14.584  13.803  10.134 -0.1695  0.1516 -0.0875
   98loPI   C1A 1559  14.476  13.375   9.984  0.1860 -0.1351 -0.2859
   98loPI   C2A 1560  14.410  13.364   9.554  0.2755 -0.0647  0.1095
   98loPI   C3A 1561  14.276  13.415   9.123 -0.0492  0.0326 -0.1806
   98loPI   C4A 1562  14.250  13.370   8.734  0.2390 -0.2596  0.1821
   98loPI   C5A 1563  14.600  13.378   8.464  0.4630 -0.1107 -0.2822
   98loPI   C6A 1564  14.747  13.533   8.129 -0.2443 -0.0272  0.0808
   98loPI   C1B 1565  14.658  13.968   9.745 -0.0997 -0.1549  0.0165
   98loPI   C2B 1566  14.553  13.827   9.279  0.1072 -0.1592 -0.2063
   98loPI   C3B 1567  14.493  13.812   8.823 -0.1213  0.0517 -0.1332
   98loPI   C4B 1568  14.276  13.776   8.353  0.0223  0.1267 -0.0120
   99loPI    C1 1569   2.928  10.426  10.996 -0.0827 -0.1730 -0.1871
   99loPI    C2 1570   3.204  10.449  10.708  0.2079 -0.2956  0.0753
   99loPI    C3 1571   3.313  10.477  11.092 -0.1965  0.0502  0.1725
   99loPI   PO4 1572   2.758  10.301  10.912 -0.0087 -0.2541 -0.1523
   99loPI   GL1 1573   2.636  10.293  10.499  0.3059 -0.2563  0.2365
   99loPI   GL2 1574   2.386  10.446  10.272  0.1652  0.0598 -0.0608
   99loPI   C1A 1575   2.766  10.359   9.993 -0.2081  0.1829  0.1412
   99loPI   C2A 1576   2.878  10.397   9.604  0.1374  0.1361 -0.2177
   99loPI   C3A 1577   2.905  10.423   9.217  0.2594  0.3468  0.1740
   99loPI   C4A 1578   2.973  10.276   8.801  0.0160 -0.3525  0.1430
   99loPI   C5A 1579   3.137  10.307   8.432  0.1063  0.0470 -0.0274
   99loPI   C6A 1580   3.443  10.169   8.263  0.1293 -0.1436 -0.0163
   99loPI   C1B 1581   2.277  10.358   9.896 -0.4208  0.1591  0.0631
   99loPI   C2B 1582   2.387  10.380   9.510  0.0905 -0.1210  0.1405
   99loPI   C3B 1583   2.409  10.353   9.086 -0.2897 -0.1439 -0.0777
   99loPI   C4B 1584   2.536  10.377   8.607 -0.3902 -0.0364  0.4149
  100loPI    C1 1585  17.657   5.082  10.866 -0.0934  0.1606 -0.2081
  100loPI    C2 1586  17.314   5.270  10.949 -0.2394 -0.1607 -0.0678
  100loPI    C3 1587  17.470   5.013  11.212  0.1750  0.0710 -0.0786
  100loPI   PO4 1588  17.631   4.888  10.616 -0.0386 -0.0095  0.1486
  100loPI   GL1 1589  17.797   4.814  10.270 -0.1613 -0.0694 -0.0063
  100loPI   GL2 1590  17.823   5.062  10.068 -0.0665 -0.1994  0.1132
  100loPI   C1A 1591  17.543   4.680   9.929 -0.0976 -0.0205  0.0078
  100loPI   C2A 1592  17.677   4.465   9.638  0.0398 -0.0494 -0.0847
  100loPI   C3A 1593  17.479   4.640   9.253  0.0900 -0.2640  0.0647
  100loPI   C4A 1594  17.546   4.773   8.858  0.0070  0.1180 -0.0885
  100loPI   C5A 1595  17.945   4.854   8.619  0.0170  0.0432 -0.0282
  100loPI   C6A 1596  18.337   4.868   8.370 -0.1271  0.0313  0.1002
  100loPI   C1B 1597  18.003   5.299   9.762 -0.1724 -0.1196 -0.2047
  100loPI   C2B 1598  18.076   5.592   9.561  0.2213 -0.1586  0.0102
  100loPI   C3B 1599  18.079   5.727   9.099 -0.0708 -0.4444  0.0354
  100loPI   C4B 1600  18.163   5.889   8.613  0.2592  0.0353  0.0749
  101loPI    C1 1601  17.745  13.445  10.737 -0.0915 -0.2822  0.0810
  101loPI    C2 1602  17.547  13.535  11.072 -0.0335 -0.0880  0.0647
  101loPI    C3 1603  17.920  13.669  11.018 -0.1346  0.0990 -0.1878
  101loPI   PO4 1604  17.549  13.484  10.573  0.0688 -0.1620  0.1764
  101loPI   GL1 1605  17.229  13.365  10.293 -0.1427 -0.2606  0.0643
  101loPI   GL2 1606  16.921  13.338  10.390  0.1925  0.3456  0.0846
  101loPI   C1A 1607  17.244  13.312   9.810 -0.1070 -0.2390  0.1134
  101loPI   C2A 1608  17.202  13.336   9.379  0.0006  0.2299  0.1001
  101loPI   C3A 1609  17.382  13.317   8.935 -0.2002  0.2163  0.2670
  101loPI   C4A 1610  17.315  13.256   8.520  0.0797  0.2087  0.2192
  101loPI   C5A 1611  17.661  13.238   8.114 -0.1033  0.0558  0.1112
  101loPI   C6A 1612  18.151  13.346   8.153 -0.1050  0.2862  0.0302
  101loPI   C1B 1613  16.754  13.166  10.018  0.2238  0.2719 -0.0627
  101loPI   C2B 1614  16.767  13.253   9.587 -0.1644  0.2045  0.1163
  101loPI   C3B 1615  16.757  13.251   9.234 -0.0757 -0.3433  0.2645
  101loPI   C4B 1616  16.826  13.172   8.775 -0.0268 -0.0636  0.0029
  102loPI    C1 1617   5.642   5.198  11.165  0.0428  0.0394  0.1597
  102loPI    C2 1618   5.588   5.471  11.452  0.0635  0.0479  0.1555
  102loPI    C3 1619   5.835   5.162  11.513  0.0374  0.0282  0.1616
  102loPI   PO4 1620   5.718   5.324  10.995  0.1081 -0.0007  0.0859
  102loPI   GL1 1621   5.514   5.595  10.615  0.2202 -0.3061 -0.1245
  102loPI   GL2 1622   5.377   5.344  10.592 -0.0952  0.1246  0.2229
  102loPI   C1A 1623   5.568   5.657  10.239 -0.0325 -0.1127 -0.1316
  102loPI   C2A 1624   5.661   5.592   9.795  0.1171 -0.3596  0.1201
  102loPI   C3A 1625   5.693   5.741   9.437  0.1094 -0.4016 -0.0512
  102loPI   C4A 1626   5.764   5.731   8.997 -0.0962 -0.4578 -0.1329
  102loPI   C5A 1627   5.846   5.540   8.587 -0.2099 -0.1340  0.2505
  102loPI   C6A 1628   5.948   5.230   8.276 -0.2017  0.3198 -0.0672
  102loPI   C1B 1629   5.343   5.236  10.269 -0.2819  0.0465 -0.0480
  102loPI   C2B 1630   5.290   5.133   9.846 -0.1121  0.1647  0.1495
  102loPI   C3B 1631   5.519   5.225   9.385  0.1694 -0.1239 -0.3552
  102loPI   C4B 1632   5.441   5.298   8.954  0.2805  0.1525  0.0174
  103loPI    C1 1633   1.420  11.746  10.867  0.0426  0.0011 -0.0867
  103loPI    C2 1634   1.021  11.724  10.888  0.0587 -0.2096  0.0321
  103loPI    C3 1635   1.245  11.587  11.190  0.2177  0.1081  0.0629
  103loPI   PO4 1636   1.490  11.689  10.606 -0.0750 -0.2274  0.1509
  103loPI   GL1 1637   1.559  11.883  10.272 -0.1376 -0.6329 -0.1900
  103loPI   GL2 1638   1.521  12.166  10.247 -0.1082  0.0032 -0.0664
  103loPI   C1A 1639   1.864  11.703  10.034 -0.2990 -0.0286 -0.1966
  103loPI   C2A 1640   1.858  11.680   9.660  0.2785  0.1920  0.1597
  103loPI   C3A 1641   2.049  11.702   9.269  0.1790 -0.2659 -0.0853
  103loPI   C4A 1642   2.077  11.693   8.789 -0.3532  0.1614  0.1401
  103loPI   C5A 1643   1.916  11.959   8.499  0.3946 -0.1921 -0.2664
  103loPI   C6A 1644   1.728  12.188   8.347 -0.3203 -0.0513 -0.0833
  103loPI   C1B 1645   1.547  12.019   9.786 -0.0350 -0.2290  0.0949
  103loPI   C2B 1646   1.700  12.065   9.399 -0.4198  0.0459  0.0254
  103loPI   C3B 1647   1.876  12.155   8.959 -0.0094  0.2705  0.0454
  103loPI   C4B 1648   2.321  12.081   8.976  0.2348 -0.2432 -0.1516
  104loPI    C1 1649  16.858  11.202  10.682  0.0370 -0.0125  0.0801
  104loPI    C2 1650  17.037  11.047  11.005  0.1030  0.1172  0.1064
  104loPI    C3 1651  16.732  11.301  11.049 -0.0640 -0.0729  0.0620
  104loPI   PO4 1652  17.016  11.307  10.550 -0.0870 -0.2858  0.0748
  104loPI   GL1 1653  17.297  11.496  10.195  0.0643  0.0704 -0.1351
  104loPI   GL2 1654  17.593  11.382  10.165  0.0018 -0.0088  0.2763
  104loPI   C1A 1655  17.217  11.382   9.802  0.2525 -0.0904 -0.0089
  104loPI   C2A 1656  17.240  11.323   9.445  0.3377  0.1508 -0.0645
  104loPI   C3A 1657  17.163  11.280   8.978  0.3842 -0.0025 -0.4289
  104loPI   C4A 1658  17.221  10.924   8.779 -0.3264  0.0166  0.0415
  104loPI   C5A 1659  17.013  10.582   8.627 -0.0105  0.0682 -0.2086
  104loPI   C6A 1660  17.002  10.311   8.290  0.1882 -0.1746 -0.1634
  104loPI   C1B 1661  17.730  11.498   9.719  0.1561  0.3744 -0.2511
  104loPI   C2B 1662  17.835  11.312   9.391  0.0500 -0.3030  0.1194
  104loPI   C3B 1663  17.669  11.161   8.980  0.0259  0.3126 -0.0920
  104loPI   C4B 1664  17.897  11.164   8.497 -0.1592  0.0373  0.2685
  105loPI    C1 1665   2.962  14.849  10.607  0.0770 -0.1679 -0.3531
  105loPI    C2 1666   3.353  14.770  10.581  0.1635  0.1217 -0.0178
  105loPI    C3 1667   3.199  14.903  10.925 -0.2840 -0.2573 -0.0622
  105loPI   PO4 1668   2.900  14.620  10.434 -0.3879  0.0841 -0.1023
  105loPI   GL1 1669   3.119  14.428  10.149 -0.1456 -0.0391  0.1855
  105loPI   GL2 1670   3.356  14.303  10.415  0.2984 -0.1097 -0.0251
  105loPI   C1A 1671   2.953  14.416   9.701  0.0693  0.0450 -0.1437
  105loPI   C2A 1672   2.948  14.449   9.192  0.2898 -0.0251  0.2567
  105loPI   C3A 1673   2.910  14.373   8.684 -0.0845  0.0833  0.4432
  105loPI   C4A 1674   3.078  14.345   8.335 -0.1341 -0.0646 -0.0544
  105loPI   C5A 1675   3.438  14.018   8.219 -0.3901 -0.0975  0.2060
  105loPI   C6A 1676   3.920  14.082   8.317  0.0088  0.3438  0.2083
  105loPI   C1B 1677   3.680  14.164  10.153 -0.1906 -0.0103 -0.3902
  105loPI   C2B 1678   3.769  14.044   9.704  0.4239 -0.0409 -0.0691
  105loPI   C3B 1679   3.668  14.069   9.245  0.0321  0.0903 -0.2476
  105loPI   C4B 1680   3.716  14.079   8.867 -0.3521 -0.0098  0.1189
  106loPI    C1 1681  10.625   4.960  10.806  0.0140  0.0911  0.0359
  106loPI    C2 1682  10.473   4.703  11.073 -0.0633  0.1042  0.0048
  106loPI    C3 1683  10.628   5.051  11.196 -0.0464  0.0851  0.0378
  106loPI   PO4 1684  10.484   4.899  10.595 -0.2637  0.1531 -0.2129
  106loPI   GL1 1685  10.615   5.165  10.209  0.0032  0.1350 -0.2665
  106loPI   GL2 1686  10.384   5.145   9.970 -0.0657 -0.2574 -0.2063
  106loPI   C1A 1687  10.885   5.222  10.052 -0.2626  0.0003  0.0631
  106loPI   C2A 1688  10.999   5.364   9.699 -0.0831  0.0203  0.3494
  106loPI   C3A 1689  10.916   5.380   9.307 -0.1141 -0.0801 -0.1396
  106loPI   C4A 1690  10.945   5.340   8.865 -0.0692  0.0697  0.1573
  106loPI   C5A 1691  11.045   5.316   8.382 -0.0381  0.3325  0.0238
  106loPI   C6A 1692  11.184   5.518   8.142  0.3972  0.0592  0.0306
  106loPI   C1B 1693  10.417   5.288   9.548  0.0527  0.2158 -0.0401
  106loPI   C2B 1694  10.426   5.332   9.106 -0.0003 -0.0207 -0.1779
  106loPI   C3B 1695  10.454   5.334   8.704 -0.1861  0.1534 -0.1184
  106loPI   C4B 1696  10.363   5.274   8.283  0.1372 -0.0441  0.0959
  107loPI    C1 1697   3.234   9.893  11.087  0.0020  0.0284 -0.2500
  107loPI    C2 1698   3.593  10.067  11.108  0.0713 -0.1350 -0.0489
  107loPI    C3 1699   3.338  10.098  11.415 -0.0611 -0.0761 -0.1640
  107loPI   PO4 1700   3.154   9.992  10.858 -0.1070 -0.0055 -0.1892
  107loPI   GL1 1701   3.083   9.862  10.466  0.0888  0.0618 -0.0932
  107loPI   GL2 1702   3.284  10.024  10.265 -0.1586 -0.0393 -0.0270
  107loPI   C1A 1703   2.885   9.567  10.126  0.0692 -0.1024 -0.2416
  107loPI   C2A 1704   2.924   9.504   9.702 -0.0530 -0.1343 -0.1572
  107loPI   C3A 1705   2.944   9.486   9.270  0.0158 -0.1942  0.0667
  107loPI   C4A 1706   3.045   9.454   8.878  0.2125  0.1451 -0.1996
  107loPI   C5A 1707   3.243   9.456   8.478 -0.0490  0.0373  0.0240
  107loPI   C6A 1708   3.526   9.633   8.288 -0.2027  0.1988 -0.1693
  107loPI   C1B 1709   3.114   9.971   9.874 -0.0823 -0.1230 -0.0399
  107loPI   C2B 1710   3.146   9.949   9.485 -0.1518 -0.0056  0.4926
  107loPI   C3B 1711   3.238   9.951   9.052 -0.0961 -0.0685  0.0519
  107loPI   C4B 1712   3.300   9.899   8.691  0.0056  0.2166  0.2500
  108loPI    C1 1713  14.013  17.907  10.752  0.0726 -0.0095 -0.2159
  108loPI    C2 1714  14.141  17.643  11.024 -0.1189  0.0623 -0.0537
  108loPI    C3 1715  14.380  17.941  10.907 -0.1208  0.1742  0.2191
  108loPI   PO4 1716  13.805  17.825  10.524  0.1221  0.1565 -0.1176
  108loPI   GL1 1717  13.898  17.731  10.065  0.4489 -0.0348  0.1957
  108loPI   GL2 1718  13.604  17.467  10.049  0.0289  0.0283 -0.1325
  108loPI   C1A 1719  13.575  17.866   9.751 -0.0889  0.2407  0.0075
  108loPI   C2A 1720  13.162  17.823   9.411 -0.0382 -0.1803  0.1566
  108loPI   C3A 1721  13.285  17.800   8.984 -0.0484  0.0274  0.1084
  108loPI   C4A 1722  13.262  18.056   8.557 -0.2559 -0.0160  0.0415
  108loPI   C5A 1723  13.010  18.025   8.170  0.1390  0.0546  0.0066
  108loPI   C6A 1724  12.497  18.134   8.190 -0.0731  0.0157 -0.0512
  108loPI   C1B 1725  13.473  17.380   9.573 -0.1369  0.1969 -0.0278
  108loPI   C2B 1726  13.518  17.367   9.126  0.0495 -0.0684 -0.1944
  108loPI   C3B 1727  13.635  17.290   8.778 -0.1296 -0.0556  0.1879
  108loPI   C4B 1728  13.525  17.206   8.328 -0.4633 -0.2274  0.3429
  109loPI    C1 1729  14.309   2.985  10.790  0.0306 -0.0989  0.1582
  109loPI    C2 1730  14.287   3.383  10.826 -0.2092 -0.0712 -0.2337
  109loPI    C3 1731  14.125   3.147  11.106 -0.0361  0.1031  0.0176
  109loPI   PO4 1732  14.212   2.871  10.627 -0.0595 -0.0210  0.1214
  109loPI   GL1 1733  13.927   2.930  10.282 -0.0091 -0.0074  0.2848
  109loPI   GL2 1734  13.862   2.648  10.248  0.2593  0.0742 -0.0264
  109loPI   C1A 1735  13.480   3.128  10.187  0.1032  0.0546  0.1289
  109loPI   C2A 1736  13.214   3.210   9.832  0.1970 -0.1872 -0.2237
  109loPI   C3A 1737  13.087   3.292   9.510 -0.1097  0.1356 -0.0512
  109loPI   C4A 1738  12.976   3.319   9.030  0.1716  0.2857  0.1424
  109loPI   C5A 1739  12.791   3.287   8.589 -0.1979 -0.0494  0.0833
  109loPI   C6A 1740  12.857   2.993   8.393  0.0479  0.0428 -0.0658
  109loPI   C1B 1741  13.662   2.772   9.849  0.1361  0.4061  0.1750
  109loPI   C2B 1742  13.503   2.926   9.538 -0.1836 -0.2843  0.1816
  109loPI   C3B 1743  13.473   2.896   9.173 -0.0897  0.0010  0.2239
  109loPI   C4B 1744  13.313   2.690   8.941  0.0853  0.0735 -0.1151
  110loPI    C1 1745   1.231   4.992  11.093  0.0016  0.0590  0.1346
  110loPI    C2 1746   1.442   4.653  11.119 -0.2223 -0.0848  0.1000
  110loPI    C3 1747   1.401   4.888  11.440 -0.0204 -0.0615  0.1098
  110loPI   PO4 1748   1.174   5.030  10.868 -0.2696 -0.1963  0.0153
  110loPI   GL1 1749   1.098   5.214  10.556 -0.1510 -0.0404  0.2498
  110loPI   GL2 1750   0.918   4.916  10.352  0.2069 -0.3627  0.0218
  110loPI   C1A 1751   1.342   5.323  10.151 -0.1999 -0.0151 -0.0711
  110loPI   C2A 1752   1.408   5.228   9.656 -0.2113 -0.0230 -0.1610
  110loPI   C3A 1753   1.434   5.196   9.222  0.1477  0.1250  0.1184
  110loPI   C4A 1754   1.290   4.913   8.956  0.1220 -0.0637 -0.0742
  110loPI   C5A 1755   1.204   4.625   8.579 -0.1072 -0.1037 -0.0299
  110loPI   C6A 1756   1.130   4.132   8.605  0.0554 -0.1379 -0.1096
  110loPI   C1B 1757   1.072   4.800   9.898  0.0058 -0.0348  0.0843
  110loPI   C2B 1758   1.345   4.736   9.568 -0.0513  0.0097 -0.0332
  110loPI   C3B 1759   1.632   4.554   9.298  0.1446  0.0458 -0.3610
  110loPI   C4B 1760   1.600   4.424   8.813  0.0408 -0.1693 -0.0956
  111loPI    C1 1761   8.898   2.105  11.073  0.0726 -0.1465 -0.1318
  111loPI    C2 1762   8.594   2.034  11.322  0.1463 -0.1992 -0.0560
  111loPI    C3 1763   8.904   2.256  11.443 -0.0191  0.1444 -0.2458
  111loPI   PO4 1764   8.761   2.116  10.801  0.2671 -0.2859  0.0518
  111loPI   GL1 1765   8.465   2.368  10.488  0.0019  0.0843 -0.0841
  111loPI   GL2 1766   8.338   2.710  10.383 -0.2500  0.2288 -0.1095
  111loPI   C1A 1767   8.620   2.350  10.058 -0.1086 -0.2932  0.2482
  111loPI   C2A 1768   8.600   2.239   9.664 -0.0630 -0.2570 -0.2265
  111loPI   C3A 1769   8.616   2.401   9.276  0.0251 -0.0116  0.2202
  111loPI   C4A 1770   8.537   2.371   8.810  0.1180 -0.3122  0.1616
  111loPI   C5A 1771   8.741   2.380   8.479  0.5710 -0.0766 -0.0233
  111loPI   C6A 1772   8.701   2.079   8.180  0.0965 -0.0133 -0.1100
  111loPI   C1B 1773   8.279   2.738   9.967  0.0948  0.0381 -0.0397
  111loPI   C2B 1774   8.341   2.721   9.532  0.0535  0.0232 -0.0607
  111loPI   C3B 1775   8.333   2.816   9.149  0.1600  0.5437 -0.3782
  111loPI   C4B 1776   8.313   2.879   8.659  0.1296  0.2988  0.0181
  112loPI    C1 1777  16.548  12.185  10.990 -0.2449  0.0148  0.3789
  112loPI    C2 1778  16.904  12.158  11.169 -0.0139 -0.0942 -0.0806
  112loPI    C3 1779  16.635  12.424  11.298  0.3137  0.1404  0.1369
  112loPI   PO4 1780  16.623  12.020  10.807  0.0624 -0.1873  0.3082
  112loPI   GL1 1781  16.657  11.882  10.347 -0.0749 -0.1839 -0.0148
  112loPI   GL2 1782  16.767  11.567  10.222 -0.1045 -0.3499  0.2006
  112loPI   C1A 1783  16.304  11.806  10.002 -0.3799  0.0076 -0.2997
  112loPI   C2A 1784  16.193  11.849   9.588  0.0988  0.2214 -0.2131
  112loPI   C3A 1785  16.167  11.749   9.149  0.3635 -0.1828  0.1637
  112loPI   C4A 1786  16.141  11.756   8.708  0.0691  0.1402 -0.4646
  112loPI   C5A 1787  16.377  11.397   8.464 -0.0340 -0.1397 -0.1072
  112loPI   C6A 1788  16.673  11.219   8.125 -0.1070  0.0267 -0.1359
  112loPI   C1B 1789  16.898  11.790   9.822  0.2180  0.1814 -0.0863
  112loPI   C2B 1790  16.674  11.961   9.484 -0.2347  0.3260 -0.1139
  112loPI   C3B 1791  16.656  11.889   9.093 -0.1266 -0.0473 -0.2478
  112loPI   C4B 1792  16.652  11.775   8.619 -0.0148  0.2730 -0.0747
  113loPI    C1 1793   9.850  16.464  11.133  0.0887 -0.0413  0.0912
  113loPI    C2 1794   9.780  16.767  11.385 -0.1598  0.0138 -0.0405
  113loPI    C3 1795   9.721  16.389  11.504  0.0405  0.0218  0.0875
  113loPI   PO4 1796   9.780  16.479  10.977  0.3784 -0.0105 -0.1385
  113loPI   GL1 1797   9.858  16.635  10.596  0.1298  0.0880 -0.1360
  113loPI   GL2 1798  10.137  16.503  10.480  0.0598  0.0901 -0.2178
  113loPI   C1A 1799   9.798  16.480  10.165  0.0406  0.1979  0.2968
  113loPI   C2A 1800   9.720  16.441   9.680 -0.0977  0.0013  0.2095
  113loPI   C3A 1801   9.750  16.402   9.283  0.3545 -0.0400  0.1187
  113loPI   C4A 1802   9.700  16.436   8.853 -0.0907 -0.3500  0.0524
  113loPI   C5A 1803   9.670  16.452   8.411 -0.0845  0.0027 -0.2912
  113loPI   C6A 1804   9.287  16.444   8.074 -0.0915  0.0320  0.3997
  113loPI   C1B 1805  10.267  16.376  10.003 -0.0740  0.1617  0.1291
  113loPI   C2B 1806  10.204  16.475   9.628 -0.5908  0.1166 -0.0360
  113loPI   C3B 1807  10.252  16.454   9.230  0.1334 -0.0107 -0.1948
  113loPI   C4B 1808  10.231  16.473   8.869  0.2432 -0.0977 -0.0529
  114loPI    C1 1809   1.767   7.723  11.082 -0.0675 -0.0514  0.2167
  114loPI    C2 1810   1.500   7.512  11.292 -0.2160  0.0909  0.1735
  114loPI    C3 1811   1.526   7.908  11.343 -0.1870  0.1130 -0.0063
  114loPI   PO4 1812   1.728   7.709  10.886 -0.0612  0.1534  0.2473
  114loPI   GL1 1813   1.632   7.924  10.471 -0.2361  0.2912 -0.1042
  114loPI   GL2 1814   1.590   7.542  10.406  0.0774 -0.1870 -0.2524
  114loPI   C1A 1815   1.741   7.991  10.074 -0.0008  0.0802 -0.0125
  114loPI   C2A 1816   1.820   8.034   9.677  0.0365  0.2466 -0.0135
  114loPI   C3A 1817   1.854   7.998   9.223 -0.0497  0.5083  0.0297
  114loPI   C4A 1818   1.881   7.877   8.733 -0.2387 -0.1116  0.0379
  114loPI   C5A 1819   2.315   7.803   8.583  0.3561 -0.1232  0.0908
  114loPI   C6A 1820   2.770   7.726   8.518  0.0862 -0.3108 -0.0175
  114loPI   C1B 1821   1.509   7.603   9.886 -0.1769 -0.1263  0.3109
  114loPI   C2B 1822   1.470   7.541   9.503  0.1280  0.0963  0.0372
  114loPI   C3B 1823   1.621   7.513   9.063  0.3220  0.1981  0.1814
  114loPI   C4B 1824   1.641   7.406   8.628 -0.2694  0.2727  0.0443
  115loPI    C1 1825  12.321  13.194  10.996 -0.2118 -0.1336  0.2390
  115loPI    C2 1826  11.996  13.202  11.230 -0.2447  0.0662  0.1885
  115loPI    C3 1827  12.219  13.531  11.186 -0.2473  0.0354 -0.0732
  115loPI   PO4 1828  12.293  13.135  10.747  0.1102  0.1499  0.0201
  115loPI   GL1 1829  12.030  13.242  10.376 -0.0119 -0.1890 -0.0103
  115loPI   GL2 1830  12.040  12.972  10.307  0.0340 -0.0064 -0.0872
  115loPI   C1A 1831  12.039  13.503   9.924  0.1271 -0.2337 -0.1899
  115loPI   C2A 1832  11.934  13.521   9.458 -0.0524  0.3210 -0.0776
  115loPI   C3A 1833  11.840  13.488   9.041  0.2847  0.0120 -0.0902
  115loPI   C4A 1834  11.867  13.495   8.620  0.3899 -0.3437 -0.1556
  115loPI   C5A 1835  11.820  13.882   8.354 -0.1648  0.0314  0.2476
  115loPI   C6A 1836  12.165  14.173   8.397  0.1029 -0.0173  0.0129
  115loPI   C1B 1837  11.773  13.091   9.990  0.1401 -0.3159  0.0365
  115loPI   C2B 1838  11.741  13.100   9.577  0.2421 -0.1572  0.0243
  115loPI   C3B 1839  11.623  13.017   9.217 -0.1496  0.1001 -0.2360
  115loPI   C4B 1840  11.525  12.926   8.802  0.1074  0.0848 -0.2112
  116loPI    C1 1841  11.236  13.448  10.978  0.1103  0.1644 -0.1611
  116loPI    C2 1842  11.197  13.063  10.876  0.1118  0.1067  0.0503
  116loPI    C3 1843  11.508  13.180  11.098  0.1717  0.2504 -0.1070
  116loPI   PO4 1844  11.210  13.547  10.702  0.2231 -0.1457 -0.0949
  116loPI   GL1 1845  11.316  13.563  10.388 -0.1087 -0.1815 -0.2718
  116loPI   GL2 1846  11.244  13.964  10.333 -0.2870 -0.0474  0.0494
  116loPI   C1A 1847  11.577  13.515  10.141  0.1675  0.2344  0.1851
  116loPI   C2A 1848  11.483  13.495   9.746  0.3245 -0.1408 -0.3993
  116loPI   C3A 1849  11.340  13.424   9.327 -0.2718 -0.2736 -0.0674
  116loPI   C4A 1850  11.345  13.401   8.967  0.0862 -0.0859  0.0383
  116loPI   C5A 1851  11.371  13.402   8.516  0.0579 -0.3512  0.0046
  116loPI   C6A 1852  11.552  13.526   8.115  0.1659 -0.1341 -0.2454
  116loPI   C1B 1853  11.170  13.843   9.905  0.0030 -0.1081  0.1731
  116loPI   C2B 1854  11.073  13.880   9.540 -0.2016 -0.0376 -0.1770
  116loPI   C3B 1855  11.071  13.809   9.121 -0.1833 -0.0519  0.2273
  116loPI   C4B 1856  11.028  13.732   8.626 -0.2869 -0.0209 -0.0777
  117loPI    C1 1857  16.053   3.264  10.635 -0.0238  0.0520  0.0438
  117loPI    C2 1858  16.348   3.534  10.645 -0.0100  0.0371  0.0396
  117loPI    C3 1859  16.273   3.309  10.967  0.0349 -0.0146  0.0142
  117loPI   PO4 1860  16.115   3.204  10.313  0.0511 -0.2513  0.1144
  117loPI   GL1 1861  15.858   3.172   9.942  0.0684  0.1867  0.0816
  117loPI   GL2 1862  15.446   3.067   9.920 -0.3808  0.1583  0.2441
  117loPI   C1A 1863  15.697   3.451   9.582  0.1413 -0.0785  0.0702
  117loPI   C2A 1864  15.571   3.594   9.266 -0.1721  0.3429 -0.1491
  117loPI   C3A 1865  15.633   3.622   8.897  0.0430 -0.0091  0.2353
  117loPI   C4A 1866  15.629   3.709   8.417  0.4545 -0.2097  0.2990
  117loPI   C5A 1867  15.519   4.109   8.357 -0.0153  0.0026  0.0754
  117loPI   C6A 1868  15.486   4.645   8.228 -0.1577  0.1109  0.1808
  117loPI   C1B 1869  15.424   3.110   9.387 -0.2908 -0.1470 -0.2375
  117loPI   C2B 1870  15.336   3.257   8.937  0.2382 -0.0095  0.1800
  117loPI   C3B 1871  15.272   3.335   8.577  0.0763  0.2570 -0.1488
  117loPI   C4B 1872  15.211   3.368   8.189  0.2738  0.1635  0.2822
  118loPI    C1 1873   4.482   3.245  11.389 -0.5689  0.0489  0.1109
  118loPI    C2 1874   4.466   2.858  11.490 -0.2652  0.0791  0.2858
  118loPI    C3 1875   4.584   3.130  11.758  0.1166  0.2168 -0.0127
  118loPI   PO4 1876   4.622   3.236  11.123  0.2912 -0.0573  0.1613
  118loPI   GL1 1877   4.447   3.032  10.763  0.0650 -0.2768 -0.0897
  118loPI   GL2 1878   4.250   2.810  10.598 -0.1582 -0.1861  0.0964
  118loPI   C1A 1879   4.714   2.913  10.391 -0.0175  0.0580  0.1317
  118loPI   C2A 1880   4.790   2.872   9.980 -0.1429 -0.0621  0.5700
  118loPI   C3A 1881   4.855   2.863   9.509 -0.0690  0.2397 -0.0023
  118loPI   C4A 1882   4.922   2.930   9.119  0.1084 -0.1996  0.2101
  118loPI   C5A 1883   5.058   2.769   8.784  0.0648  0.2276 -0.0785
  118loPI   C6A 1884   5.311   2.634   8.456 -0.0789  0.4770 -0.0942
  118loPI   C1B 1885   4.178   2.921  10.104 -0.1275 -0.1727 -0.0182
  118loPI   C2B 1886   4.225   2.902   9.733 -0.0961 -0.0545  0.2668
  118loPI   C3B 1887   4.301   2.842   9.308 -0.1177  0.0774 -0.2032
  118loPI   C4B 1888   4.494   2.917   8.915 -0.1682  0.2844 -0.1850
  119loPI    C1 1889   4.651  10.810  10.864 -0.0212 -0.2932  0.0722
  119loPI    C2 1890   4.905  10.920  11.152  0.0705  0.0168 -0.1229
  119loPI    C3 1891   4.691  10.585  11.192 -0.0004  0.1126  0.3547
  119loPI   PO4 1892   4.714  10.785  10.677 -0.0444  0.0486  0.0479
  119loPI   GL1 1893   4.855  10.884  10.329  0.0806 -0.1168 -0.0803
  119loPI   GL2 1894   4.548  11.018  10.246 -0.1912 -0.0344 -0.1035
  119loPI   C1A 1895   5.142  10.979   9.976 -0.1010  0.2057  0.0730
  119loPI   C2A 1896   5.285  10.967   9.460 -0.0544 -0.3171  0.0895
  119loPI   C3A 1897   5.232  11.061   9.032 -0.0399  0.1140 -0.0380
  119loPI   C4A 1898   5.403  11.013   8.608 -0.1079  0.0901 -0.3924
  119loPI   C5A 1899   5.522  10.933   8.181  0.0691 -0.0642 -0.0213
  119loPI   C6A 1900   5.944  10.529   8.114 -0.1842  0.0838 -0.0172
  119loPI   C1B 1901   4.620  10.986   9.865  0.1000  0.0788  0.0005
  119loPI   C2B 1902   4.762  11.056   9.445 -0.0302  0.0114 -0.0031
  119loPI   C3B 1903   4.745  10.980   8.993  0.1061 -0.3070 -0.2181
  119loPI   C4B 1904   4.887  10.950   8.535 -0.0665  0.1002  0.2131
  120loPI    C1 1905   6.220   1.103  11.284 -0.1787  0.0177 -0.2596
  120loPI    C2 1906   5.919   0.893  11.444 -0.0690  0.0911  0.0497
  120loPI    C3 1907   6.092   1.187  11.653  0.0030  0.2675 -0.2510
  120loPI   PO4 1908   6.161   1.162  11.005 -0.1359 -0.0044  0.0409
  120loPI   GL1 1909   6.036   1.112  10.594 -0.0961 -0.1450  0.1202
  120loPI   GL2 1910   6.047   0.789  10.533 -0.1523  0.0853 -0.0045
  120loPI   C1A 1911   6.057   1.189  10.220 -0.3220 -0.1177 -0.1439
  120loPI   C2A 1912   6.136   1.268   9.798  0.0138  0.2731  0.1607
  120loPI   C3A 1913   6.088   1.237   9.381 -0.0207 -0.0486 -0.2347
  120loPI   C4A 1914   6.141   1.133   8.971  0.1539  0.0289 -0.0359
  120loPI   C5A 1915   6.070   1.216   8.543  0.0881 -0.0396 -0.0190
  120loPI   C6A 1916   6.187   1.480   8.170  0.1403  0.0557  0.1323
  120loPI   C1B 1917   5.860   0.760  10.047  0.2158 -0.0355 -0.2935
  120loPI   C2B 1918   5.900   0.837   9.658  0.0822  0.0977 -0.0797
  120loPI   C3B 1919   5.928   0.753   9.205  0.1015 -0.0902 -0.1494
  120loPI   C4B 1920   5.892   0.736   8.762 -0.1158 -0.0395  0.1857
  121loPI    C1 1921   2.188  12.200  10.945 -0.1924 -0.0112  0.2371
  121loPI    C2 1922   2.023  12.563  10.926 -0.1524 -0.0024  0.0436
  121loPI    C3 1923   2.150  12.420  11.277 -0.2162  0.1486  0.1293
  121loPI   PO4 1924   2.414  12.258  10.758  0.1033 -0.0491  0.1210
  121loPI   GL1 1925   2.644  11.979  10.545 -0.1852 -0.2957  0.1637
  121loPI   GL2 1926   2.899  11.809  10.660  0.0323  0.0512 -0.2247
  121loPI   C1A 1927   2.530  12.127  10.138  0.0117 -0.3943  0.0908
  121loPI   C2A 1928   2.692  12.138   9.672 -0.0767 -0.2566 -0.0734
  121loPI   C3A 1929   2.840  12.062   9.195  0.0867  0.1896  0.0678
  121loPI   C4A 1930   2.878  12.201   8.729 -0.1100  0.2546  0.0228
  121loPI   C5A 1931   2.666  12.506   8.395  0.0000 -0.1159 -0.2763
  121loPI   C6A 1932   2.545  12.909   8.225 -0.0743  0.4011  0.0071
  121loPI   C1B 1933   2.868  11.740  10.128  0.0627  0.2677 -0.0690
  121loPI   C2B 1934   2.958  11.727   9.677 -0.1754  0.1311  0.3025
  121loPI   C3B 1935   3.121  11.702   9.254  0.0153 -0.0479 -0.0330
  121loPI   C4B 1936   3.053  11.716   8.832 -0.3530 -0.1215 -0.1042
  122loPI    C1 1937   6.526   6.899  11.354  0.1442 -0.0954 -0.2823
  122loPI    C2 1938   6.523   6.505  11.421  0.0409 -0.0820 -0.2048
  122loPI    C3 1939   6.184   6.715  11.450  0.1667  0.0789  0.1569
  122loPI   PO4 1940   6.667   6.897  11.174 -0.2756 -0.0901  0.1829
  122loPI   GL1 1941   6.711   6.997  10.818 -0.0063 -0.1601 -0.1629
  122loPI   GL2 1942   6.877   7.233  10.597  0.2063  0.0535 -0.0289
  122loPI   C1A 1943   6.798   6.767  10.433  0.2948 -0.4031  0.0597
  122loPI   C2A 1944   6.678   6.750  10.008  0.2048  0.2534  0.0137
  122loPI   C3A 1945   6.677   6.655   9.532 -0.0416  0.1451  0.2092
  122loPI   C4A 1946   6.639   6.644   9.135 -0.1335 -0.2438 -0.2656
  122loPI   C5A 1947   6.581   6.705   8.648  0.0873 -0.0645 -0.1413
  122loPI   C6A 1948   6.278   6.975   8.447  0.3436 -0.1309 -0.3465
  122loPI   C1B 1949   6.925   7.252  10.180 -0.2656 -0.0201 -0.1449
  122loPI   C2B 1950   6.866   7.160   9.747  0.1953  0.0667  0.0281
  122loPI   C3B 1951   6.916   7.114   9.326  0.1322 -0.3221  0.0218
  122loPI   C4B 1952   6.966   7.122   8.943  0.0001  0.4222 -0.0344
  123loPI    C1 1953  17.725   8.717  10.483  0.1907 -0.0309  0.0141
  123loPI    C2 1954  17.862   8.397  10.680  0.1905 -0.0312  0.0136
  123loPI    C3 1955  17.751   8.724  10.882  0.2391 -0.0128  0.0107
  123loPI   PO4 1956  17.973   8.738  10.366  0.2078  0.0668  0.1481
  123loPI   GL1 1957  18.099   8.864   9.909  0.1636  0.0546 -0.0450
  123loPI   GL2 1958  18.123   9.118   9.983 -0.1167  0.0274 -0.0297
  123loPI   C1A 1959  18.185   8.712   9.607  0.0395 -0.4245  0.1893
  123loPI   C2A 1960  18.455   8.734   9.228  0.0650 -0.2882  0.0479
  123loPI   C3A 1961  18.467   8.919   8.798 -0.1491  0.2236 -0.2524
  123loPI   C4A 1962  18.451   8.747   8.433 -0.1724 -0.2948  0.0097
  123loPI   C5A 1963  18.510   8.786   8.031  0.1988  0.0875  0.0162
  123loPI   C6A 1964  18.539   8.829   7.528 -0.3543 -0.1157 -0.0113
  123loPI   C1B 1965  18.131   9.214   9.539  0.1767 -0.0588  0.1269
  123loPI   C2B 1966  18.303   9.323   9.101  0.0390 -0.2419  0.0155
  123loPI   C3B 1967  18.376   9.397   8.682 -0.1087 -0.1744 -0.3078
  123loPI   C4B 1968  18.484   9.647   8.260  0.1066 -0.1715  0.2175
  124loPI    C1 1969   3.827  13.019  10.969 -0.1335  0.0003 -0.0981
  124loPI    C2 1970   3.639  12.813  11.256  0.1109  0.0378  0.0926
  124loPI    C3 1971   4.028  12.898  11.293  0.1179  0.1441 -0.1974
  124loPI   PO4 1972   3.534  13.015  10.797  0.1575  0.0989 -0.3228
  124loPI   GL1 1973   3.555  13.322  10.469  0.2073  0.0125  0.0388
  124loPI   GL2 1974   3.622  13.694  10.260 -0.1545  0.1346 -0.1970
  124loPI   C1A 1975   3.606  13.008  10.147  0.0385 -0.0708  0.2867
  124loPI   C2A 1976   3.717  13.075   9.790 -0.0316  0.2876 -0.1290
  124loPI   C3A 1977   3.757  13.187   9.390  0.1907  0.0809 -0.0087
  124loPI   C4A 1978   3.717  13.196   8.966  0.0461  0.3919  0.2737
  124loPI   C5A 1979   3.792  13.187   8.598 -0.2833  0.0940  0.1330
  124loPI   C6A 1980   4.131  13.085   8.325  0.1831  0.4026 -0.1276
  124loPI   C1B 1981   3.969  13.623   9.903 -0.1438 -0.0644 -0.1296
  124loPI   C2B 1982   3.935  13.648   9.406 -0.2612 -0.1059 -0.1659
  124loPI   C3B 1983   3.947  13.626   8.932  0.1425 -0.0384  0.1220
  124loPI   C4B 1984   4.016  13.601   8.463  0.0686 -0.1866 -0.4243
  125loPI    C1 1985  12.800   0.297  10.778  0.2782  0.0891 -0.3326
  125loPI    C2 1986  13.149   0.300  10.972  0.0978 -0.0336  0.0026
  125loPI    C3 1987  12.900   0.611  11.004 -0.0773 -0.1948  0.2442
  125loPI   PO4 1988  12.816   0.239  10.497  0.1585 -0.0374  0.0232
  125loPI   GL1 1989  13.038  -0.004  10.174 -0.0437 -0.2164  0.1535
  125loPI   GL2 1990  13.201   0.247  10.158  0.0430 -0.1541  0.0159
  125loPI   C1A 1991  13.147  -0.300   9.988  0.0065 -0.0071 -0.1242
  125loPI   C2A 1992  12.991  -0.693   9.741  0.2100  0.0771 -0.0081
  125loPI   C3A 1993  12.990  -0.772   9.311 -0.0555  0.2772 -0.2348
  125loPI   C4A 1994  13.048  -0.736   8.828 -0.3845  0.3131  0.1035
  125loPI   C5A 1995  13.048  -0.696   8.366  0.0850  0.1340  0.0666
  125loPI   C6A 1996  13.265  -0.921   7.920 -0.0199 -0.2418 -0.3904
  125loPI   C1B 1997  13.288   0.263   9.695 -0.0426 -0.0088 -0.1160
  125loPI   C2B 1998  13.321   0.263   9.246  0.2552 -0.1473  0.2144
  125loPI   C3B 1999  13.499   0.346   8.916 -0.1079 -0.1176  0.1971
  125loPI   C4B 2000  13.745   0.210   8.519 -0.3101 -0.0652  0.4123
  126loPI    C1 2001  13.015   2.750  10.763  0.3992  0.0257  0.2083
  126loPI    C2 2002  12.957   2.388  10.605  0.0028  0.1831 -0.0222
  126loPI    C3 2003  13.035   2.426  10.996 -0.3459 -0.1273  0.0832
  126loPI   PO4 2004  12.904   2.899  10.615 -0.1636  0.0973  0.0214
  126loPI   GL1 2005  12.601   2.821  10.365  0.0622  0.0662  0.0121
  126loPI   GL2 2006  12.437   3.058  10.476  0.1306  0.0504 -0.0570
  126loPI   C1A 2007  12.680   2.971   9.938  0.0463 -0.0657 -0.2844
  126loPI   C2A 2008  12.584   3.091   9.507  0.3702 -0.2826 -0.2530
  126loPI   C3A 2009  12.488   3.202   9.063  0.1015  0.0476  0.2322
  126loPI   C4A 2010  12.328   3.226   8.618 -0.0816  0.1544  0.1080
  126loPI   C5A 2011  11.952   3.250   8.499  0.0231 -0.0753  0.0863
  126loPI   C6A 2012  11.693   3.559   8.312 -0.0087 -0.1611 -0.1399
  126loPI   C1B 2013  12.481   3.357  10.181  0.2874  0.2449  0.2554
  126loPI   C2B 2014  12.326   3.418   9.739  0.0425  0.0821  0.1657
  126loPI   C3B 2015  12.237   3.603   9.323  0.0638  0.0924 -0.2187
  126loPI   C4B 2016  12.125   3.582   8.920  0.2498 -0.0682 -0.3606
  127loPI    C1 2017   0.623  16.182  10.564  0.0376 -0.1278 -0.1377
  127loPI    C2 2018   0.485  15.883  10.792 -0.2275  0.2720  0.2431
  127loPI    C3 2019   0.818  16.078  10.898  0.0848 -0.0380 -0.1371
  127loPI   PO4 2020   0.607  16.104  10.338  0.1447 -0.0348 -0.1865
  127loPI   GL1 2021   0.306  16.042  10.065 -0.1834  0.4434  0.0511
  127loPI   GL2 2022   0.425  16.293   9.874 -0.1839 -0.0961  0.1296
  127loPI   C1A 2023   0.514  15.881   9.632 -0.0347 -0.1785  0.2121
  127loPI   C2A 2024   0.569  15.660   9.257  0.1625 -0.3525  0.0503
  127loPI   C3A 2025   0.344  15.634   8.903 -0.1067 -0.1469  0.0795
  127loPI   C4A 2026   0.287  15.674   8.503 -0.0399 -0.2528  0.1975
  127loPI   C5A 2027   0.299  15.834   8.071 -0.1503 -0.0824  0.1786
  127loPI   C6A 2028   0.564  15.525   7.830 -0.1161  0.1105  0.1840
  127loPI   C1B 2029   0.355  16.347   9.499  0.1162  0.0090 -0.0875
  127loPI   C2B 2030   0.345  16.543   9.101  0.1535 -0.0676 -0.0516
  127loPI   C3B 2031   0.210  16.731   8.657 -0.2410 -0.0197 -0.1338
  127loPI   C4B 2032  -0.007  16.651   8.258  0.1059 -0.0824  0.0903
  128loPI    C1 2033   5.343   6.535  11.320  0.0766  0.0459  0.2873
  128loPI    C2 2034   5.471   6.156  11.312  0.0412  0.0364  0.1381
  128loPI    C3 2035   5.713   6.446  11.444  0.0286 -0.0525  0.3607
  128loPI   PO4 2036   5.214   6.506  11.018  0.1927  0.0313 -0.1905
  128loPI   GL1 2037   5.242   6.495  10.624  0.1669 -0.2846 -0.0360
  128loPI   GL2 2038   4.959   6.589  10.584 -0.0337 -0.3531  0.0029
  128loPI   C1A 2039   5.553   6.565  10.349  0.0719  0.0781 -0.0426
  128loPI   C2A 2040   5.703   6.632   9.863  0.1523 -0.1370  0.0998
  128loPI   C3A 2041   5.712   6.577   9.378  0.1677  0.3589 -0.2554
  128loPI   C4A 2042   5.795   6.431   8.944 -0.2142 -0.4251  0.0374
  128loPI   C5A 2043   5.951   6.104   8.699 -0.1225  0.3133  0.1273
  128loPI   C6A 2044   6.248   5.806   8.812 -0.0485  0.0458  0.0915
  128loPI   C1B 2045   5.006   6.545  10.182 -0.0439  0.1954 -0.1739
  128loPI   C2B 2046   5.183   6.521   9.829 -0.1249 -0.2922 -0.0260
  128loPI   C3B 2047   5.112   6.506   9.385  0.1185 -0.3492 -0.0627
  128loPI   C4B 2048   5.080   6.552   8.911 -0.0518  0.1326 -0.4307
  129loPI    C1 2049   5.282  14.962  11.039 -0.0096 -0.2124  0.0877
  129loPI    C2 2050   5.597  14.911  11.280  0.1503  0.1167 -0.0453
  129loPI    C3 2051   5.325  15.192  11.363  0.0107 -0.0141 -0.0543
  129loPI   PO4 2052   5.348  14.944  10.708  0.2261  0.3236  0.1056
  129loPI   GL1 2053   5.381  15.056  10.408  0.2308  0.0546  0.2334
  129loPI   GL2 2054   5.141  15.134  10.178 -0.1615 -0.2165 -0.1817
  129loPI   C1A 2055   5.580  15.060  10.011  0.3334 -0.1835 -0.1487
  129loPI   C2A 2056   5.636  15.083   9.556  0.1001 -0.0332 -0.1589
  129loPI   C3A 2057   5.786  15.117   9.105 -0.0078  0.1653  0.1270
  129loPI   C4A 2058   5.727  15.097   8.726  0.0820  0.0047  0.2699
  129loPI   C5A 2059   5.630  15.043   8.340 -0.0717  0.0202 -0.2156
  129loPI   C6A 2060   5.445  14.823   8.055  0.0340  0.3127 -0.4289
  129loPI   C1B 2061   5.039  15.101   9.696 -0.1657  0.0053  0.0692
  129loPI   C2B 2062   5.169  15.035   9.277  0.2932 -0.1968  0.0179
  129loPI   C3B 2063   5.247  15.121   8.912 -0.2909 -0.1899  0.1514
  129loPI   C4B 2064   5.139  15.093   8.446  0.3476 -0.0786 -0.0719
  130loPI    C1 2065  10.725  13.390  10.808  0.0229  0.0628  0.0495
  130loPI    C2 2066  10.418  13.534  11.019 -0.0269 -0.4295  0.3287
  130loPI    C3 2067  10.771  13.723  11.024 -0.3476  0.2161 -0.1005
  130loPI   PO4 2068  10.497  13.291  10.574  0.0131  0.0112 -0.1249
  130loPI   GL1 2069  10.656  13.324  10.074  0.1818  0.0984 -0.0635
  130loPI   GL2 2070  10.733  12.953  10.029  0.0190 -0.0413  0.1686
  130loPI   C1A 2071  10.974  13.403   9.722 -0.0835 -0.0136 -0.2553
  130loPI   C2A 2072  10.840  13.357   9.316 -0.0946 -0.0304  0.2069
  130loPI   C3A 2073  10.724  13.345   9.014  0.1996 -0.1199  0.2456
  130loPI   C4A 2074  10.900  13.119   8.656 -0.2370  0.1560  0.0302
  130loPI   C5A 2075  10.980  12.751   8.436 -0.3007  0.0556  0.1681
  130loPI   C6A 2076  10.962  12.274   8.503  0.0308  0.1212 -0.5162
  130loPI   C1B 2077  10.451  13.146   9.695 -0.1574 -0.2135  0.4494
  130loPI   C2B 2078  10.326  13.399   9.309  0.0355 -0.1224 -0.0129
  130loPI   C3B 2079  10.117  13.649   8.915 -0.0417  0.0700 -0.0884
  130loPI   C4B 2080   9.712  13.381   8.685  0.1286  0.1863  0.1218
  131loPI    C1 2081  12.199  15.325  11.304 -0.0490  0.0601  0.0604
  131loPI    C2 2082  12.113  15.671  11.486  0.0698  0.0798  0.0802
  131loPI    C3 2083  12.153  15.337  11.701  0.2456  0.1096  0.0959
  131loPI   PO4 2084  12.087  15.321  11.080  0.0788 -0.2286 -0.0175
  131loPI   GL1 2085  11.987  15.252  10.692  0.0269  0.1849 -0.0448
  131loPI   GL2 2086  11.850  15.569  10.611 -0.1879  0.0985  0.1056
  131loPI   C1A 2087  12.208  15.262  10.358  0.1576 -0.2937 -0.2080
  131loPI   C2A 2088  12.182  15.303   9.957  0.0667  0.0255 -0.1083
  131loPI   C3A 2089  12.171  15.324   9.590  0.2231 -0.1022  0.0126
  131loPI   C4A 2090  12.191  15.353   9.106  0.0546  0.0418 -0.1415
  131loPI   C5A 2091  12.094  15.275   8.650 -0.1586  0.0373  0.0872
  131loPI   C6A 2092  12.245  15.574   8.358 -0.0087 -0.2406  0.1866
  131loPI   C1B 2093  11.713  15.336  10.196  0.1031  0.2403 -0.0562
  131loPI   C2B 2094  11.681  15.231   9.761 -0.2148  0.0849 -0.3485
  131loPI   C3B 2095  11.685  15.356   9.288  0.2011 -0.1592 -0.0500
  131loPI   C4B 2096  11.665  15.254   8.953 -0.1644 -0.1316  0.1697
  132loPI    C1 2097   4.787   7.764  11.341 -0.1586 -0.1969  0.0952
  132loPI    C2 2098   4.911   7.457  11.566  0.0613 -0.2092 -0.0393
  132loPI    C3 2099   4.896   7.826  11.720 -0.0362 -0.2583  0.0705
  132loPI   PO4 2100   4.808   7.585  11.056 -0.1127 -0.0550 -0.4406
  132loPI   GL1 2101   4.693   7.786  10.741 -0.0602  0.1900 -0.0106
  132loPI   GL2 2102   4.838   7.857  10.603  0.3486  0.3348  0.5508
  132loPI   C1A 2103   4.414   7.452  10.545  0.1349 -0.1121 -0.2423
  132loPI   C2A 2104   4.415   7.320  10.088  0.2761  0.1393 -0.2475
  132loPI   C3A 2105   4.507   7.289   9.718  0.0697 -0.0401 -0.1544
  132loPI   C4A 2106   4.577   7.362   9.362  0.0826  0.0243 -0.2407
  132loPI   C5A 2107   4.470   7.343   8.899 -0.1575 -0.1953 -0.1082
  132loPI   C6A 2108   4.296   7.692   8.789  0.0769 -0.0972  0.0835
  132loPI   C1B 2109   4.690   7.759  10.207  0.3057 -0.0404  0.2671
  132loPI   C2B 2110   4.648   7.796   9.800 -0.2292 -0.0218 -0.2120
  132loPI   C3B 2111   4.774   7.803   9.447 -0.4414 -0.3036 -0.0549
  132loPI   C4B 2112   4.769   7.832   9.024 -0.2025  0.2473  0.0840
  133loPI    C1 2113   3.091   8.968  11.223  0.2743 -0.4235  0.2773
  133loPI    C2 2114   2.862   8.858  11.533 -0.1421  0.1796  0.2024
  133loPI    C3 2115   3.139   9.143  11.580 -0.0532  0.1164  0.0695
  133loPI   PO4 2116   3.201   8.744  11.184 -0.1204 -0.1902 -0.2660
  133loPI   GL1 2117   3.339   8.597  10.819 -0.2336  0.1761 -0.0823
  133loPI   GL2 2118   3.534   8.678  10.583 -0.1154  0.0085  0.0136
  133loPI   C1A 2119   3.076   8.636  10.371  0.0674  0.0446  0.1192
  133loPI   C2A 2120   2.978   8.653   9.927 -0.2721 -0.2985 -0.0960
  133loPI   C3A 2121   3.085   8.683   9.500  0.2529  0.0988 -0.1178
  133loPI   C4A 2122   3.059   8.578   9.045 -0.3536  0.0434 -0.0872
  133loPI   C5A 2123   3.232   8.645   8.662 -0.0269  0.0657  0.0683
  133loPI   C6A 2124   3.496   8.439   8.437  0.1612  0.1853 -0.3480
  133loPI   C1B 2125   3.540   8.661  10.130  0.0779 -0.1653 -0.2780
  133loPI   C2B 2126   3.501   8.720   9.732 -0.3607 -0.0411 -0.4551
  133loPI   C3B 2127   3.533   8.707   9.325 -0.0085  0.2362  0.0002
  133loPI   C4B 2128   3.711   8.713   8.993 -0.2919 -0.0142  0.2809
  134loPI    C1 2129  11.695   3.477  10.949  0.1454 -0.0171 -0.0062
  134loPI    C2 2130  11.611   3.722  11.253 -0.3433 -0.1127 -0.0548
  134loPI    C3 2131  11.942   3.498  11.262 -0.1454  0.1808  0.2155
  134loPI   PO4 2132  11.724   3.587  10.802 -0.0722 -0.0830  0.2479
  134loPI   GL1 2133  11.508   3.731  10.450  0.2153  0.0128  0.0722
  134loPI   GL2 2134  11.433   3.371  10.491 -0.0704 -0.0298  0.1206
  134loPI   C1A 2135  11.814   3.961  10.100  0.1281  0.2610 -0.2294
  134loPI   C2A 2136  11.983   3.880   9.697 -0.1202  0.0310  0.0931
  134loPI   C3A 2137  11.879   3.983   9.386  0.3745  0.0871  0.0443
  134loPI   C4A 2138  11.907   4.040   9.022 -0.0738 -0.1035  0.1308
  134loPI   C5A 2139  11.928   4.044   8.620 -0.0218  0.1478 -0.0832
  134loPI   C6A 2140  11.769   4.019   8.176 -0.1538 -0.1339 -0.2144
  134loPI   C1B 2141  11.428   3.206  10.011  0.0070  0.1508  0.0635
  134loPI   C2B 2142  11.587   3.503   9.684 -0.1722  0.3466 -0.0795
  134loPI   C3B 2143  11.748   3.553   9.278  0.3594 -0.1923  0.3084
  134loPI   C4B 2144  11.607   3.542   8.806  0.0880  0.3373 -0.1991
  135loPI    C1 2145   4.066  15.427  10.681 -0.0783  0.1144  0.0049
  135loPI    C2 2146   4.201  15.742  10.886 -0.0488  0.1180 -0.0199
  135loPI    C3 2147   3.819  15.628  10.923 -0.0350  0.0978  0.0628
  135loPI   PO4 2148   4.189  15.463  10.421  0.0138  0.1309 -0.1604
  135loPI   GL1 2149   3.994  15.446  10.003  0.3170  0.0514 -0.0186
  135loPI   GL2 2150   4.069  15.010   9.987 -0.2732 -0.0194 -0.3794
  135loPI   C1A 2151   3.828  15.782   9.728  0.2076  0.0990  0.0365
  135loPI   C2A 2152   3.880  15.910   9.273 -0.2546 -0.2046  0.1306
  135loPI   C3A 2153   4.049  15.907   8.817  0.1496 -0.1130 -0.0193
  135loPI   C4A 2154   4.168  15.993   8.386  0.1325  0.2213  0.3469
  135loPI   C5A 2155   4.457  16.112   8.069 -0.4555 -0.1024 -0.1150
  135loPI   C6A 2156   4.328  16.278   7.610  0.0837 -0.2006 -0.0859
  135loPI   C1B 2157   3.965  14.948   9.579  0.1426 -0.0423 -0.0638
  135loPI   C2B 2158   3.965  14.938   9.173 -0.0615  0.0135 -0.0468
  135loPI   C3B 2159   4.262  15.012   8.829  0.0900 -0.2211 -0.1326
  135loPI   C4B 2160   4.216  15.030   8.359 -0.0502  0.0186 -0.1232
  136loPI    C1 2161  14.556   1.995  10.790 -0.0690 -0.1529 -0.1369
  136loPI    C2 2162  14.420   2.081  11.156  0.2395 -0.0385 -0.0460
  136loPI    C3 2163  14.560   1.715  11.075  0.1928 -0.0569 -0.0437
  136loPI   PO4 2164  14.353   2.018  10.605 -0.0410  0.1050  0.1068
  136loPI   GL1 2165  13.938   1.847  10.402 -0.0458 -0.4331 -0.1165
  136loPI   GL2 2166  13.938   1.542  10.207  0.0641 -0.2866  0.1343
  136loPI   C1A 2167  13.853   1.984  10.019  0.0838 -0.0752 -0.0425
  136loPI   C2A 2168  13.705   1.997   9.530  0.1298  0.1681  0.1650
  136loPI   C3A 2169  13.496   1.973   9.172  0.1008  0.0971  0.0495
  136loPI   C4A 2170  13.387   1.973   8.736 -0.0541 -0.1777 -0.1129
  136loPI   C5A 2171  13.178   2.229   8.484  0.1538 -0.1665 -0.0442
  136loPI   C6A 2172  13.171   2.612   8.488 -0.1206 -0.0898 -0.0308
  136loPI   C1B 2173  14.023   1.601   9.738 -0.1935 -0.3890 -0.2887
  136loPI   C2B 2174  13.808   1.590   9.229 -0.3686  0.0234  0.0052
  136loPI   C3B 2175  13.943   1.328   8.935  0.1556  0.2666  0.3654
  136loPI   C4B 2176  14.100   1.084   8.556 -0.1394 -0.0664  0.1323
  137loPI    C1 2177   7.385   0.315  11.150  0.1849  0.0203  0.1011
  137loPI    C2 2178   7.669   0.565  11.279  0.2790 -0.1249  0.1775
  137loPI    C3 2179   7.291   0.610  11.404  0.3164 -0.0895  0.2791
  137loPI   PO4 2180   7.574   0.192  10.995  0.0709  0.2242  0.1622
  137loPI   GL1 2181   7.588   0.248  10.589  0.2869  0.2570 -0.2284
  137loPI   GL2 2182   7.837  -0.010  10.532 -0.0855  0.3733 -0.0904
  137loPI   C1A 2183   7.741   0.410  10.219 -0.0273 -0.1378  0.2147
  137loPI   C2A 2184   7.699   0.379   9.684  0.0082 -0.0370  0.1294
  137loPI   C3A 2185   7.727   0.506   9.339 -0.4890 -0.2255 -0.0145
  137loPI   C4A 2186   7.802   0.509   8.854  0.0768 -0.1001 -0.1956
  137loPI   C5A 2187   7.774   0.528   8.527 -0.1033  0.0889 -0.2924
  137loPI   C6A 2188   7.594   0.387   8.085  0.0268  0.1403  0.1746
  137loPI   C1B 2189   8.018  -0.068  10.129  0.0884  0.2045  0.0112
  137loPI   C2B 2190   8.070   0.002   9.724  0.1025 -0.1287 -0.0072
  137loPI   C3B 2191   7.978   0.069   9.272  0.0891 -0.1129  0.0915
  137loPI   C4B 2192   8.037   0.117   8.796 -0.0039  0.2530  0.1012
  138loPI    C1 2193  13.007  17.022  10.908 -0.0197  0.0930  0.0921
  138loPI    C2 2194  12.744  16.882  11.175 -0.1325 -0.0120 -0.0719
  138loPI    C3 2195  13.119  16.965  11.288 -0.2348  0.1417  0.1644
  138loPI   PO4 2196  12.753  17.192  10.687 -0.0038  0.0726 -0.3351
  138loPI   GL1 2197  12.580  17.263  10.360 -0.0623 -0.0687 -0.0671
  138loPI   GL2 2198  12.864  17.402  10.209 -0.1412 -0.2018 -0.0474
  138loPI   C1A 2199  12.509  17.165   9.876 -0.1158 -0.2994  0.0361
  138loPI   C2A 2200  12.528  17.172   9.464 -0.0479 -0.2897 -0.0312
  138loPI   C3A 2201  12.532  17.138   8.956 -0.2810 -0.1911 -0.1416
  138loPI   C4A 2202  12.470  17.220   8.537 -0.3097 -0.0970  0.0866
  138loPI   C5A 2203  12.691  16.951   8.219 -0.1784 -0.0350 -0.2158
  138loPI   C6A 2204  12.929  16.649   7.819 -0.0656  0.1638 -0.4485
  138loPI   C1B 2205  12.651  17.737   9.968  0.2382 -0.0341  0.3760
  138loPI   C2B 2206  12.643  17.768   9.542 -0.1056 -0.0185 -0.0579
  138loPI   C3B 2207  12.779  17.672   9.108  0.0565 -0.0498  0.0887
  138loPI   C4B 2208  12.910  17.744   8.692 -0.2145  0.3390  0.0058
  139loPI    C1 2209   0.415   1.977  10.911  0.1344 -0.2646  0.0039
  139loPI    C2 2210   0.473   1.812  11.270  0.3100 -0.1537  0.0277
  139loPI    C3 2211   0.601   2.184  11.199  0.1192 -0.1103 -0.0957
  139loPI   PO4 2212   0.545   1.856  10.757 -0.2266 -0.0169  0.2172
  139loPI   GL1 2213   0.633   2.010  10.417 -0.2994  0.1278 -0.0532
  139loPI   GL2 2214   0.454   1.856  10.185  0.1745  0.2000  0.4269
  139loPI   C1A 2215   0.881   1.992  10.083  0.0536  0.0490 -0.2171
  139loPI   C2A 2216   0.900   2.308   9.779  0.0266  0.3531 -0.3278
  139loPI   C3A 2217   1.066   2.600   9.449 -0.0721 -0.4765 -0.1583
  139loPI   C4A 2218   1.184   2.481   9.000 -0.1907  0.2878 -0.0213
  139loPI   C5A 2219   1.329   2.587   8.543 -0.0520 -0.2334 -0.1205
  139loPI   C6A 2220   1.397   2.860   8.198  0.1310 -0.0281  0.2051
  139loPI   C1B 2221   0.674   1.545   9.926  0.1080  0.4619  0.3648
  139loPI   C2B 2222   0.626   1.339   9.568  0.1896 -0.1840 -0.1805
  139loPI   C3B 2223   0.836   1.033   9.256  0.1601  0.0457 -0.1072
  139loPI   C4B 2224   0.989   0.726   8.937  0.0832 -0.0266 -0.0672
  140loPI    C1 2225   7.610   2.975  11.250 -0.0620 -0.0059 -0.2865
  140loPI    C2 2226   7.829   2.998  11.584 -0.1388  0.0786 -0.2416
  140loPI    C3 2227   7.560   3.282  11.501 -0.2996 -0.0738 -0.2483
  140loPI   PO4 2228   7.783   2.916  11.046 -0.0693  0.0631 -0.4913
  140loPI   GL1 2229   7.773   2.865  10.649 -0.2886 -0.0252 -0.0654
  140loPI   GL2 2230   7.853   2.618  10.455 -0.5587  0.0600 -0.1102
  140loPI   C1A 2231   8.006   3.035  10.292 -0.0534 -0.1479  0.0550
  140loPI   C2A 2232   7.994   3.169   9.824 -0.0594  0.2239 -0.0080
  140loPI   C3A 2233   8.077   3.161   9.504 -0.1655  0.2201 -0.0018
  140loPI   C4A 2234   8.072   3.258   9.087 -0.1268  0.0053  0.2331
  140loPI   C5A 2235   7.970   3.279   8.672 -0.0408  0.4797 -0.0181
  140loPI   C6A 2236   8.045   2.964   8.251  0.3661  0.3548  0.1161
  140loPI   C1B 2237   7.800   2.635   9.962  0.3297  0.0681  0.2746
  140loPI   C2B 2238   7.827   2.717   9.603 -0.1743 -0.0126  0.2417
  140loPI   C3B 2239   7.828   2.752   9.080  0.0111 -0.0315 -0.0377
  140loPI   C4B 2240   7.691   2.817   8.666 -0.0408 -0.0863  0.1201
  141loPI    C1 2241   7.137   9.152  10.955  0.0499  0.1593  0.1983
  141loPI    C2 2242   7.256   9.121  11.335  0.0113 -0.0144  0.1966
  141loPI    C3 2243   6.865   9.133  11.248  0.0216  0.1453  0.1712
  141loPI   PO4 2244   7.376   8.944  10.867  0.1802  0.2218  0.2431
  141loPI   GL1 2245   7.491   8.955  10.440 -0.0852 -0.2866 -0.0451
  141loPI   GL2 2246   7.226   9.179  10.436  0.1605 -0.1642  0.1826
  141loPI   C1A 2247   7.713   9.024  10.081  0.1447  0.0403 -0.3044
  141loPI   C2A 2248   7.800   9.076   9.635 -0.0235  0.1729  0.1067
  141loPI   C3A 2249   7.784   9.005   9.180 -0.3025 -0.1719  0.0267
  141loPI   C4A 2250   7.802   9.092   8.774  0.0459 -0.1037  0.0448
  141loPI   C5A 2251   8.042   9.096   8.422 -0.2792 -0.2874  0.2838
  141loPI   C6A 2252   8.274   8.733   8.370 -0.0981  0.1884  0.4006
  141loPI   C1B 2253   7.183   9.029   9.980  0.0390  0.0788  0.0695
  141loPI   C2B 2254   7.297   8.939   9.541  0.4407  0.0607 -0.2834
  141loPI   C3B 2255   7.282   9.042   9.078 -0.1262  0.0939 -0.1762
  141loPI   C4B 2256   7.207   8.989   8.666 -0.0046  0.3627  0.0846
  142loPI    C1 2257   7.463  17.154  11.014 -0.0541  0.0913  0.0248
  142loPI    C2 2258   7.498  17.017  11.389 -0.0640  0.1549  0.0491
  142loPI    C3 2259   7.136  17.062  11.226 -0.0543 -0.0180 -0.0223
  142loPI   PO4 2260   7.610  17.257  10.919  0.0712 -0.0138  0.0939
  142loPI   GL1 2261   7.910  17.227  10.469  0.0010 -0.1766  0.0063
  142loPI   GL2 2262   8.190  17.450  10.422 -0.2073  0.2095 -0.0237
  142loPI   C1A 2263   7.692  17.133  10.086  0.0698 -0.0507 -0.1695
  142loPI   C2A 2264   7.541  16.975   9.737 -0.1191 -0.4274  0.5319
  142loPI   C3A 2265   7.478  17.117   9.276  0.1254 -0.2048  0.2451
  142loPI   C4A 2266   7.483  17.104   8.785 -0.0339  0.1559 -0.0625
  142loPI   C5A 2267   7.817  17.091   8.337  0.0259 -0.1259 -0.1992
  142loPI   C6A 2268   8.272  17.075   8.307 -0.0976  0.2433 -0.1175
  142loPI   C1B 2269   8.248  17.522   9.873 -0.1271 -0.1345  0.0058
  142loPI   C2B 2270   8.336  17.614   9.469 -0.0289 -0.0394 -0.2242
  142loPI   C3B 2271   8.351  17.672   9.052 -0.0873  0.0206 -0.0995
  142loPI   C4B 2272   8.319  17.717   8.597 -0.1772 -0.1909 -0.4125
  143loPI    C1 2273   0.487   6.447  11.140 -0.0064  0.0656  0.2248
  143loPI    C2 2274   0.397   6.077  11.263 -0.2803  0.1263  0.2123
  143loPI    C3 2275   0.755   6.235  11.348 -0.0202 -0.2785 -0.0984
  143loPI   PO4 2276   0.407   6.477  10.949  0.1793  0.2844 -0.0543
  143loPI   GL1 2277   0.593   6.364  10.501 -0.1245 -0.0400 -0.0497
  143loPI   GL2 2278   0.310   6.345  10.388 -0.0419  0.1808  0.5876
  143loPI   C1A 2279   0.812   6.590  10.178  0.0101 -0.2863  0.1368
  143loPI   C2A 2280   1.112   6.637   9.811 -0.2901  0.3010 -0.1887
  143loPI   C3A 2281   1.096   6.513   9.372 -0.3236 -0.0891  0.0356
  143loPI   C4A 2282   1.259   6.626   8.972 -0.4076  0.2982 -0.2602
  143loPI   C5A 2283   1.230   6.506   8.494 -0.2123  0.2392  0.1626
  143loPI   C6A 2284   0.837   6.520   8.116  0.0556 -0.0211 -0.1134
  143loPI   C1B 2285   0.315   6.131   9.984 -0.0855 -0.1878 -0.0603
  143loPI   C2B 2286   0.299   6.025   9.595 -0.1471 -0.2401  0.0796
  143loPI   C3B 2287   0.380   6.112   9.125 -0.2294 -0.1972  0.1940
  143loPI   C4B 2288   0.605   5.854   8.822  0.1074  0.2944  0.4321
  144loPI    C1 2289  10.831  17.383  10.856 -0.1667 -0.3697  0.1329
  144loPI    C2 2290  10.656  17.639  11.109 -0.1185 -0.1976 -0.0052
  144loPI    C3 2291  10.890  17.346  11.250 -0.0115 -0.0430  0.1443
  144loPI   PO4 2292  10.948  17.495  10.664  0.2307  0.1169 -0.0704
  144loPI   GL1 2293  10.983  17.593  10.244 -0.0214  0.1288  0.0823
  144loPI   GL2 2294  10.700  17.770  10.299  0.2310 -0.0973 -0.1510
  144loPI   C1A 2295  11.202  17.534   9.849  0.1828 -0.2005  0.3289
  144loPI   C2A 2296  11.181  17.433   9.413  0.2399  0.2321  0.1067
  144loPI   C3A 2297  11.163  17.366   8.920  0.0689  0.0436  0.2028
  144loPI   C4A 2298  11.370  17.483   8.495  0.0222  0.5311 -0.0771
  144loPI   C5A 2299  11.408  17.744   8.153 -0.0380 -0.0039 -0.2150
  144loPI   C6A 2300  11.301  17.832   7.700  0.1483  0.0681 -0.4291
  144loPI   C1B 2301  10.402  17.808   9.980 -0.0774 -0.3268  0.4030
  144loPI   C2B 2302  10.323  17.817   9.527  0.0321  0.0729  0.1208
  144loPI   C3B 2303  10.353  17.853   9.182  0.1365  0.2635 -0.1400
  144loPI   C4B 2304  10.329  17.799   8.730  0.1402  0.0730  0.0659
  145loPI    C1 2305   6.816  14.269  11.082 -0.1279 -0.0770 -0.1153
  145loPI    C2 2306   7.133  14.120  11.274 -0.3356 -0.3921 -0.0077
  145loPI    C3 2307   6.883  14.367  11.464 -0.1253 -0.0920 -0.1119
  145loPI   PO4 2308   6.926  14.290  10.783 -0.1108  0.0580  0.1759
  145loPI   GL1 2309   6.833  13.906  10.450 -0.0288 -0.2663 -0.0900
  145loPI   GL2 2310   7.089  14.198  10.291  0.0018  0.3924 -0.0524
  145loPI   C1A 2311   6.559  13.934  10.119  0.1296 -0.0059  0.0047
  145loPI   C2A 2312   6.517  13.879   9.604  0.0365  0.0738 -0.1824
  145loPI   C3A 2313   6.490  13.870   9.177 -0.0291  0.0514  0.2000
  145loPI   C4A 2314   6.637  13.799   8.846 -0.1042  0.0491  0.0160
  145loPI   C5A 2315   6.708  13.763   8.410 -0.0959  0.2966  0.1411
  145loPI   C6A 2316   6.552  13.344   8.153  0.2361 -0.1144 -0.1636
  145loPI   C1B 2317   6.873  14.247   9.916 -0.0458 -0.0361 -0.0661
  145loPI   C2B 2318   6.726  14.297   9.420  0.0526  0.0054 -0.0914
  145loPI   C3B 2319   6.867  14.217   8.986  0.0785 -0.0985  0.4179
  145loPI   C4B 2320   6.840  14.198   8.547  0.3091 -0.1349 -0.1341
  146loPI    C1 2321   2.642   5.356  11.191 -0.0123  0.3176 -0.0028
  146loPI    C2 2322   2.448   5.687  11.078 -0.2501  0.1437 -0.1107
  146loPI    C3 2323   2.343   5.498  11.415 -0.2985  0.0258 -0.1910
  146loPI   PO4 2324   2.670   5.277  10.909 -0.0482  0.0494 -0.1013
  146loPI   GL1 2325   3.034   5.371  10.678  0.1306  0.1670 -0.0769
  146loPI   GL2 2326   2.882   5.348  10.463 -0.2340  0.0118  0.0857
  146loPI   C1A 2327   3.448   5.501  10.433  0.2199  0.2492  0.0653
  146loPI   C2A 2328   3.553   5.475  10.014  0.1430  0.0901  0.2324
  146loPI   C3A 2329   3.636   5.589   9.599 -0.2997  0.0095  0.1003
  146loPI   C4A 2330   3.731   5.497   9.162 -0.2686 -0.2918 -0.0966
  146loPI   C5A 2331   3.834   5.575   8.747 -0.1534  0.0273  0.0406
  146loPI   C6A 2332   4.142   5.476   8.499 -0.2416 -0.0175  0.0379
  146loPI   C1B 2333   3.057   5.342  10.013  0.1082  0.1446 -0.0169
  146loPI   C2B 2334   3.097   5.384   9.607  0.1487  0.0472  0.0922
  146loPI   C3B 2335   3.095   5.361   9.265 -0.1661 -0.2219 -0.2473
  146loPI   C4B 2336   3.267   5.375   8.910  0.0694  0.0557  0.1750
  147loPI    C1 2337   8.911   9.399  10.824  0.2513 -0.1530 -0.0416
  147loPI    C2 2338   9.027   9.159  10.525  0.1236 -0.3175  0.0398
  147loPI    C3 2339   9.011   9.020  10.900  0.1504 -0.1512  0.1037
  147loPI   PO4 2340   8.758   9.569  10.689  0.1293  0.1842  0.0709
  147loPI   GL1 2341   8.706   9.549  10.331 -0.4378  0.2400 -0.2156
  147loPI   GL2 2342   8.424   9.519  10.145  0.0387  0.2097 -0.0776
  147loPI   C1A 2343   9.077   9.584  10.043 -0.2109 -0.0446  0.2691
  147loPI   C2A 2344   9.193   9.722   9.537  0.1961  0.0499 -0.0403
  147loPI   C3A 2345   9.060   9.705   9.119  0.2975  0.0454 -0.3767
  147loPI   C4A 2346   9.210   9.553   8.676 -0.1444  0.0985  0.3627
  147loPI   C5A 2347   9.365   9.800   8.298 -0.1483  0.1073 -0.1480
  147loPI   C6A 2348   9.533   9.900   7.912  0.1940  0.1531  0.0633
  147loPI   C1B 2349   8.575   9.572   9.781  0.0454  0.2306 -0.2449
  147loPI   C2B 2350   8.566   9.561   9.303  0.0563 -0.0465  0.0517
  147loPI   C3B 2351   8.672   9.530   8.851  0.0664  0.0106 -0.2148
  147loPI   C4B 2352   8.453   9.499   8.514  0.0093 -0.2141  0.1465
  148loPI    C1 2353  13.211  13.915  10.970  0.0064  0.0085  0.1069
  148loPI    C2 2354  13.576  13.767  11.041  0.0165  0.0683  0.1799
  148loPI    C3 2355  13.409  14.024  11.299 -0.0331  0.1243  0.0928
  148loPI   PO4 2356  13.216  14.008  10.724  0.0735 -0.0529 -0.1776
  148loPI   GL1 2357  13.029  14.138  10.325  0.5109  0.0258 -0.1995
  148loPI   GL2 2358  12.725  13.953  10.273 -0.4919  0.1407  0.2411
  148loPI   C1A 2359  13.167  14.131   9.884 -0.1030 -0.2834 -0.0739
  148loPI   C2A 2360  13.263  14.123   9.455  0.0861 -0.0174  0.2850
  148loPI   C3A 2361  13.168  14.110   8.980  0.0403  0.0527 -0.2649
  148loPI   C4A 2362  12.976  14.107   8.590  0.0721 -0.2745  0.0477
  148loPI   C5A 2363  12.835  14.302   8.175 -0.1097  0.0854  0.0851
  148loPI   C6A 2364  12.623  14.439   7.857 -0.0292  0.2145  0.0092
  148loPI   C1B 2365  12.630  14.106   9.900  0.2011  0.4211  0.2141
  148loPI   C2B 2366  12.747  13.949   9.498  0.1469 -0.0759  0.1492
  148loPI   C3B 2367  12.660  13.976   9.115  0.1021  0.1138 -0.1530
  148loPI   C4B 2368  12.510  14.012   8.700  0.1648  0.0835 -0.0005
  149loPI    C1 2369  10.574  11.508  11.047  0.2214  0.0613  0.0699
  149loPI    C2 2370  10.398  11.861  10.984 -0.1125 -0.1578 -0.2651
  149loPI    C3 2371  10.357  11.678  11.337  0.2227  0.2199 -0.0213
  149loPI   PO4 2372  10.515  11.351  10.906 -0.2321  0.4100  0.2276
  149loPI   GL1 2373  10.269  11.263  10.571 -0.1037 -0.2236  0.0161
  149loPI   GL2 2374   9.977  11.098  10.541 -0.1699 -0.0968  0.0453
  149loPI   C1A 2375  10.395  11.092  10.267 -0.0770 -0.0616  0.5776
  149loPI   C2A 2376  10.425  11.027   9.840 -0.0302 -0.0735 -0.2169
  149loPI   C3A 2377  10.317  11.132   9.436  0.1791  0.0860  0.2477
  149loPI   C4A 2378  10.219  11.213   8.977 -0.3008 -0.1328  0.4516
  149loPI   C5A 2379   9.960  11.337   8.673 -0.1725  0.0614  0.0532
  149loPI   C6A 2380   9.640  11.158   8.504  0.3164 -0.0283  0.1697
  149loPI   C1B 2381   9.775  10.954  10.270  0.3336  0.2107 -0.1824
  149loPI   C2B 2382   9.830  11.013   9.889  0.1076 -0.1752  0.2991
  149loPI   C3B 2383   9.790  11.031   9.401 -0.1781  0.0746  0.2359
  149loPI   C4B 2384   9.738  11.073   9.004 -0.1303  0.1461 -0.0940
  150loPI    C1 2385   9.387   4.369  11.190 -0.0502 -0.1392  0.0516
  150loPI    C2 2386   9.598   4.681  11.323 -0.0624  0.0235 -0.2983
  150loPI    C3 2387   9.641   4.323  11.495  0.0672  0.1814  0.0060
  150loPI   PO4 2388   9.485   4.372  10.912 -0.2826  0.2295 -0.0655
  150loPI   GL1 2389   9.490   4.366  10.467  0.0177  0.1028 -0.0579
  150loPI   GL2 2390   9.610   4.652  10.374 -0.3198  0.3614  0.0139
  150loPI   C1A 2391   9.501   4.162  10.043  0.0557  0.0254 -0.1431
  150loPI   C2A 2392   9.442   4.152   9.691 -0.4804  0.4900  0.1719
  150loPI   C3A 2393   9.598   4.214   9.258 -0.0606  0.1617  0.1559
  150loPI   C4A 2394   9.552   4.267   8.814 -0.2473 -0.1018  0.1024
  150loPI   C5A 2395   9.603   4.234   8.337 -0.0579  0.0633  0.0279
  150loPI   C6A 2396   9.515   4.160   7.892 -0.3865 -0.0786 -0.3037
  150loPI   C1B 2397   9.685   4.622   9.938  0.1274  0.1652  0.3899
  150loPI   C2B 2398   9.751   4.699   9.406  0.0624  0.0490  0.1361
  150loPI   C3B 2399   9.705   4.761   8.987 -0.2749 -0.0489  0.2777
  150loPI   C4B 2400   9.800   4.764   8.457  0.0401 -0.0875  0.0739
  151loPI    C1 2401   8.788   6.269  11.163 -0.0141 -0.1256  0.1270
  151loPI    C2 2402   8.921   6.552  11.413 -0.0007 -0.1867  0.1890
  151loPI    C3 2403   9.180   6.301  11.239 -0.0095 -0.1408  0.1094
  151loPI   PO4 2404   8.664   6.358  11.022  0.1227  0.0575  0.3253
  151loPI   GL1 2405   8.608   6.407  10.530  0.2023 -0.2530  0.3177
  151loPI   GL2 2406   8.949   6.467  10.445  0.0615  0.1232  0.0798
  151loPI   C1A 2407   8.511   6.322  10.029 -0.1136  0.2878 -0.0659
  151loPI   C2A 2408   8.579   6.381   9.614  0.5487 -0.1418  0.1399
  151loPI   C3A 2409   8.578   6.390   9.216  0.2062  0.1600 -0.0346
  151loPI   C4A 2410   8.529   6.353   8.820 -0.0681  0.0199 -0.1335
  151loPI   C5A 2411   8.224   6.239   8.527  0.0037  0.3496 -0.0565
  151loPI   C6A 2412   7.956   6.260   8.141 -0.0854  0.0379 -0.2319
  151loPI   C1B 2413   8.978   6.379  10.021  0.1922  0.1109  0.3095
  151loPI   C2B 2414   9.033   6.411   9.537 -0.2338 -0.2003 -0.1551
  151loPI   C3B 2415   9.037   6.474   9.076  0.0848  0.0985  0.3302
  151loPI   C4B 2416   9.009   6.589   8.618 -0.0304 -0.2400 -0.1324
  152loPI    C1 2417   6.147   4.945  11.131  0.1308  0.0535 -0.0538
  152loPI    C2 2418   6.500   4.799  11.251  0.0285 -0.1730 -0.0230
  152loPI    C3 2419   6.195   4.822  11.509 -0.0058 -0.0616 -0.0729
  152loPI   PO4 2420   6.253   5.143  10.980 -0.4377  0.0533  0.1675
  152loPI   GL1 2421   6.301   5.136  10.569 -0.0851  0.0221 -0.2426
  152loPI   GL2 2422   6.497   5.415  10.469  0.0829  0.0355  0.2587
  152loPI   C1A 2423   6.282   4.885  10.212  0.2428 -0.2395  0.0180
  152loPI   C2A 2424   6.292   4.881   9.754 -0.2160 -0.1967  0.0269
  152loPI   C3A 2425   6.314   4.870   9.396  0.4394 -0.1871  0.0017
  152loPI   C4A 2426   6.315   4.780   8.976  0.0138  0.4116  0.0846
  152loPI   C5A 2427   6.538   4.933   8.586  0.2080  0.1260 -0.0043
  152loPI   C6A 2428   6.888   5.193   8.478  0.2091  0.0631 -0.1015
  152loPI   C1B 2429   6.486   5.329  10.059 -0.1244  0.1515 -0.1996
  152loPI   C2B 2430   6.519   5.283   9.526  0.1305 -0.1065  0.0477
  152loPI   C3B 2431   6.626   5.279   9.085  0.3071 -0.0088 -0.0329
  152loPI   C4B 2432   6.438   5.371   8.674  0.2324 -0.1026 -0.0393
  153loPI    C1 2433   8.382   7.841  11.268  0.1621  0.2572 -0.0849
  153loPI    C2 2434   8.629   8.153  11.231  0.0493  0.3599  0.0203
  153loPI    C3 2435   8.277   8.197  11.415  0.0078  0.1837 -0.0149
  153loPI   PO4 2436   8.359   7.757  11.093 -0.1506 -0.2277 -0.1155
  153loPI   GL1 2437   8.333   7.627  10.705 -0.1739 -0.0051  0.1224
  153loPI   GL2 2438   8.730   7.550  10.785  0.0519 -0.0943 -0.1157
  153loPI   C1A 2439   8.132   7.561  10.310 -0.0085  0.3385 -0.1306
  153loPI   C2A 2440   8.138   7.722   9.930 -0.0949 -0.0280 -0.1026
  153loPI   C3A 2441   8.118   7.718   9.486 -0.1543  0.2345  0.1235
  153loPI   C4A 2442   8.142   7.759   9.054  0.2537 -0.1191  0.2235
  153loPI   C5A 2443   8.045   7.774   8.673  0.2472  0.0551  0.0916
  153loPI   C6A 2444   7.832   7.712   8.329  0.0341 -0.0969 -0.1263
  153loPI   C1B 2445   8.658   7.728  10.364  0.0010 -0.0635 -0.0001
  153loPI   C2B 2446   8.612   7.711   9.911  0.1464 -0.0156  0.0229
  153loPI   C3B 2447   8.651   7.710   9.504 -0.0692  0.0612 -0.2488
  153loPI   C4B 2448   8.702   7.787   9.077  0.1450 -0.1902 -0.0539
  154loPI    C1 2449   4.363   2.089  10.876  0.0259  0.1089 -0.1043
  154loPI    C2 2450   4.067   1.918  10.668 -0.1182  0.1153  0.0934
  154loPI    C3 2451   4.083   1.877  11.066  0.2113  0.0200  0.0734
  154loPI   PO4 2452   4.409   2.299  10.676  0.3472  0.0404  0.1561
  154loPI   GL1 2453   4.290   2.367  10.264  0.0674 -0.1270 -0.2690
  154loPI   GL2 2454   4.609   2.310  10.226 -0.1696  0.0797 -0.2603
  154loPI   C1A 2455   4.000   2.419   9.920 -0.0294  0.3830 -0.2370
  154loPI   C2A 2456   4.124   2.419   9.478  0.0744 -0.2917  0.2904
  154loPI   C3A 2457   4.188   2.336   9.000  0.1219  0.0212  0.0667
  154loPI   C4A 2458   4.369   2.515   8.584  0.1242  0.0797  0.0339
  154loPI   C5A 2459   4.715   2.591   8.225  0.5079  0.3328  0.1166
  154loPI   C6A 2460   4.980   2.415   7.960  0.2957 -0.1671  0.1512
  154loPI   C1B 2461   4.586   2.409   9.813 -0.0815 -0.0722  0.3063
  154loPI   C2B 2462   4.621   2.436   9.361  0.0008 -0.1566  0.1165
  154loPI   C3B 2463   4.681   2.431   8.998 -0.0655  0.1743 -0.0676
  154loPI   C4B 2464   4.916   2.272   8.586 -0.1301  0.2007  0.3569
  155loPI    C1 2465   6.234   6.067  11.369 -0.0941  0.0448  0.0967
  155loPI    C2 2466   6.238   6.240  11.729  0.2104  0.0771  0.0804
  155loPI    C3 2467   6.526   5.982  11.628 -0.0381 -0.1613 -0.0321
  155loPI   PO4 2468   6.100   6.178  11.250 -0.0573 -0.1274  0.2458
  155loPI   GL1 2469   5.989   6.517  11.026 -0.1158 -0.1219  0.2034
  155loPI   GL2 2470   5.691   6.400  10.899 -0.3566 -0.2518 -0.3178
  155loPI   C1A 2471   6.017   6.696  10.632 -0.0901  0.3548  0.1317
  155loPI   C2A 2472   6.085   6.670  10.171 -0.0461  0.0620 -0.2846
  155loPI   C3A 2473   6.176   6.663   9.727  0.2452 -0.1834  0.3421
  155loPI   C4A 2474   6.187   6.526   9.292  0.0942  0.1558  0.0536
  155loPI   C5A 2475   6.275   6.391   8.875  0.1584  0.0420 -0.0999
  155loPI   C6A 2476   6.458   6.264   8.519  0.1142 -0.2711 -0.0113
  155loPI   C1B 2477   5.708   6.100  10.565  0.2460  0.2595 -0.3197
  155loPI   C2B 2478   5.868   6.198  10.203 -0.2822  0.1139 -0.3520
  155loPI   C3B 2479   5.890   6.191   9.698 -0.0749 -0.1196 -0.0602
  155loPI   C4B 2480   5.996   6.091   9.302  0.0194 -0.2584  0.1533
  156loPI    C1 2481  17.287  16.978  10.590 -0.3512 -0.2545  0.6007
  156loPI    C2 2482  17.447  17.221  10.865  0.2710  0.0661 -0.0120
  156loPI    C3 2483  17.589  16.850  10.818 -0.0650 -0.1103  0.3108
  156loPI   PO4 2484  17.177  17.063  10.320 -0.2456  0.1694  0.1377
  156loPI   GL1 2485  17.073  16.929  10.027  0.1058  0.2204 -0.0641
  156loPI   GL2 2486  17.242  16.648  10.014  0.0228  0.3402 -0.2317
  156loPI   C1A 2487  16.783  17.055   9.743 -0.1378 -0.0168 -0.2022
  156loPI   C2A 2488  16.342  17.061   9.494 -0.2335  0.1272 -0.0574
  156loPI   C3A 2489  16.063  17.128   9.050 -0.1504  0.0910 -0.3980
  156loPI   C4A 2490  15.866  17.193   8.647 -0.1359  0.1037  0.2764
  156loPI   C5A 2491  15.849  16.999   8.246  0.2165 -0.0187  0.1233
  156loPI   C6A 2492  15.653  17.064   7.890 -0.1049  0.1865  0.0031
  156loPI   C1B 2493  17.035  16.640   9.646 -0.1119  0.0486  0.3618
  156loPI   C2B 2494  16.650  16.640   9.513 -0.1199 -0.5208  0.3630
  156loPI   C3B 2495  16.389  16.695   9.095 -0.2257 -0.1938 -0.1733
  156loPI   C4B 2496  16.523  16.752   8.641 -0.2877  0.1224 -0.4062
  157loPI    C1 2497   3.929   9.201  11.326 -0.0078 -0.0259  0.0701
  157loPI    C2 2498   4.008   9.099  11.705  0.0824  0.1128  0.0893
  157loPI    C3 2499   4.096   9.466  11.574  0.0595  0.0627 -0.0690
  157loPI   PO4 2500   3.971   8.989  11.206  0.0181  0.1988  0.0113
  157loPI   GL1 2501   3.983   8.889  10.693 -0.1756  0.0091  0.0678
  157loPI   GL2 2502   3.771   9.173  10.550 -0.0593  0.0779 -0.1441
  157loPI   C1A 2503   3.986   8.672  10.294 -0.1641 -0.1243  0.1532
  157loPI   C2A 2504   3.987   8.732   9.956  0.1295  0.1104 -0.2071
  157loPI   C3A 2505   3.965   8.661   9.649  0.1005  0.0521  0.2174
  157loPI   C4A 2506   4.116   8.769   9.237 -0.4006 -0.2549 -0.1446
  157loPI   C5A 2507   4.240   8.582   8.807  0.0805  0.0102 -0.3285
  157loPI   C6A 2508   3.877   8.296   8.635  0.2423 -0.0541 -0.1930
  157loPI   C1B 2509   3.670   9.154  10.146 -0.1783  0.1481  0.2691
  157loPI   C2B 2510   3.711   9.222   9.722 -0.2701 -0.0497  0.2871
  157loPI   C3B 2511   3.782   9.124   9.308  0.0673  0.4108 -0.0133
  157loPI   C4B 2512   4.000   9.112   8.873 -0.2725  0.2432 -0.3221
  158loPI    C1 2513   1.491   0.796  10.779 -0.1731  0.3703 -0.1254
  158loPI    C2 2514   1.368   0.727  10.404 -0.1543 -0.0993 -0.0517
  158loPI    C3 2515   1.142   0.611  10.714 -0.0268  0.0105  0.0841
  158loPI   PO4 2516   1.767   0.707  10.744 -0.1487  0.0275 -0.2610
  158loPI   GL1 2517   1.967   0.666  10.419 -0.1697  0.2500  0.1914
  158loPI   GL2 2518   1.856   0.702  10.159  0.0232 -0.0621  0.0831
  158loPI   C1A 2519   2.325   0.887  10.135  0.2493 -0.1631 -0.4249
  158loPI   C2A 2520   2.416   0.905   9.718 -0.1109 -0.0098 -0.1975
  158loPI   C3A 2521   2.448   0.881   9.315  0.1060 -0.3354 -0.1331
  158loPI   C4A 2522   2.465   0.964   8.798  0.0286 -0.2894 -0.1761
  158loPI   C5A 2523   2.344   0.928   8.336 -0.0508 -0.3978 -0.1456
  158loPI   C6A 2524   2.475   0.783   7.886 -0.0401  0.2032  0.2154
  158loPI   C1B 2525   1.876   0.773   9.765  0.0069 -0.3065 -0.4047
  158loPI   C2B 2526   1.936   0.879   9.369  0.2032  0.4603 -0.0866
  158loPI   C3B 2527   1.973   0.863   8.843 -0.1134 -0.3522 -0.1040
  158loPI   C4B 2528   1.955   0.614   8.457  0.0674  0.2049  0.3883
  159loPI    C1 2529  15.548  17.951  10.507 -0.2150 -0.5464  0.1247
  159loPI    C2 2530  15.362  18.007  10.856 -0.1666 -0.1979  0.0976
  159loPI    C3 2531  15.752  18.090  10.822 -0.1901 -0.1488 -0.0608
  159loPI   PO4 2532  15.419  17.721  10.380 -0.2795 -0.1175  0.0673
  159loPI   GL1 2533  15.068  17.410  10.165 -0.1173 -0.2541  0.1849
  159loPI   GL2 2534  15.093  17.734  10.043  0.2132 -0.2423 -0.1041
  159loPI   C1A 2535  15.019  17.354   9.707 -0.2431  0.1221 -0.0891
  159loPI   C2A 2536  15.075  17.167   9.329  0.0671  0.3393 -0.0040
  159loPI   C3A 2537  14.951  17.001   8.935  0.2127  0.3518  0.1646
  159loPI   C4A 2538  15.004  17.213   8.544  0.1098 -0.0509 -0.0359
  159loPI   C5A 2539  14.953  17.732   8.530  0.0457 -0.2075  0.1072
  159loPI   C6A 2540  14.631  17.995   8.278  0.0684  0.1189 -0.2501
  159loPI   C1B 2541  15.043  17.877   9.657  0.3186 -0.2803 -0.3407
  159loPI   C2B 2542  15.003  18.078   9.243  0.1694  0.0124 -0.2094
  159loPI   C3B 2543  14.597  18.186   9.128  0.0099 -0.0096  0.2384
  159loPI   C4B 2544  14.459  18.519   8.911 -0.1963 -0.1182 -0.0823
  160loPI    C1 2545   8.055   6.970  11.453  0.0019  0.0253 -0.0052
  160loPI    C2 2546   7.818   7.265  11.583  0.1039 -0.0223  0.2966
  160loPI    C3 2547   8.205   7.336  11.510  0.0244  0.0303 -0.0945
  160loPI   PO4 2548   7.923   6.879  11.225 -0.3133  0.0469  0.2786
  160loPI   GL1 2549   7.860   6.729  10.766  0.0384  0.0618 -0.3633
  160loPI   GL2 2550   7.867   6.998  10.754  0.2164  0.1293 -0.3015
  160loPI   C1A 2551   7.710   6.705  10.325  0.0347  0.1873 -0.0996
  160loPI   C2A 2552   7.627   6.793   9.866 -0.1021  0.1902  0.1724
  160loPI   C3A 2553   7.760   6.714   9.481 -0.0722 -0.1055  0.0416
  160loPI   C4A 2554   7.684   6.795   9.080 -0.0578  0.0251 -0.0496
  160loPI   C5A 2555   7.743   6.736   8.717 -0.0164  0.0511  0.2037
  160loPI   C6A 2556   7.450   6.543   8.299  0.0379 -0.3499 -0.0853
  160loPI   C1B 2557   7.910   7.146  10.363 -0.3149 -0.0837  0.1033
  160loPI   C2B 2558   7.863   7.222   9.966 -0.0300  0.0802  0.0476
  160loPI   C3B 2559   7.934   7.197   9.588  0.0183  0.1075 -0.2433
  160loPI   C4B 2560   7.925   7.200   9.126 -0.1694 -0.4181  0.1194
  161loPI    C1 2561  13.135   8.959  10.921 -0.0095  0.1278  0.0972
  161loPI    C2 2562  13.256   8.742  11.235 -0.1046  0.2772  0.2383
  161loPI    C3 2563  12.866   8.770  11.150 -0.0536 -0.1414 -0.1708
  161loPI   PO4 2564  13.275   8.903  10.735  0.0275  0.1049 -0.2653
  161loPI   GL1 2565  13.195   9.133  10.328 -0.1988  0.0270 -0.0489
  161loPI   GL2 2566  13.133   8.899  10.248  0.0169 -0.2854  0.1218
  161loPI   C1A 2567  12.970   9.140   9.836 -0.0443  0.1170 -0.2278
  161loPI   C2A 2568  13.064   9.063   9.414  0.0675  0.0912 -0.2129
  161loPI   C3A 2569  13.061   9.179   8.987  0.4349  0.0220 -0.0053
  161loPI   C4A 2570  13.066   9.184   8.555  0.2334 -0.1428  0.1827
  161loPI   C5A 2571  13.106   8.936   8.161 -0.1192  0.3451  0.0546
  161loPI   C6A 2572  13.038   8.976   7.761  0.0927  0.5284 -0.3451
  161loPI   C1B 2573  12.945   8.593   9.911 -0.0675 -0.1562 -0.1596
  161loPI   C2B 2574  12.863   8.640   9.432  0.2170  0.0627  0.3461
  161loPI   C3B 2575  12.945   8.651   9.033 -0.4343  0.1547 -0.2430
  161loPI   C4B 2576  12.893   8.732   8.621 -0.3110 -0.1440 -0.1340
  162loPI    C1 2577  16.037   7.328  11.074  0.1441  0.1072  0.0855
  162loPI    C2 2578  16.091   7.046  11.353 -0.0966 -0.1613 -0.1322
  162loPI    C3 2579  16.396   7.157  11.120  0.1209  0.1042  0.2660
  162loPI   PO4 2580  15.882   7.288  10.889  0.1738 -0.2043 -0.0067
  162loPI   GL1 2581  15.696   7.147  10.556  0.0709 -0.0289  0.0261
  162loPI   GL2 2582  15.746   6.835  10.453 -0.2597 -0.0586  0.0979
  162loPI   C1A 2583  15.658   7.136  10.053 -0.3087  0.3603  0.0067
  162loPI   C2A 2584  15.842   7.113   9.707 -0.2217  0.0110  0.0543
  162loPI   C3A 2585  15.726   7.229   9.319  0.2391  0.3101 -0.1098
  162loPI   C4A 2586  15.565   7.275   8.913  0.1641  0.0978  0.0434
  162loPI   C5A 2587  15.686   7.434   8.490 -0.2847  0.3901 -0.0020
  162loPI   C6A 2588  16.041   7.169   8.300  0.1317 -0.3356  0.0873
  162loPI   C1B 2589  16.029   6.732  10.062 -0.3378 -0.3022 -0.1780
  162loPI   C2B 2590  16.098   6.621   9.616 -0.1302 -0.1434 -0.3722
  162loPI   C3B 2591  16.067   6.560   9.167  0.0264 -0.1477 -0.3985
  162loPI   C4B 2592  15.934   6.889   8.912 -0.0217  0.1268 -0.2000
  163loPI    C1 2593  11.300  17.091  11.040  0.1524  0.1256  0.0087
  163loPI    C2 2594  11.516  16.812  11.229  0.1270  0.1620  0.0917
  163loPI    C3 2595  11.247  17.029  11.431 -0.2390 -0.1225 -0.0785
  163loPI   PO4 2596  11.142  16.935  10.825  0.5464  0.0569  0.0129
  163loPI   GL1 2597  10.794  16.927  10.551  0.4173 -0.0338 -0.0426
  163loPI   GL2 2598  11.024  17.062  10.349  0.1668  0.0067  0.1077
  163loPI   C1A 2599  10.622  16.811  10.263  0.0491  0.1363  0.1108
  163loPI   C2A 2600  10.508  16.897   9.786 -0.2314  0.2695 -0.1759
  163loPI   C3A 2601  10.445  16.925   9.353  0.0709 -0.0397  0.0718
  163loPI   C4A 2602  10.494  17.027   9.039  0.0051 -0.2218  0.0824
  163loPI   C5A 2603  10.366  16.874   8.652 -0.0059 -0.1898 -0.1333
  163loPI   C6A 2604  10.012  16.789   8.471  0.1099 -0.2132  0.4916
  163loPI   C1B 2605  10.971  17.028   9.959 -0.1812 -0.0271 -0.1206
  163loPI   C2B 2606  10.944  17.006   9.569 -0.0306 -0.2049  0.0784
  163loPI   C3B 2607  10.945  16.979   9.210 -0.3104  0.0899  0.0363
  163loPI   C4B 2608  10.838  16.967   8.724  0.0048 -0.2325 -0.2127
  164loPI    C1 2609   3.896   3.960  11.070  0.1256 -0.2580  0.0167
  164loPI    C2 2610   3.984   3.734  11.388  0.0428 -0.2780  0.0257
  164loPI    C3 2611   3.657   3.965  11.391  0.1644 -0.1042  0.0443
  164loPI   PO4 2612   3.877   3.827  10.869  0.1123 -0.0864 -0.3186
  164loPI   GL1 2613   3.633   3.843  10.520  0.0265 -0.1313 -0.0092
  164loPI   GL2 2614   3.423   3.601  10.382  0.1767  0.0911  0.3109
  164loPI   C1A 2615   3.896   4.090  10.294 -0.2213 -0.1183 -0.0664
  164loPI   C2A 2616   3.875   4.122   9.904  0.2239  0.0107  0.3469
  164loPI   C3A 2617   3.952   4.133   9.522  0.1547 -0.1370 -0.0815
  164loPI   C4A 2618   3.986   4.188   9.066  0.1145 -0.1294  0.2887
  164loPI   C5A 2619   4.125   4.245   8.636  0.2738  0.0013 -0.1772
  164loPI   C6A 2620   4.000   4.260   8.122 -0.2001  0.0092  0.1269
  164loPI   C1B 2621   3.560   3.677   9.945 -0.4888 -0.2101  0.1788
  164loPI   C2B 2622   3.692   3.653   9.552 -0.0572 -0.0058 -0.0839
  164loPI   C3B 2623   3.839   3.680   9.096 -0.0929  0.4358 -0.1183
  164loPI   C4B 2624   3.853   3.766   8.667 -0.1279 -0.1381  0.1124
  165loPI    C1 2625  17.267   8.225  10.762  0.0164 -0.0897 -0.0774
  165loPI    C2 2626  17.503   8.350  11.060  0.0939  0.0784 -0.2073
  165loPI    C3 2627  17.451   7.958  10.996  0.0647  0.0415  0.0354
  165loPI   PO4 2628  17.343   8.330  10.584  0.1269  0.1804 -0.3257
  165loPI   GL1 2629  17.443   8.397  10.219 -0.0498 -0.1967  0.1157
  165loPI   GL2 2630  17.754   8.380  10.123 -0.1741 -0.1362 -0.2138
  165loPI   C1A 2631  17.107   8.187   9.874  0.1675  0.0970 -0.0795
  165loPI   C2A 2632  17.013   7.973   9.476  0.0615 -0.1917  0.0020
  165loPI   C3A 2633  17.088   7.763   9.171 -0.1427 -0.1738  0.4379
  165loPI   C4A 2634  16.920   7.871   8.723  0.0657 -0.0067  0.0448
  165loPI   C5A 2635  17.139   8.257   8.482  0.1975  0.2145  0.0201
  165loPI   C6A 2636  17.244   8.368   8.098 -0.0155  0.1745 -0.0187
  165loPI   C1B 2637  17.925   8.329   9.749 -0.0060 -0.3173  0.0551
  165loPI   C2B 2638  17.907   8.275   9.299 -0.2790  0.0756  0.0901
  165loPI   C3B 2639  17.832   8.058   8.905 -0.0274 -0.0264 -0.1417
  165loPI   C4B 2640  17.691   7.893   8.494 -0.2253 -0.0141 -0.0889
  166loPI    C1 2641   8.653   3.209  10.707  0.1242 -0.0375 -0.1840
  166loPI    C2 2642   8.902   3.087  10.996  0.0323  0.3085  0.0480
  166loPI    C3 2643   8.520   3.169  11.082 -0.1340 -0.0843 -0.2786
  166loPI   PO4 2644   8.823   3.224  10.511 -0.2491 -0.3032 -0.1890
  166loPI   GL1 2645   8.581   3.135  10.169  0.0169  0.1471  0.1836
  166loPI   GL2 2646   8.347   3.373  10.366  0.0994 -0.3329  0.1879
  166loPI   C1A 2647   9.009   3.202   9.900 -0.3566  0.1300  0.2239
  166loPI   C2A 2648   9.146   3.329   9.490 -0.1266  0.0032  0.1408
  166loPI   C3A 2649   9.103   3.312   9.155 -0.0763 -0.2699 -0.1405
  166loPI   C4A 2650   9.145   3.338   8.631  0.0062 -0.1197 -0.1639
  166loPI   C5A 2651   9.128   3.136   8.232  0.0591 -0.0671 -0.1553
  166loPI   C6A 2652   9.071   3.294   7.840 -0.2093 -0.2032  0.2059
  166loPI   C1B 2653   8.234   3.539   9.969 -0.3512  0.1101 -0.0622
  166loPI   C2B 2654   8.288   3.611   9.511 -0.1186 -0.2652  0.0681
  166loPI   C3B 2655   8.313   3.732   9.068 -0.0667  0.0664  0.0875
  166loPI   C4B 2656   8.225   3.822   8.650  0.0401  0.0195  0.0525
  167loPI    C1 2657  15.764  11.821  10.879 -0.2259  0.1069  0.4318
  167loPI    C2 2658  15.998  12.143  10.909 -0.2047  0.1459 -0.0679
  167loPI    C3 2659  16.137  11.784  11.018 -0.0455  0.2251 -0.0063
  167loPI   PO4 2660  15.649  11.882  10.664 -0.1390  0.1922  0.0939
  167loPI   GL1 2661  15.690  11.733  10.254  0.0894  0.0014 -0.1042
  167loPI   GL2 2662  15.575  11.459  10.171  0.1767  0.1696  0.0017
  167loPI   C1A 2663  15.747  11.829   9.846  0.0628 -0.2729 -0.4836
  167loPI   C2A 2664  15.749  11.651   9.429 -0.1354  0.1237  0.1213
  167loPI   C3A 2665  15.687  11.722   8.989  0.1069  0.0530  0.0643
  167loPI   C4A 2666  15.481  11.777   8.611  0.3249 -0.0634 -0.0008
  167loPI   C5A 2667  15.308  12.099   8.348 -0.0012  0.0962 -0.0042
  167loPI   C6A 2668  14.902  12.044   8.169  0.1140  0.0307 -0.1308
  167loPI   C1B 2669  15.503  11.365   9.736 -0.1368  0.0706 -0.0683
  167loPI   C2B 2670  15.455  11.198   9.243  0.2613 -0.1522 -0.2676
  167loPI   C3B 2671  15.428  11.318   8.764  0.1009  0.1319 -0.1551
  167loPI   C4B 2672  15.467  11.179   8.439  0.1266  0.2386  0.0310
  168loPI    C1 2673  14.318  12.761  10.968 -0.0266  0.0414  0.0350
  168loPI    C2 2674  14.180  13.088  11.153  0.0846  0.0011  0.1910
  168loPI    C3 2675  14.215  12.744  11.354 -0.1767 -0.1476 -0.0121
  168loPI   PO4 2676  14.088  12.821  10.697  0.1945  0.1279  0.1065
  168loPI   GL1 2677  14.347  12.781  10.331 -0.3292  0.0228  0.3067
  168loPI   GL2 2678  14.165  12.519  10.232 -0.0075 -0.0416 -0.2164
  168loPI   C1A 2679  14.267  12.933   9.893 -0.0565 -0.2973 -0.0819
  168loPI   C2A 2680  14.190  12.905   9.487  0.1866  0.2445  0.4998
  168loPI   C3A 2681  14.097  12.942   9.140 -0.4481 -0.0002 -0.1137
  168loPI   C4A 2682  14.035  12.926   8.676  0.2457  0.2417  0.1442
  168loPI   C5A 2683  13.751  12.859   8.325 -0.0503  0.1886  0.2151
  168loPI   C6A 2684  13.396  12.753   8.078  0.0605  0.2121  0.0663
  168loPI   C1B 2685  13.997  12.468   9.875  0.3972  0.0079 -0.0956
  168loPI   C2B 2686  13.948  12.423   9.416 -0.1928  0.0191  0.1240
  168loPI   C3B 2687  13.816  12.497   8.984 -0.1365  0.0697 -0.2087
  168loPI   C4B 2688  13.697  12.369   8.542 -0.0766 -0.2392  0.2377
  169loPI    C1 2689   4.134   8.515  11.073 -0.1459  0.3554 -0.1314
  169loPI    C2 2690   3.929   8.407  11.399 -0.0552  0.1179 -0.1515
  169loPI    C3 2691   3.737   8.568  11.088 -0.1630  0.2080 -0.0398
  169loPI   PO4 2692   4.299   8.412  11.006  0.2620  0.0579 -0.1536
  169loPI   GL1 2693   4.684   8.516  10.723  0.0287  0.3480  0.0993
  169loPI   GL2 2694   4.400   8.650  10.500  0.0651  0.2191 -0.1615
  169loPI   C1A 2695   4.892   8.421  10.454 -0.2622 -0.2183  0.0817
  169loPI   C2A 2696   4.902   8.243  10.045  0.1314 -0.2569  0.0234
  169loPI   C3A 2697   4.897   8.277   9.567 -0.0797  0.3473  0.0034
  169loPI   C4A 2698   4.982   8.282   9.145  0.0414  0.0831  0.0726
  169loPI   C5A 2699   5.199   8.327   8.741 -0.1448 -0.2917  0.2427
  169loPI   C6A 2700   5.521   8.583   8.740  0.1595  0.1028 -0.0624
  169loPI   C1B 2701   4.462   8.681  10.072  0.2525 -0.1366 -0.1964
  169loPI   C2B 2702   4.810   8.676   9.847  0.0139 -0.1081  0.1691
  169loPI   C3B 2703   5.114   8.831   9.748 -0.2032 -0.0657  0.1254
  169loPI   C4B 2704   5.610   8.849   9.811 -0.2771  0.1216 -0.2009
  170loPI    C1 2705  11.279  16.100  11.183 -0.0408  0.1268  0.1013
  170loPI    C2 2706  11.102  16.184  11.532  0.0726  0.0345  0.1817
  170loPI    C3 2707  11.403  15.921  11.519  0.1164  0.0916  0.0250
  170loPI   PO4 2708  11.113  16.019  11.043  0.1556  0.0873 -0.2929
  170loPI   GL1 2709  11.074  16.025  10.578  0.0128  0.3091  0.2189
  170loPI   GL2 2710  10.938  15.706  10.320  0.3245 -0.0204 -0.0081
  170loPI   C1A 2711  11.191  16.157  10.115  0.1323 -0.0881 -0.0818
  170loPI   C2A 2712  11.087  16.191   9.612  0.2421 -0.2670 -0.1537
  170loPI   C3A 2713  11.103  16.157   9.210  0.0078  0.0592 -0.2076
  170loPI   C4A 2714  11.038  16.144   8.741 -0.2398  0.1548  0.2125
  170loPI   C5A 2715  11.011  16.210   8.290 -0.4459  0.2324 -0.0839
  170loPI   C6A 2716  10.795  16.201   7.977 -0.0627 -0.4064 -0.0993
  170loPI   C1B 2717  10.862  15.670   9.933  0.0274  0.1735 -0.1932
  170loPI   C2B 2718  10.937  15.742   9.489  0.0599  0.1246 -0.2448
  170loPI   C3B 2719  10.841  15.679   9.041  0.1773  0.3431 -0.0643
  170loPI   C4B 2720  10.902  15.676   8.556 -0.1309 -0.0639 -0.0857
  171loPI    C1 2721  13.076   3.896  10.912 -0.0063 -0.0717 -0.1186
  171loPI    C2 2722  13.431   3.934  11.092 -0.0647 -0.1239  0.0089
  171loPI    C3 2723  13.094   3.983  11.302 -0.1334 -0.0321 -0.1210
  171loPI   PO4 2724  13.123   3.645  10.797  0.1636 -0.0331 -0.1551
  171loPI   GL1 2725  13.137   3.431  10.418 -0.2569  0.3185 -0.0117
  171loPI   GL2 2726  12.949   3.245  10.272 -0.1021 -0.0364 -0.0560
  171loPI   C1A 2727  13.347   3.653  10.134 -0.1208 -0.1311  0.0104
  171loPI   C2A 2728  13.273   3.797   9.703  0.1547  0.2592  0.1686
  171loPI   C3A 2729  13.177   3.788   9.172 -0.2811  0.1087 -0.2878
  171loPI   C4A 2730  13.212   3.743   8.755  0.2040 -0.0638 -0.2133
  171loPI   C5A 2731  12.960   3.829   8.437  0.1750  0.0806 -0.2796
  171loPI   C6A 2732  13.092   4.295   8.377  0.2999  0.2170 -0.0610
  171loPI   C1B 2733  12.822   3.601   9.923 -0.0804 -0.1210  0.0087
  171loPI   C2B 2734  12.704   3.608   9.417  0.0291  0.1095 -0.0544
  171loPI   C3B 2735  12.685   3.720   8.971 -0.0264  0.1306 -0.0789
  171loPI   C4B 2736  12.546   3.707   8.700 -0.1877 -0.0655 -0.1160
  172loPI    C1 2737   2.216   3.848  11.122 -0.0150  0.0148  0.0470
  172loPI    C2 2738   2.360   3.553  11.352  0.0012  0.0560  0.0898
  172loPI    C3 2739   1.971   3.645  11.365 -0.0953 -0.2739 -0.2672
  172loPI   PO4 2740   2.286   3.808  10.892 -0.0567  0.0756  0.0351
  172loPI   GL1 2741   2.498   3.895  10.555 -0.0103  0.0094 -0.1069
  172loPI   GL2 2742   2.641   4.111  10.613 -0.0979 -0.2664  0.1997
  172loPI   C1A 2743   2.245   4.015  10.169 -0.3255  0.1559 -0.0754
  172loPI   C2A 2744   2.431   3.969   9.783  0.2196  0.0824  0.3663
  172loPI   C3A 2745   2.386   3.906   9.333 -0.0488 -0.1024 -0.1016
  172loPI   C4A 2746   2.412   4.071   8.865 -0.0777  0.0718 -0.0173
  172loPI   C5A 2747   2.518   4.225   8.384 -0.1096  0.0788 -0.2421
  172loPI   C6A 2748   2.908   4.349   8.161  0.0752  0.1120  0.1226
  172loPI   C1B 2749   2.789   4.177  10.160 -0.2527  0.1469 -0.2021
  172loPI   C2B 2750   2.942   4.042   9.829  0.1762  0.1488  0.0193
  172loPI   C3B 2751   2.975   3.974   9.475 -0.0258 -0.1404 -0.0033
  172loPI   C4B 2752   2.944   4.033   9.133  0.0841 -0.0538 -0.0783
  173loPI    C1 2753  13.923   7.198  10.809 -0.1432  0.0237  0.0730
  173loPI    C2 2754  13.745   7.527  10.949  0.0249  0.0960  0.1192
  173loPI    C3 2755  13.923   7.273  11.202 -0.1263 -0.0445  0.0862
  173loPI   PO4 2756  13.813   7.170  10.548 -0.0756 -0.1214  0.0876
  173loPI   GL1 2757  13.559   7.139  10.222  0.0544  0.1421  0.2535
  173loPI   GL2 2758  13.418   7.326  10.003  0.3637 -0.1259 -0.0405
  173loPI   C1A 2759  13.770   6.978   9.812 -0.1699  0.1801 -0.1519
  173loPI   C2A 2760  13.652   6.855   9.459 -0.5269 -0.1442  0.1890
  173loPI   C3A 2761  13.566   6.936   9.033 -0.0310 -0.1132  0.1325
  173loPI   C4A 2762  13.651   6.934   8.679  0.1409  0.3164 -0.1714
  173loPI   C5A 2763  13.451   6.910   8.341  0.0192  0.2045 -0.0356
  173loPI   C6A 2764  13.222   6.871   8.004  0.0095 -0.1097 -0.0828
  173loPI   C1B 2765  13.518   7.322   9.582  0.0022  0.0574  0.0947
  173loPI   C2B 2766  13.339   7.333   9.196 -0.0519  0.0371 -0.2307
  173loPI   C3B 2767  13.301   7.408   8.797  0.0524  0.0267 -0.2730
  173loPI   C4B 2768  13.047   7.407   8.452  0.1896 -0.0999 -0.0881
  174loPI    C1 2769   8.553   6.827  11.115 -0.0106  0.2901  0.0359
  174loPI    C2 2770   8.381   6.608  11.402  0.2583 -0.1064 -0.0958
  174loPI    C3 2771   8.532   6.968  11.489 -0.2112  0.0473  0.1190
  174loPI   PO4 2772   8.447   6.790  10.824 -0.1430 -0.0046 -0.0558
  174loPI   GL1 2773   8.291   6.832  10.509  0.3481  0.4374  0.0701
  174loPI   GL2 2774   8.384   7.168  10.506 -0.2150  0.3446  0.0995
  174loPI   C1A 2775   8.212   6.848  10.113  0.1469  0.0634  0.2601
  174loPI   C2A 2776   8.259   6.752   9.701 -0.2352  0.0172  0.2498
  174loPI   C3A 2777   8.202   6.790   9.276  0.0429 -0.2899  0.1464
  174loPI   C4A 2778   8.262   6.861   8.864 -0.0781  0.0472  0.0100
  174loPI   C5A 2779   8.233   6.694   8.375  0.0212 -0.1148  0.1225
  174loPI   C6A 2780   8.622   6.652   8.172  0.0770 -0.2744 -0.0641
  174loPI   C1B 2781   8.488   7.251  10.044  0.0933 -0.1073 -0.1861
  174loPI   C2B 2782   8.468   7.264   9.649  0.3165  0.3185 -0.0187
  174loPI   C3B 2783   8.445   7.329   9.209 -0.1263 -0.2425  0.0978
  174loPI   C4B 2784   8.470   7.503   8.700  0.2791 -0.0897  0.1966
  175loPI    C1 2785   4.767  14.289  11.156 -0.2820  0.2411 -0.0222
  175loPI    C2 2786   4.459  14.126  11.353 -0.3148  0.1813 -0.1225
  175loPI    C3 2787   4.790  14.231  11.551 -0.2587 -0.0880 -0.0696
  175loPI   PO4 2788   4.671  14.234  10.861 -0.1596 -0.1425 -0.0670
  175loPI   GL1 2789   4.904  14.098  10.500  0.2663  0.2886  0.3886
  175loPI   GL2 2790   4.614  14.076  10.391  0.0269  0.0433 -0.1528
  175loPI   C1A 2791   5.219  14.090  10.164 -0.0879 -0.1639  0.1715
  175loPI   C2A 2792   5.191  14.195   9.745 -0.1243 -0.0139 -0.1848
  175loPI   C3A 2793   5.212  14.191   9.396  0.1318  0.1741  0.1885
  175loPI   C4A 2794   5.233  14.192   9.078 -0.0728  0.1626  0.1085
  175loPI   C5A 2795   5.388  14.187   8.709  0.0922 -0.0127 -0.0702
  175loPI   C6A 2796   5.492  14.404   8.344 -0.0107 -0.1014  0.0915
  175loPI   C1B 2797   4.747  14.109  10.002 -0.1987 -0.0412  0.3630
  175loPI   C2B 2798   4.720  14.116   9.584  0.1311  0.1425  0.2315
  175loPI   C3B 2799   4.658  14.235   9.126  0.3608 -0.1952  0.0276
  175loPI   C4B 2800   4.790  14.202   8.623 -0.0705  0.2037  0.0362
  176loPI    C1 2801   1.726   5.655  11.257  0.1639  0.0950 -0.1088
  176loPI    C2 2802   1.827   5.499  11.611 -0.3477  0.2433  0.1114
  176loPI    C3 2803   1.493   5.379  11.427 -0.0868  0.1680 -0.3271
  176loPI   PO4 2804   1.931   5.542  11.055  0.1217 -0.0013  0.0222
  176loPI   GL1 2805   2.093   5.571  10.719 -0.2556 -0.0305  0.1226
  176loPI   GL2 2806   1.786   5.436  10.532  0.2207  0.3555 -0.2975
  176loPI   C1A 2807   2.086   5.804  10.358 -0.1160 -0.1278  0.2348
  176loPI   C2A 2808   2.149   5.804   9.942  0.1621 -0.0593 -0.0330
  176loPI   C3A 2809   2.226   5.807   9.475  0.0070 -0.1223  0.2465
  176loPI   C4A 2810   2.316   5.819   9.081  0.2255 -0.0664 -0.3069
  176loPI   C5A 2811   2.467   5.797   8.695 -0.0370  0.2070  0.2378
  176loPI   C6A 2812   2.133   5.757   8.279 -0.2760 -0.3208 -0.2898
  176loPI   C1B 2813   1.824   5.332  10.059 -0.1625  0.2033 -0.0599
  176loPI   C2B 2814   1.984   5.408   9.563  0.2083 -0.1929 -0.0412
  176loPI   C3B 2815   2.166   5.326   9.203  0.3066  0.0751 -0.0933
  176loPI   C4B 2816   2.194   5.342   8.740  0.1500  0.0200  0.1121
  177loPI    C1 2817  12.210   6.444  11.213 -0.0471  0.1914  0.0687
  177loPI    C2 2818  12.473   6.265  11.456 -0.0307 -0.0401 -0.1154
  177loPI    C3 2819  12.166   6.057  11.306 -0.3332  0.2321  0.1115
  177loPI   PO4 2820  12.460   6.510  11.000  0.0976 -0.3105 -0.0304
  177loPI   GL1 2821  12.482   6.562  10.519 -0.4062  0.0395  0.0652
  177loPI   GL2 2822  12.666   6.423  10.276  0.1617  0.1810 -0.0749
  177loPI   C1A 2823  12.613   6.875  10.110 -0.1757  0.2495  0.0948
  177loPI   C2A 2824  12.670   6.892   9.620  0.0175  0.2232  0.1985
  177loPI   C3A 2825  12.598   6.856   9.242 -0.2514  0.3623  0.1320
  177loPI   C4A 2826  12.565   6.820   8.745 -0.1875 -0.2473 -0.3217
  177loPI   C5A 2827  12.428   6.747   8.374  0.1016 -0.1419 -0.0272
  177loPI   C6A 2828  12.355   6.579   8.028  0.0557  0.3290  0.0242
  177loPI   C1B 2829  12.582   6.304   9.858 -0.1210 -0.0237  0.1060
  177loPI   C2B 2830  12.409   6.380   9.452  0.0857 -0.2130  0.1518
  177loPI   C3B 2831  12.370   6.364   9.040  0.1235 -0.0143 -0.3299
  177loPI   C4B 2832  12.287   6.329   8.580  0.0123  0.1664  0.1906
  178loPI    C1 2833  10.823  16.498  10.901  0.0287 -0.0385 -0.0722
  178loPI    C2 2834  10.678  16.481  11.273  0.1054 -0.1776 -0.0481
  178loPI    C3 2835  11.068  16.551  11.213  0.0688 -0.0207 -0.1064
  178loPI   PO4 2836  10.672  16.279  10.775 -0.0117  0.0571  0.0826
  178loPI   GL1 2837  10.786  16.365  10.370  0.2118 -0.0164  0.2495
  178loPI   GL2 2838  11.116  16.589  10.335 -0.0180  0.1344 -0.0082
  178loPI   C1A 2839  10.767  16.499   9.903  0.2752  0.0169 -0.1169
  178loPI   C2A 2840  10.778  16.547   9.471 -0.3439  0.2859  0.0660
  178loPI   C3A 2841  10.744  16.493   9.023  0.1680  0.0351  0.1177
  178loPI   C4A 2842  10.693  16.461   8.594  0.0979 -0.1587  0.2223
  178loPI   C5A 2843  10.362  16.505   8.290 -0.2637 -0.0555  0.1287
  178loPI   C6A 2844  10.032  16.222   8.034  0.0297  0.0131  0.0261
  178loPI   C1B 2845  11.282  16.574   9.858 -0.1526  0.4574  0.0073
  178loPI   C2B 2846  11.279  16.649   9.486  0.0728  0.0821  0.1291
  178loPI   C3B 2847  11.283  16.644   9.015  0.1727 -0.1255 -0.1745
  178loPI   C4B 2848  11.189  16.628   8.534  0.0175  0.0747  0.1480
  179loPI    C1 2849   9.259  14.306  10.954 -0.1508 -0.1581  0.0467
  179loPI    C2 2850   9.390  14.294  11.332 -0.1436  0.0765  0.0531
  179loPI    C3 2851   9.300  14.645  11.162 -0.2043 -0.0328 -0.1443
  179loPI   PO4 2852   9.402  14.209  10.792 -0.1205 -0.0400 -0.0737
  179loPI   GL1 2853   9.421  14.030  10.280  0.3454 -0.0066  0.2883
  179loPI   GL2 2854   9.221  13.905  10.196  0.1834  0.2083  0.1077
  179loPI   C1A 2855   9.729  14.135   9.960  0.0545  0.0038  0.0372
  179loPI   C2A 2856   9.705  14.087   9.502  0.0523 -0.1217 -0.0539
  179loPI   C3A 2857   9.683  14.049   8.998  0.1664  0.0548  0.0577
  179loPI   C4A 2858   9.589  14.099   8.594 -0.1882  0.0171 -0.1179
  179loPI   C5A 2859   9.539  14.127   8.150  0.1570  0.0233  0.0266
  179loPI   C6A 2860   9.671  14.421   7.818 -0.1222 -0.2122  0.0722
  179loPI   C1B 2861   9.232  14.037   9.812  0.1096 -0.1374 -0.3316
  179loPI   C2B 2862   9.273  14.100   9.353 -0.0171 -0.0100  0.0501
  179loPI   C3B 2863   9.197  14.095   8.894 -0.2636  0.0943  0.1327
  179loPI   C4B 2864   9.022  14.142   8.452 -0.3031  0.0240  0.0253
  180loPI    C1 2865   9.787   3.523  10.937 -0.0953  0.0738  0.0868
  180loPI    C2 2866  10.116   3.558  11.161  0.0543 -0.1795 -0.0874
  180loPI    C3 2867   9.897   3.223  11.177 -0.1798 -0.0251  0.0035
  180loPI   PO4 2868   9.812   3.619  10.749 -0.3021 -0.1077  0.1662
  180loPI   GL1 2869   9.964   3.318  10.444  0.1943  0.0580  0.1428
  180loPI   GL2 2870   9.659   3.230  10.270 -0.0721  0.2458 -0.1614
  180loPI   C1A 2871  10.097   3.358  10.062  0.1168 -0.1502 -0.4699
  180loPI   C2A 2872  10.064   3.328   9.591  0.0998  0.1577  0.1095
  180loPI   C3A 2873  10.060   3.435   9.118  0.2367  0.0020 -0.1278
  180loPI   C4A 2874  10.099   3.324   8.730 -0.1252 -0.1987 -0.0349
  180loPI   C5A 2875  10.156   3.292   8.215 -0.0181 -0.1724 -0.0645
  180loPI   C6A 2876  10.292   3.194   7.819  0.1167 -0.0752  0.2240
  180loPI   C1B 2877   9.531   3.298   9.857 -0.2585  0.1333  0.1065
  180loPI   C2B 2878   9.606   3.290   9.433 -0.1692  0.1106  0.0031
  180loPI   C3B 2879   9.582   3.258   8.945 -0.0286  0.1330  0.2923
  180loPI   C4B 2880   9.636   3.311   8.407 -0.2305  0.1541  0.0139
  181loPI    C1 2881  14.994   3.252  11.048 -0.0209 -0.0242  0.0727
  181loPI    C2 2882  14.727   2.957  11.093 -0.0939  0.0477  0.1125
  181loPI    C3 2883  15.090   2.926  11.259 -0.1431  0.0333  0.2185
  181loPI   PO4 2884  14.887   3.313  10.795  0.0874  0.0892  0.3595
  181loPI   GL1 2885  14.647   3.358  10.459  0.1283  0.0541 -0.2253
  181loPI   GL2 2886  14.301   3.311  10.311  0.3295  0.2310 -0.2336
  181loPI   C1A 2887  14.754   3.619  10.149 -0.1278 -0.1511  0.0788
  181loPI   C2A 2888  14.683   3.689   9.851  0.2351 -0.1083 -0.3351
  181loPI   C3A 2889  14.697   3.730   9.473 -0.1018  0.0132 -0.0375
  181loPI   C4A 2890  14.711   3.937   9.124 -0.2354  0.0158  0.2177
  181loPI   C5A 2891  14.710   4.016   8.682  0.1908  0.0902 -0.0878
  181loPI   C6A 2892  14.451   4.058   8.375 -0.2010  0.3258  0.0567
  181loPI   C1B 2893  14.319   3.380   9.993  0.1884  0.0731  0.1439
  181loPI   C2B 2894  14.173   3.570   9.637  0.1308  0.1021 -0.0683
  181loPI   C3B 2895  14.263   3.792   9.237 -0.0804  0.0654 -0.2706
  181loPI   C4B 2896  14.159   3.865   8.815  0.0391  0.3346  0.1950
  182loPI    C1 2897   3.198  17.790  10.516  0.1544 -0.2597  0.0651
  182loPI    C2 2898   3.073  17.875  10.887  0.0869 -0.0238 -0.0098
  182loPI    C3 2899   3.384  17.630  10.832  0.0558 -0.1124  0.1998
  182loPI   PO4 2900   2.987  17.725  10.411 -0.2798  0.2018  0.1714
  182loPI   GL1 2901   3.072  17.560   9.993 -0.0404 -0.0693 -0.0504
  182loPI   GL2 2902   2.739  17.614  10.002  0.2495  0.2262  0.1272
  182loPI   C1A 2903   3.259  17.573   9.595  0.0846 -0.1492 -0.1474
  182loPI   C2A 2904   3.278  17.626   9.044 -0.3271 -0.0813 -0.1712
  182loPI   C3A 2905   3.322  17.473   8.659  0.0023 -0.0091 -0.0127
  182loPI   C4A 2906   3.337  17.140   8.443 -0.1665  0.0140  0.1281
  182loPI   C5A 2907   3.121  16.973   8.086  0.1408 -0.1247  0.0773
  182loPI   C6A 2908   2.725  17.039   7.877 -0.2997  0.1314  0.0566
  182loPI   C1B 2909   2.798  17.636   9.498 -0.0048  0.2385  0.2299
  182loPI   C2B 2910   2.712  17.613   9.026  0.3193 -0.2301  0.0742
  182loPI   C3B 2911   2.829  17.490   8.675  0.0360 -0.0389 -0.0264
  182loPI   C4B 2912   2.807  17.269   8.331 -0.0153 -0.2799 -0.0229
  183loPI    C1 2913   8.493  14.301  10.721  0.0523 -0.1884 -0.1447
  183loPI    C2 2914   8.361  13.929  10.657  0.3499 -0.3090 -0.0746
  183loPI    C3 2915   8.467  14.043  11.025 -0.0210 -0.0581 -0.0394
  183loPI   PO4 2916   8.302  14.437  10.536 -0.2380 -0.0601 -0.1609
  183loPI   GL1 2917   8.366  14.760  10.242 -0.1776  0.1667 -0.1498
  183loPI   GL2 2918   8.275  15.042  10.256  0.1560 -0.3188 -0.1881
  183loPI   C1A 2919   8.622  14.879   9.828 -0.0513 -0.3441  0.0327
  183loPI   C2A 2920   8.538  14.827   9.302  0.0193 -0.2712  0.0454
  183loPI   C3A 2921   8.525  14.965   8.864  0.0338 -0.0184 -0.1763
  183loPI   C4A 2922   8.590  15.097   8.441 -0.0187 -0.3649  0.1134
  183loPI   C5A 2923   8.851  15.444   8.272 -0.1750 -0.4014  0.0339
  183loPI   C6A 2924   9.264  15.462   8.195 -0.2442 -0.1252 -0.1096
  183loPI   C1B 2925   8.288  15.210   9.821 -0.2264 -0.1470  0.1209
  183loPI   C2B 2926   8.249  15.305   9.467 -0.0307 -0.1791 -0.3208
  183loPI   C3B 2927   8.292  15.380   9.020  0.0170  0.1186 -0.2484
  183loPI   C4B 2928   8.307  15.454   8.618  0.1157 -0.2087  0.0810
  184loPI    C1 2929  13.269   4.435  10.919 -0.0607  0.2004 -0.1174
  184loPI    C2 2930  13.382   4.712  11.184  0.3465 -0.1100  0.0431
  184loPI    C3 2931  13.055   4.492  11.252  0.1745  0.1424  0.0459
  184loPI   PO4 2932  13.315   4.587  10.678 -0.2017  0.0053  0.2180
  184loPI   GL1 2933  13.221   4.483  10.273  0.3116 -0.1830  0.0742
  184loPI   GL2 2934  13.328   4.834  10.155 -0.1412 -0.1580  0.1330
  184loPI   C1A 2935  13.404   4.234   9.906  0.0593 -0.1777  0.1388
  184loPI   C2A 2936  13.427   4.279   9.456  0.3689  0.2060 -0.1013
  184loPI   C3A 2937  13.397   4.375   9.066  0.0544  0.1491 -0.2179
  184loPI   C4A 2938  13.544   4.231   8.691 -0.3774  0.0908 -0.0030
  184loPI   C5A 2939  13.493   3.948   8.363  0.0388  0.3030 -0.0817
  184loPI   C6A 2940  13.533   3.640   8.203  0.0883  0.1785 -0.1591
  184loPI   C1B 2941  13.064   4.636   9.795 -0.0034  0.6675  0.1413
  184loPI   C2B 2942  13.054   4.691   9.348 -0.1031  0.3218 -0.1895
  184loPI   C3B 2943  13.083   4.770   8.929 -0.2548 -0.0050 -0.1986
  184loPI   C4B 2944  13.228   4.709   8.560 -0.0529  0.1841  0.2997
  185loPI    C1 2945   4.504  11.820  10.977  0.0455  0.0143  0.1615
  185loPI    C2 2946   4.621  12.201  10.959 -0.1073  0.0656  0.2369
  185loPI    C3 2947   4.284  12.105  11.152 -0.2044 -0.0760  0.0005
  185loPI   PO4 2948   4.662  11.719  10.792  0.0654  0.0458 -0.1612
  185loPI   GL1 2949   4.636  12.026  10.444 -0.1191 -0.0162  0.0476
  185loPI   GL2 2950   4.448  11.769  10.305 -0.0089 -0.0748  0.0777
  185loPI   C1A 2951   4.909  12.168  10.071 -0.3328 -0.0395 -0.0655
  185loPI   C2A 2952   4.844  12.334   9.640 -0.3423  0.1911  0.1200
  185loPI   C3A 2953   4.768  12.301   9.288 -0.0551 -0.1259  0.0952
  185loPI   C4A 2954   4.830  12.329   8.842 -0.1303  0.1295 -0.1255
  185loPI   C5A 2955   4.886  12.364   8.425 -0.2553  0.1228 -0.3044
  185loPI   C6A 2956   5.033  12.085   7.995 -0.0286  0.1069 -0.0751
  185loPI   C1B 2957   4.570  11.793   9.841  0.0755 -0.2340 -0.1889
  185loPI   C2B 2958   4.662  11.814   9.450 -0.0225 -0.0190 -0.2907
  185loPI   C3B 2959   4.635  11.859   9.053 -0.1505 -0.0579  0.2164
  185loPI   C4B 2960   4.678  11.894   8.577 -0.1538  0.1195 -0.1442
  186loPI    C1 2961   5.044  12.490  11.003 -0.0631  0.0340  0.2742
  186loPI    C2 2962   5.437  12.563  11.010 -0.0772  0.1358  0.0708
  186loPI    C3 2963   5.243  12.480  11.350  0.1348  0.0008  0.1611
  186loPI   PO4 2964   4.941  12.664  10.908  0.2815 -0.0521 -0.1390
  186loPI   GL1 2965   4.848  12.713  10.453  0.1663 -0.0172 -0.1861
  186loPI   GL2 2966   4.586  12.493  10.552  0.0172  0.0918  0.1550
  186loPI   C1A 2967   5.015  12.716  10.126 -0.0073 -0.1561 -0.0462
  186loPI   C2A 2968   4.990  12.844   9.745 -0.0589  0.1153 -0.1747
  186loPI   C3A 2969   5.007  12.750   9.319 -0.2002 -0.1118  0.1655
  186loPI   C4A 2970   5.149  12.845   8.963  0.0757  0.1970  0.0265
  186loPI   C5A 2971   5.058  12.779   8.606  0.1375  0.1699  0.0892
  186loPI   C6A 2972   5.368  12.865   8.377  0.1066 -0.0123  0.0184
  186loPI   C1B 2973   4.521  12.558  10.117  0.0052 -0.1514  0.0907
  186loPI   C2B 2974   4.523  12.735   9.778  0.4086 -0.0318 -0.2153
  186loPI   C3B 2975   4.511  12.750   9.377 -0.3241 -0.0366 -0.3391
  186loPI   C4B 2976   4.610  12.801   9.015  0.1918  0.2338  0.2143
  187loPI    C1 2977  11.621  16.807  10.732 -0.2191  0.0322  0.1025
  187loPI    C2 2978  11.919  16.745  10.992 -0.0136  0.2756 -0.0709
  187loPI    C3 2979  11.789  17.117  10.922 -0.1181  0.2047 -0.2601
  187loPI   PO4 2980  11.627  16.725  10.501  0.0664  0.2306 -0.1133
  187loPI   GL1 2981  11.733  16.675  10.158  0.0382  0.3237  0.2411
  187loPI   GL2 2982  11.512  17.037  10.149  0.1306 -0.1060  0.1687
  187loPI   C1A 2983  11.798  16.663   9.771 -0.1069  0.2259  0.0885
  187loPI   C2A 2984  11.739  16.696   9.305 -0.2125  0.0800 -0.2773
  187loPI   C3A 2985  11.832  16.642   8.912 -0.2403  0.0946 -0.1202
  187loPI   C4A 2986  11.679  16.641   8.414  0.1173 -0.0316  0.1059
  187loPI   C5A 2987  11.939  16.723   8.062  0.0422 -0.0404  0.2722
  187loPI   C6A 2988  11.838  16.842   7.630  0.1136 -0.1623 -0.0676
  187loPI   C1B 2989  11.486  17.085   9.647  0.1395  0.1239  0.0116
  187loPI   C2B 2990  11.450  17.073   9.218  0.0926 -0.2056 -0.0733
  187loPI   C3B 2991  11.477  17.033   8.731  0.0515  0.0999 -0.3042
  187loPI   C4B 2992  11.586  17.104   8.265 -0.2310 -0.0641  0.0199
  188loPI    C1 2993  14.596  16.840  10.935 -0.0686 -0.0604  0.0619
  188loPI    C2 2994  14.215  16.765  11.030 -0.0325 -0.1746  0.1190
  188loPI    C3 2995  14.510  16.617  11.255  0.0432  0.0767  0.1891
  188loPI   PO4 2996  14.572  16.818  10.677 -0.1674 -0.3665  0.0535
  188loPI   GL1 2997  14.484  16.703  10.173  0.4086  0.0164 -0.0460
  188loPI   GL2 2998  14.697  16.394  10.034 -0.1870 -0.1186 -0.0237
  188loPI   C1A 2999  14.278  16.654   9.807  0.0336 -0.0630 -0.1628
  188loPI   C2A 3000  14.139  16.587   9.475 -0.0527 -0.1073  0.0574
  188loPI   C3A 3001  14.220  16.509   9.102 -0.0740 -0.0309 -0.1504
  188loPI   C4A 3002  14.175  16.489   8.657  0.2580 -0.0289 -0.0474
  188loPI   C5A 3003  14.239  16.444   8.271  0.3435  0.0300 -0.2925
  188loPI   C6A 3004  14.602  16.497   8.048  0.1007  0.0736  0.2142
  188loPI   C1B 3005  14.513  16.292   9.641  0.1970  0.2157 -0.2760
  188loPI   C2B 3006  14.498  16.119   9.185  0.0433 -0.0487 -0.0128
  188loPI   C3B 3007  14.501  16.105   8.714 -0.0864 -0.1059  0.1544
  188loPI   C4B 3008  14.562  16.070   8.317 -0.2515 -0.0280  0.0870
  189loPI    C1 3009  10.251   8.077  10.772 -0.0375  0.0951  0.0609
  189loPI    C2 3010  10.000   7.843  10.978  0.0411  0.0269  0.0798
  189loPI    C3 3011  10.100   8.203  11.121  0.0698 -0.0068  0.1453
  189loPI   PO4 3012  10.112   8.161  10.577 -0.0074 -0.0207  0.0908
  189loPI   GL1 3013  10.097   8.071  10.214 -0.1360 -0.0704 -0.2465
  189loPI   GL2 3014   9.849   8.322  10.176  0.0943  0.2071 -0.1452
  189loPI   C1A 3015  10.123   7.999   9.750 -0.1220  0.1910 -0.0866
  189loPI   C2A 3016  10.240   8.110   9.361 -0.0342  0.0899 -0.2987
  189loPI   C3A 3017  10.546   7.981   9.037 -0.0108 -0.0347 -0.3493
  189loPI   C4A 3018  10.556   8.141   8.635 -0.2494  0.1163 -0.2430
  189loPI   C5A 3019  10.764   8.037   8.290  0.0077  0.1186  0.0835
  189loPI   C6A 3020  10.530   8.178   7.914 -0.0794 -0.1113 -0.0191
  189loPI   C1B 3021   9.587   8.277   9.874 -0.2137  0.3467 -0.0422
  189loPI   C2B 3022   9.442   8.304   9.406  0.1679  0.0985 -0.0481
  189loPI   C3B 3023   9.579   8.262   9.005  0.0385 -0.1942  0.1161
  189loPI   C4B 3024   9.390   8.278   8.572  0.1860  0.0894 -0.1205
  190loPI    C1 3025   4.726   3.843  11.355 -0.0094  0.0361  0.0536
  190loPI    C2 3026   4.816   3.551  11.613 -0.2804 -0.4071 -0.3387
  190loPI    C3 3027   4.444   3.698  11.598 -0.1095  0.0784 -0.0364
  190loPI   PO4 3028   4.792   3.787  11.164 -0.1617  0.3186  0.2328
  190loPI   GL1 3029   4.806   3.954  10.780  0.2038 -0.0286 -0.0567
  190loPI   GL2 3030   5.001   4.239  10.636  0.0104  0.1565  0.1878
  190loPI   C1A 3031   4.995   3.766  10.372 -0.2406  0.2479  0.0453
  190loPI   C2A 3032   5.189   3.755   9.960  0.2043 -0.1503 -0.1638
  190loPI   C3A 3033   5.297   3.761   9.501 -0.2889 -0.0950 -0.1083
  190loPI   C4A 3034   5.315   3.818   8.976  0.0736 -0.2224  0.0456
  190loPI   C5A 3035   5.531   3.891   8.636  0.1844 -0.1522  0.0336
  190loPI   C6A 3036   5.903   4.006   8.433  0.0657 -0.0984  0.0645
  190loPI   C1B 3037   4.871   4.278  10.163  0.0722  0.1510  0.1517
  190loPI   C2B 3038   4.948   4.202   9.740  0.0697 -0.1384 -0.1011
  190loPI   C3B 3039   5.045   4.214   9.316 -0.1488  0.1068  0.0827
  190loPI   C4B 3040   5.106   4.333   8.867  0.3327  0.4012 -0.0746
  191loPI    C1 3041   8.976  16.174  10.962 -0.2057 -0.0473 -0.2116
  191loPI    C2 3042   8.871  16.552  11.042 -0.3868 -0.0900 -0.2435
  191loPI    C3 3043   9.203  16.399  11.204 -0.3760  0.0453 -0.1357
  191loPI   PO4 3044   8.940  16.166  10.665  0.2105  0.0780 -0.0521
  191loPI   GL1 3045   8.669  16.152  10.271 -0.0230 -0.3210 -0.0457
  191loPI   GL2 3046   8.792  15.771  10.236  0.2727  0.0307  0.2534
  191loPI   C1A 3047   8.660  16.176   9.853 -0.1543  0.0921  0.1581
  191loPI   C2A 3048   8.605  16.264   9.462  0.2829  0.1834  0.0503
  191loPI   C3A 3049   8.745  16.296   9.109 -0.0948  0.3369  0.2094
  191loPI   C4A 3050   8.748  16.302   8.719  0.4004 -0.3327 -0.1102
  191loPI   C5A 3051   8.829  16.305   8.251 -0.0023 -0.2501 -0.1326
  191loPI   C6A 3052   8.556  16.376   7.998 -0.1142 -0.0367 -0.0650
  191loPI   C1B 3053   8.956  15.801   9.864  0.0914  0.0747 -0.1177
  191loPI   C2B 3054   8.979  15.817   9.383  0.1904  0.0168 -0.0037
  191loPI   C3B 3055   9.072  15.861   8.948 -0.0967 -0.0219 -0.0916
  191loPI   C4B 3056   9.108  15.821   8.506  0.0038  0.1046 -0.2323
  192loPI    C1 3057  13.525  11.532  11.137  0.0142  0.0715  0.0596
  192loPI    C2 3058  13.158  11.431  11.261  0.0373 -0.2664 -0.1346
  192loPI    C3 3059  13.476  11.225  11.389  0.1875  0.1600  0.2035
  192loPI   PO4 3060  13.424  11.623  10.876  0.0436  0.0185  0.1141
  192loPI   GL1 3061  13.357  11.732  10.375 -0.3691 -0.0740  0.1778
  192loPI   GL2 3062  13.125  11.460  10.302  0.2568  0.2186  0.1064
  192loPI   C1A 3063  13.365  11.906   9.942 -0.0055  0.1135  0.1481
  192loPI   C2A 3064  13.203  11.863   9.528 -0.0439  0.1947 -0.2313
  192loPI   C3A 3065  13.204  11.771   9.179  0.0427  0.0481  0.0758
  192loPI   C4A 3066  13.098  11.933   8.835 -0.0450  0.1301 -0.0764
  192loPI   C5A 3067  12.930  12.013   8.452 -0.0419 -0.2074 -0.1239
  192loPI   C6A 3068  12.723  12.083   7.987 -0.0592  0.1641  0.3600
  192loPI   C1B 3069  13.109  11.394   9.856  0.2229  0.1389  0.2126
  192loPI   C2B 3070  13.020  11.379   9.484  0.0167 -0.2827  0.0201
  192loPI   C3B 3071  13.050  11.349   9.101  0.1129  0.0832 -0.2807
  192loPI   C4B 3072  12.958  11.388   8.803  0.0160  0.0328  0.0975
  193loPI    C1 3073   7.843   8.573  11.125  0.0002 -0.2852  0.0773
  193loPI    C2 3074   7.575   8.706  11.390 -0.0169 -0.3173  0.0762
  193loPI    C3 3075   7.961   8.680  11.492 -0.0045 -0.2105  0.0570
  193loPI   PO4 3076   7.698   8.516  10.913 -0.0455 -0.0057  0.1954
  193loPI   GL1 3077   7.487   8.508  10.569  0.2180 -0.1407  0.0553
  193loPI   GL2 3078   7.112   8.597  10.576  0.0219  0.0859 -0.1175
  193loPI   C1A 3079   7.458   8.580  10.098 -0.0445  0.2456  0.1100
  193loPI   C2A 3080   7.658   8.584   9.720  0.2357  0.2160 -0.1103
  193loPI   C3A 3081   7.579   8.543   9.260  0.3337 -0.1474  0.0463
  193loPI   C4A 3082   7.639   8.600   8.869 -0.0944 -0.2458  0.1408
  193loPI   C5A 3083   7.657   8.737   8.438  0.1149 -0.1152  0.2442
  193loPI   C6A 3084   7.785   8.721   8.106 -0.1461 -0.1773 -0.0306
  193loPI   C1B 3085   6.975   8.519  10.193 -0.3442 -0.0669  0.0307
  193loPI   C2B 3086   7.116   8.482   9.732  0.3453 -0.4607  0.1090
  193loPI   C3B 3087   7.073   8.511   9.294 -0.1304 -0.0517  0.0481
  193loPI   C4B 3088   7.005   8.505   8.825  0.1554  0.1494 -0.1593
  194loPI    C1 3089   0.185   7.199  10.998  0.2270 -0.0723 -0.0345
  194loPI    C2 3090   0.379   6.944  11.237 -0.0575 -0.2023  0.0622
  194loPI    C3 3091   0.090   7.177  11.386  0.1488  0.1261 -0.0414
  194loPI   PO4 3092   0.346   7.206  10.767 -0.1919 -0.0034  0.3205
  194loPI   GL1 3093   0.352   6.985  10.345  0.1346  0.1230 -0.2313
  194loPI   GL2 3094   0.192   7.140  10.270  0.1832  0.4016 -0.0311
  194loPI   C1A 3095   0.649   7.050   9.899 -0.0041  0.2658  0.0736
  194loPI   C2A 3096   0.767   6.940   9.520 -0.0648 -0.0977 -0.2786
  194loPI   C3A 3097   0.818   6.984   9.075 -0.3517 -0.4606  0.0519
  194loPI   C4A 3098   0.882   6.909   8.676 -0.2251 -0.1299  0.1884
  194loPI   C5A 3099   0.746   7.080   8.338  0.0507  0.3730  0.0895
  194loPI   C6A 3100   0.656   7.524   8.376 -0.0519  0.1137 -0.2718
  194loPI   C1B 3101   0.118   7.094   9.847 -0.1268 -0.2198 -0.1131
  194loPI   C2B 3102   0.233   6.913   9.508 -0.0273 -0.0668 -0.2286
  194loPI   C3B 3103   0.368   7.040   9.112 -0.2718 -0.2243  0.1502
  194loPI   C4B 3104   0.322   7.110   8.673  0.0015  0.0149 -0.0217
  195loPI    C1 3105   5.881  16.731  11.032  0.0025 -0.1724 -0.2517
  195loPI    C2 3106   6.270  16.825  11.008 -0.0285  0.0627  0.0885
  195loPI    C3 3107   6.118  16.685  11.351 -0.2094 -0.2068 -0.0971
  195loPI   PO4 3108   5.848  16.640  10.720  0.1096 -0.0622  0.1773
  195loPI   GL1 3109   5.829  16.962  10.322  0.1104 -0.0070  0.1425
  195loPI   GL2 3110   5.558  16.846  10.203 -0.0045 -0.2366 -0.1882
  195loPI   C1A 3111   5.930  16.963   9.878  0.2383  0.1107  0.2035
  195loPI   C2A 3112   6.134  16.899   9.470  0.0340 -0.0577  0.2724
  195loPI   C3A 3113   5.970  16.973   8.950 -0.3397 -0.1001 -0.2576
  195loPI   C4A 3114   6.082  17.020   8.597  0.0045  0.0340  0.0603
  195loPI   C5A 3115   6.116  16.866   8.145  0.0782 -0.0203  0.0267
  195loPI   C6A 3116   6.028  16.512   7.958 -0.4667  0.0357 -0.2044
  195loPI   C1B 3117   5.479  16.879   9.737  0.4785 -0.1431  0.2573
  195loPI   C2B 3118   5.462  16.901   9.285 -0.0300 -0.2068 -0.0018
  195loPI   C3B 3119   5.431  16.950   8.854  0.2502 -0.1708 -0.0693
  195loPI   C4B 3120   5.574  16.995   8.386  0.0483 -0.2789  0.3061
  196loPI    C1 3121  16.845   9.204  10.659 -0.2535 -0.0070 -0.0043
  196loPI    C2 3122  17.057   9.304  10.983 -0.0731 -0.3552 -0.0103
  196loPI    C3 3123  16.741   9.524  10.875  0.2596  0.1539  0.0181
  196loPI   PO4 3124  16.957   9.170  10.522  0.1088 -0.1091  0.1466
  196loPI   GL1 3125  17.092   9.258  10.175 -0.3187 -0.0152 -0.0419
  196loPI   GL2 3126  17.279   9.451  10.153  0.2185 -0.0545 -0.2598
  196loPI   C1A 3127  17.042   9.038   9.801 -0.1250  0.2886  0.2594
  196loPI   C2A 3128  17.256   8.970   9.507 -0.0950 -0.1022  0.2114
  196loPI   C3A 3129  17.632   8.755   9.298  0.1831 -0.0752 -0.1725
  196loPI   C4A 3130  17.973   8.867   9.149 -0.2809 -0.4197  0.1014
  196loPI   C5A 3131  18.145   8.552   8.882 -0.2459  0.0944 -0.2693
  196loPI   C6A 3132  17.989   8.360   8.529 -0.1357  0.2287  0.3060
  196loPI   C1B 3133  17.045   9.611   9.764  0.0482  0.2566  0.0062
  196loPI   C2B 3134  16.824   9.396   9.403 -0.2782  0.0559  0.0629
  196loPI   C3B 3135  16.629   9.100   9.134 -0.0074  0.1573 -0.2285
  196loPI   C4B 3136  16.687   8.799   8.766 -0.0667 -0.0050  0.0590
  197loPI    C1 3137   3.723   1.559  10.787  0.0065  0.0860 -0.0341
  197loPI    C2 3138   3.409   1.462  11.014  0.0682 -0.0730 -0.0150
  197loPI    C3 3139   3.777   1.453  11.168  0.1171 -0.2494 -0.1396
  197loPI   PO4 3140   3.681   1.510  10.568 -0.2774 -0.2808 -0.1463
  197loPI   GL1 3141   3.571   1.287  10.267  0.1378  0.5120  0.2582
  197loPI   GL2 3142   3.278   1.270  10.478 -0.2842  0.4119 -0.0568
  197loPI   C1A 3143   3.615   1.470   9.852  0.1840  0.0166  0.3224
  197loPI   C2A 3144   3.684   1.422   9.456 -0.3882 -0.1602  0.1233
  197loPI   C3A 3145   3.713   1.477   9.050  0.1282  0.1566  0.1293
  197loPI   C4A 3146   3.678   1.417   8.665 -0.0421  0.6303 -0.0231
  197loPI   C5A 3147   3.555   1.226   8.254 -0.1797 -0.0726 -0.0498
  197loPI   C6A 3148   3.674   1.296   7.812  0.0723  0.0855  0.0062
  197loPI   C1B 3149   3.126   1.480  10.032 -0.2161  0.0205  0.1658
  197loPI   C2B 3150   3.192   1.402   9.582  0.3294  0.3033 -0.2004
  197loPI   C3B 3151   3.229   1.386   9.088 -0.1694  0.0519 -0.0023
  197loPI   C4B 3152   3.177   1.308   8.648  0.3725 -0.1338 -0.2021
  198loPI    C1 3153   1.049  11.103  10.870  0.2291 -0.1258  0.1179
  198loPI    C2 3154   0.802  10.844  10.693  0.1198  0.0285  0.0422
  198loPI    C3 3155   0.797  10.885  11.091 -0.1024  0.1565  0.0283
  198loPI   PO4 3156   1.156  11.276  10.682  0.1302 -0.0759  0.1508
  198loPI   GL1 3157   1.148  11.385  10.268  0.0373  0.0781 -0.0114
  198loPI   GL2 3158   1.012  11.166  10.128  0.2251  0.0755  0.1323
  198loPI   C1A 3159   1.385  11.564   9.917 -0.0715  0.0330  0.1877
  198loPI   C2A 3160   1.377  11.613   9.518  0.1785  0.0473 -0.1285
  198loPI   C3A 3161   1.538  11.593   9.107 -0.0817  0.0918 -0.0766
  198loPI   C4A 3162   1.582  11.630   8.638  0.1287  0.1814 -0.1079
  198loPI   C5A 3163   1.869  11.513   8.312  0.2769  0.0267 -0.0024
  198loPI   C6A 3164   1.995  11.721   7.969  0.0785 -0.3421  0.0797
  198loPI   C1B 3165   1.163  11.184   9.707  0.0883  0.2305 -0.2263
  198loPI   C2B 3166   1.115  11.217   9.224  0.0287 -0.0432  0.0116
  198loPI   C3B 3167   1.387  11.111   8.833  0.0878  0.0129  0.3723
  198loPI   C4B 3168   1.367  11.175   8.415  0.2788 -0.1116 -0.1436
  199loPI    C1 3169  16.002  14.355  11.013 -0.1195 -0.1680  0.0690
  199loPI    C2 3170  16.124  14.652  11.251  0.0440 -0.0842 -0.1164
  199loPI    C3 3171  15.738  14.547  11.244  0.0000  0.0648  0.0144
  199loPI   PO4 3172  16.155  14.399  10.766 -0.0006 -0.2175  0.1745
  199loPI   GL1 3173  16.184  14.234  10.288 -0.0798 -0.0858 -0.0480
  199loPI   GL2 3174  16.419  14.008  10.230 -0.1304 -0.2712  0.2432
  199loPI   C1A 3175  16.239  14.112   9.810 -0.1505  0.2629  0.0399
  199loPI   C2A 3176  16.060  14.012   9.396 -0.1188  0.1042 -0.2192
  199loPI   C3A 3177  16.050  14.115   8.962 -0.1494 -0.0511  0.0817
  199loPI   C4A 3178  16.080  13.997   8.524  0.1397 -0.2703  0.2371
  199loPI   C5A 3179  16.197  13.871   8.055  0.0301 -0.1102  0.1174
  199loPI   C6A 3180  16.186  13.487   7.787 -0.0199  0.0206 -0.0675
  199loPI   C1B 3181  16.599  13.621  10.112 -0.0016  0.2457  0.3741
  199loPI   C2B 3182  16.436  13.670   9.691  0.3767 -0.1279  0.0549
  199loPI   C3B 3183  16.401  13.643   9.305  0.0695  0.0963 -0.0364
  199loPI   C4B 3184  16.451  13.520   8.883  0.1205 -0.2111 -0.2528
  200loPI    C1 3185  15.919  11.250  10.773  0.1701 -0.0441 -0.0527
  200loPI    C2 3186  16.236  11.201  11.013  0.1027 -0.3059 -0.0137
  200loPI    C3 3187  15.975  10.902  10.962 -0.0397 -0.1548 -0.1899
  200loPI   PO4 3188  15.959  11.406  10.539  0.2002 -0.0011  0.0496
  200loPI   GL1 3189  16.278  11.373  10.250  0.1606  0.1836 -0.0088
  200loPI   GL2 3190  16.550  11.155  10.194  0.1725 -0.0248  0.2209
  200loPI   C1A 3191  16.061  11.372   9.807 -0.0373 -0.5012 -0.0752
  200loPI   C2A 3192  15.921  11.260   9.273 -0.0572  0.2365 -0.1856
  200loPI   C3A 3193  15.985  11.262   8.801 -0.1381 -0.2750  0.0891
  200loPI   C4A 3194  15.970  11.039   8.310  0.3389 -0.1317 -0.2176
  200loPI   C5A 3195  16.208  10.842   8.077 -0.0346 -0.0258  0.3357
  200loPI   C6A 3196  16.590  10.644   8.127  0.1180 -0.0236 -0.0232
  200loPI   C1B 3197  16.600  11.386   9.745 -0.4675 -0.0281  0.0135
  200loPI   C2B 3198  16.690  11.506   9.370 -0.0296  0.2118 -0.0863
  200loPI   C3B 3199  16.610  11.423   8.949 -0.0220 -0.0337 -0.0951
  200loPI   C4B 3200  16.826  11.171   8.623  0.1270  0.2338  0.0606
  201loPI    C1 3201  13.692   5.499  10.912 -0.2447  0.0380 -0.1449
  201loPI    C2 3202  13.643   5.867  11.060  0.2344  0.0185  0.0834
  201loPI    C3 3203  13.578   5.548  11.292 -0.0918 -0.0438 -0.0875
  201loPI   PO4 3204  13.481   5.473  10.671 -0.1931  0.4546 -0.0291
  201loPI   GL1 3205  13.321   5.863  10.417 -0.0548  0.2525 -0.2721
  201loPI   GL2 3206  13.080   5.995  10.332  0.1388 -0.0670  0.4119
  201loPI   C1A 3207  13.269   5.905   9.909  0.2456  0.1441 -0.0100
  201loPI   C2A 3208  13.202   5.985   9.499 -0.2679  0.1138  0.0186
  201loPI   C3A 3209  13.142   5.992   9.094  0.1143  0.0028  0.0442
  201loPI   C4A 3210  13.108   6.007   8.721  0.0444  0.0120 -0.1510
  201loPI   C5A 3211  13.178   6.188   8.360  0.0019  0.0127 -0.2533
  201loPI   C6A 3212  13.223   6.302   7.936 -0.1053 -0.0657 -0.3243
  201loPI   C1B 3213  12.733   5.893  10.035  0.2322  0.2192 -0.2791
  201loPI   C2B 3214  12.710   5.910   9.527 -0.1012  0.2892 -0.0720
  201loPI   C3B 3215  12.655   5.951   9.124  0.0022 -0.3275  0.2014
  201loPI   C4B 3216  12.618   5.940   8.782  0.0970  0.2643 -0.1155
  202loPI    C1 3217  14.532  12.314  10.941 -0.1172 -0.0329 -0.0608
  202loPI    C2 3218  14.832  12.564  11.028 -0.1159  0.0022 -0.1644
  202loPI    C3 3219  14.883  12.169  11.070 -0.0797  0.0122 -0.1119
  202loPI   PO4 3220  14.496  12.358  10.627  0.2373 -0.0155 -0.0437
  202loPI   GL1 3221  14.691  12.326  10.220 -0.0426  0.2209  0.1760
  202loPI   GL2 3222  14.910  12.184  10.078 -0.2311  0.3287 -0.1880
  202loPI   C1A 3223  14.547  12.521   9.861  0.2592  0.0866 -0.1902
  202loPI   C2A 3224  14.402  12.510   9.346  0.0538  0.2164 -0.0690
  202loPI   C3A 3225  14.381  12.616   8.978 -0.2633  0.0663  0.0134
  202loPI   C4A 3226  14.322  12.462   8.627 -0.1557 -0.2187 -0.0847
  202loPI   C5A 3227  14.116  12.585   8.340  0.1011  0.0390  0.0636
  202loPI   C6A 3228  14.113  12.709   7.971  0.0146  0.0835 -0.1790
  202loPI   C1B 3229  14.864  12.113   9.679 -0.0100  0.0285  0.2387
  202loPI   C2B 3230  14.731  12.120   9.306 -0.0559 -0.1238  0.1016
  202loPI   C3B 3231  14.647  12.196   8.875  0.2229  0.3680  0.3388
  202loPI   C4B 3232  14.593  12.049   8.549 -0.0185  0.0526  0.2592
  203loPI    C1 3233   5.634   1.250  10.951 -0.1710 -0.0732 -0.0913
  203loPI    C2 3234   5.350   1.446  11.153 -0.0523 -0.0495  0.0549
  203loPI    C3 3235   5.713   1.399  11.314  0.0351 -0.0566 -0.1413
  203loPI   PO4 3236   5.613   1.345  10.768  0.0171 -0.2703  0.2598
  203loPI   GL1 3237   5.839   1.581  10.472 -0.4745 -0.0372  0.1415
  203loPI   GL2 3238   5.935   1.964  10.596 -0.2636  0.1041 -0.3086
  203loPI   C1A 3239   5.806   1.665  10.030 -0.0724  0.3419 -0.1301
  203loPI   C2A 3240   5.802   1.623   9.566 -0.4863  0.1691  0.2141
  203loPI   C3A 3241   5.795   1.563   9.171 -0.0205 -0.2109 -0.0720
  203loPI   C4A 3242   5.854   1.599   8.806 -0.0178 -0.0599 -0.0629
  203loPI   C5A 3243   5.942   1.799   8.449 -0.0161 -0.0172  0.1245
  203loPI   C6A 3244   5.769   1.942   8.116 -0.4618 -0.1472  0.1094
  203loPI   C1B 3245   6.019   2.069  10.227  0.0742 -0.0277 -0.1634
  203loPI   C2B 3246   5.980   2.134   9.779  0.0627  0.0140  0.0241
  203loPI   C3B 3247   6.036   2.032   9.307 -0.0673  0.2647  0.1555
  203loPI   C4B 3248   6.107   2.057   8.901 -0.1846 -0.0342  0.1159
  204loPI    C1 3249   6.996  13.002  11.146  0.2003 -0.0794  0.2561
  204loPI    C2 3250   6.839  13.336  11.299 -0.2161  0.0188 -0.3508
  204loPI    C3 3251   6.621  13.001  11.284  0.0559 -0.1728 -0.1247
  204loPI   PO4 3252   7.115  13.015  10.915  0.0362 -0.0941  0.1551
  204loPI   GL1 3253   7.114  13.123  10.447 -0.0397 -0.1132  0.3560
  204loPI   GL2 3254   6.881  13.429  10.236 -0.0331 -0.2398 -0.2518
  204loPI   C1A 3255   7.080  13.015  10.016  0.0184  0.0233  0.1724
  204loPI   C2A 3256   7.201  13.014   9.650  0.1656 -0.1173 -0.1662
  204loPI   C3A 3257   7.278  13.072   9.288 -0.3239 -0.4067  0.2590
  204loPI   C4A 3258   7.167  13.034   8.830  0.1375 -0.3614  0.3197
  204loPI   C5A 3259   7.322  12.791   8.516  0.0601  0.0319  0.0083
  204loPI   C6A 3260   7.550  12.626   8.204 -0.0500  0.1490  0.3879
  204loPI   C1B 3261   6.840  13.380   9.848  0.1307  0.1802  0.1827
  204loPI   C2B 3262   6.851  13.476   9.409  0.0124  0.0418 -0.0834
  204loPI   C3B 3263   6.940  13.436   9.009 -0.0175  0.0528  0.2730
  204loPI   C4B 3264   6.933  13.397   8.578  0.1043  0.3393 -0.3201
  205loPI    C1 3265   4.073   3.052  11.209 -0.0457  0.0495 -0.2678
  205loPI    C2 3266   4.095   2.684  11.052  0.1387 -0.0065 -0.1150
  205loPI    C3 3267   3.956   2.735  11.424  0.0835  0.0822 -0.1475
  205loPI   PO4 3268   4.081   3.220  11.056  0.2460  0.3326  0.1287
  205loPI   GL1 3269   4.153   3.398  10.705 -0.1220 -0.1023  0.0448
  205loPI   GL2 3270   4.079   3.573  10.489  0.2357 -0.0612 -0.0817
  205loPI   C1A 3271   4.417   3.296  10.286 -0.1853 -0.0081  0.0436
  205loPI   C2A 3272   4.465   3.320   9.883 -0.0020  0.0797 -0.2306
  205loPI   C3A 3273   4.567   3.273   9.462  0.2389  0.0213 -0.2667
  205loPI   C4A 3274   4.592   3.352   9.099  0.0642 -0.1070  0.0018
  205loPI   C5A 3275   4.700   3.450   8.694  0.2247 -0.0443 -0.1855
  205loPI   C6A 3276   4.487   3.768   8.341  0.3228  0.0760  0.1866
  205loPI   C1B 3277   4.047   3.671  10.024  0.0504  0.2073 -0.1469
  205loPI   C2B 3278   4.253   3.773   9.692  0.0984  0.0724  0.2193
  205loPI   C3B 3279   4.292   3.818   9.232 -0.2313  0.3922 -0.1302
  205loPI   C4B 3280   4.310   3.793   8.775  0.0581  0.1122  0.0687
  206loPI    C1 3281   5.683  16.170  10.906  0.0184 -0.1196 -0.0121
  206loPI    C2 3282   6.009  16.185  11.136  0.0503 -0.0410 -0.0620
  206loPI    C3 3283   5.655  16.094  11.298  0.0768 -0.0102  0.0137
  206loPI   PO4 3284   5.753  16.135  10.654 -0.3364  0.0938 -0.0469
  206loPI   GL1 3285   5.993  16.165  10.333 -0.0492 -0.3903  0.5068
  206loPI   GL2 3286   5.896  16.478  10.237  0.1970  0.1013 -0.0714
  206loPI   C1A 3287   6.101  16.084   9.878  0.1766  0.0153  0.0477
  206loPI   C2A 3288   6.095  15.988   9.486 -0.3393 -0.0789 -0.2342
  206loPI   C3A 3289   6.102  16.091   9.022 -0.1338  0.3584  0.1419
  206loPI   C4A 3290   6.148  16.039   8.573  0.0402 -0.0696  0.2330
  206loPI   C5A 3291   6.095  15.953   8.157  0.0704  0.1856  0.1682
  206loPI   C6A 3292   6.485  15.933   7.937  0.0945 -0.0687 -0.3639
  206loPI   C1B 3293   5.768  16.466   9.864 -0.0242  0.0282 -0.3284
  206loPI   C2B 3294   5.694  16.494   9.368 -0.0022 -0.3157 -0.2638
  206loPI   C3B 3295   5.736  16.528   8.987  0.2342 -0.0494  0.2730
  206loPI   C4B 3296   5.801  16.604   8.586 -0.3572 -0.2931 -0.0010
  207loPI    C1 3297  16.393   4.225  10.965  0.0061 -0.0243 -0.1283
  207loPI    C2 3298  16.579   4.574  11.019  0.0332  0.0031 -0.3868
  207loPI    C3 3299  16.472   4.354  11.335  0.2426  0.1245 -0.2284
  207loPI   PO4 3300  16.348   4.062  10.750  0.2124 -0.3419 -0.0235
  207loPI   GL1 3301  16.113   4.014  10.414 -0.0997  0.0273 -0.0407
  207loPI   GL2 3302  15.774   4.066  10.350 -0.0251  0.0350 -0.0170
  207loPI   C1A 3303  16.131   4.210   9.956 -0.5386 -0.1228 -0.2209
  207loPI   C2A 3304  16.240   4.293   9.557  0.1194 -0.2130  0.3926
  207loPI   C3A 3305  16.107   4.669   9.272  0.1563  0.0464 -0.1052
  207loPI   C4A 3306  16.067   4.671   8.702  0.3689 -0.0557  0.3957
  207loPI   C5A 3307  15.946   4.421   8.383  0.0986 -0.1926 -0.2999
  207loPI   C6A 3308  15.999   4.023   8.164  0.1350 -0.0019  0.0219
  207loPI   C1B 3309  15.605   4.359  10.026 -0.2186 -0.2712 -0.0935
  207loPI   C2B 3310  15.652   4.476   9.549  0.1148 -0.0086  0.2816
  207loPI   C3B 3311  15.579   4.540   9.157 -0.2310 -0.2049  0.3073
  207loPI   C4B 3312  15.560   4.536   8.687 -0.2496  0.0480  0.2288
  208loPI    C1 3313   9.209   4.990  11.160 -0.2157 -0.3239  0.1690
  208loPI    C2 3314   8.920   5.254  11.079  0.0967 -0.0256  0.0005
  208loPI    C3 3315   9.151   5.303  11.401  0.2605 -0.0013 -0.1197
  208loPI   PO4 3316   9.061   4.742  11.112  0.2992 -0.4662 -0.0412
  208loPI   GL1 3317   8.793   4.865  10.678 -0.0711 -0.0347 -0.0430
  208loPI   GL2 3318   9.105   4.661  10.585 -0.0306  0.0951  0.0356
  208loPI   C1A 3319   8.744   4.941  10.221  0.0352 -0.1157  0.1528
  208loPI   C2A 3320   8.916   5.094   9.853  0.1974  0.3984  0.0286
  208loPI   C3A 3321   8.866   5.102   9.406  0.0960 -0.1536 -0.1738
  208loPI   C4A 3322   8.898   5.134   8.993 -0.1915  0.0137 -0.1256
  208loPI   C5A 3323   8.868   5.012   8.585  0.0881  0.0044  0.0314
  208loPI   C6A 3324   9.162   5.049   8.205  0.1494  0.1742 -0.2495
  208loPI   C1B 3325   9.162   4.579  10.185 -0.1791  0.0011  0.0269
  208loPI   C2B 3326   9.142   4.641   9.791 -0.1145 -0.1697 -0.0108
  208loPI   C3B 3327   9.100   4.667   9.348 -0.0128  0.1209 -0.0323
  208loPI   C4B 3328   9.180   4.687   8.956  0.1372  0.1219  0.1444
  209loPI    C1 3329   4.001  10.313  10.868 -0.2735  0.0695  0.1109
  209loPI    C2 3330   4.197  10.623  11.028  0.0826 -0.0716 -0.0417
  209loPI    C3 3331   4.247  10.255  11.179 -0.1420 -0.0945 -0.0211
  209loPI   PO4 3332   4.105  10.275  10.610  0.1066 -0.2729  0.1029
  209loPI   GL1 3333   4.249  10.087  10.366 -0.0977 -0.0697  0.0570
  209loPI   GL2 3334   4.514   9.900  10.429  0.1336  0.2709 -0.0392
  209loPI   C1A 3335   4.224  10.047   9.857 -0.0061 -0.1954 -0.1539
  209loPI   C2A 3336   4.181  10.056   9.419 -0.1285  0.0015  0.4021
  209loPI   C3A 3337   4.352  10.067   9.120  0.0058  0.3638 -0.0229
  209loPI   C4A 3338   4.355  10.147   8.705  0.2021  0.2277  0.0697
  209loPI   C5A 3339   4.282  10.527   8.412  0.0968 -0.1330 -0.3112
  209loPI   C6A 3340   4.613  10.600   8.134  0.0917  0.1396  0.2328
  209loPI   C1B 3341   4.711  10.001   9.987  0.3476 -0.1427  0.3571
  209loPI   C2B 3342   4.895  10.060   9.616 -0.0225  0.0135  0.1231
  209loPI   C3B 3343   4.845  10.008   9.224  0.0629  0.0694  0.0824
  209loPI   C4B 3344   4.819  10.182   8.873  0.4267 -0.1344 -0.0665
  210loPI    C1 3345   9.839  15.039  10.724 -0.0453 -0.1608 -0.0604
  210loPI    C2 3346  10.019  14.993  11.078 -0.0052  0.0357 -0.0542
  210loPI    C3 3347   9.620  15.013  11.057 -0.0134 -0.1024 -0.0347
  210loPI   PO4 3348   9.925  15.192  10.596  0.1140  0.1979 -0.2037
  210loPI   GL1 3349   9.718  15.290  10.269  0.3037  0.1262  0.0777
  210loPI   GL2 3350   9.552  14.998  10.222  0.0112  0.1297  0.1537
  210loPI   C1A 3351   9.845  15.471   9.997 -0.3554 -0.0357 -0.0870
  210loPI   C2A 3352   9.862  15.551   9.621 -0.2620  0.0165 -0.0762
  210loPI   C3A 3353   9.969  15.481   9.290  0.1644  0.0295 -0.1701
  210loPI   C4A 3354   9.860  15.532   8.953  0.0553  0.1283  0.1643
  210loPI   C5A 3355   9.701  15.496   8.493  0.1720  0.1533  0.0805
  210loPI   C6A 3356   9.722  15.318   8.067 -0.0276 -0.0718 -0.1422
  210loPI   C1B 3357   9.680  15.031   9.809  0.0659 -0.1107  0.2188
  210loPI   C2B 3358   9.714  15.065   9.438 -0.1217 -0.0746 -0.0325
  210loPI   C3B 3359   9.600  15.043   9.068  0.0160 -0.0125  0.3124
  210loPI   C4B 3360   9.498  14.977   8.590  0.1126 -0.0306  0.0761
  211loPI    C1 3361   1.320   4.091  11.135  0.2280  0.0866 -0.2693
  211loPI    C2 3362   1.549   4.133  11.461 -0.0903  0.2870 -0.0655
  211loPI    C3 3363   1.414   3.771  11.356  0.0555  0.2143 -0.0047
  211loPI   PO4 3364   1.459   4.204  10.925 -0.2078 -0.1099  0.0529
  211loPI   GL1 3365   1.567   4.611  10.587  0.1586  0.0576 -0.0845
  211loPI   GL2 3366   1.448   4.835  10.522 -0.0485  0.0136 -0.0860
  211loPI   C1A 3367   1.896   4.449  10.217 -0.3583 -0.1009  0.0132
  211loPI   C2A 3368   1.953   4.477   9.906 -0.0917 -0.1660  0.2445
  211loPI   C3A 3369   2.139   4.319   9.524 -0.0939 -0.0744 -0.0500
  211loPI   C4A 3370   2.161   4.483   9.140  0.0281  0.0233  0.2256
  211loPI   C5A 3371   2.162   4.466   8.665 -0.1425 -0.0271 -0.0890
  211loPI   C6A 3372   2.210   4.881   8.478 -0.3075  0.0048 -0.0624
  211loPI   C1B 3373   1.542   4.887  10.127 -0.1022 -0.2144 -0.0643
  211loPI   C2B 3374   1.818   4.904   9.738 -0.2300 -0.0849  0.0691
  211loPI   C3B 3375   1.908   4.958   9.381 -0.0424  0.1534  0.6092
  211loPI   C4B 3376   1.944   4.902   8.936 -0.0417 -0.0379  0.1604
  212loPI    C1 3377   9.650   7.480  11.214  0.2276  0.0178 -0.0359
  212loPI    C2 3378   9.847   7.732  11.454  0.3647 -0.1243  0.0026
  212loPI    C3 3379   9.647   7.423  11.609 -0.0055  0.0958 -0.0252
  212loPI   PO4 3380   9.757   7.427  11.014  0.3486 -0.0303  0.2363
  212loPI   GL1 3381   9.703   7.643  10.638 -0.3052 -0.4743  0.1385
  212loPI   GL2 3382   9.719   7.853  10.467 -0.2741  0.0344 -0.0629
  212loPI   C1A 3383   9.497   7.449  10.256 -0.1680  0.0938 -0.0048
  212loPI   C2A 3384   9.464   7.396   9.834  0.1668  0.1721  0.0704
  212loPI   C3A 3385   9.485   7.390   9.388 -0.0673  0.3497  0.3079
  212loPI   C4A 3386   9.513   7.432   8.962  0.0245 -0.0466  0.0039
  212loPI   C5A 3387   9.436   7.420   8.530  0.0403 -0.1463  0.1780
  212loPI   C6A 3388   9.508   7.388   7.998  0.1556  0.1899  0.0118
  212loPI   C1B 3389   9.717   7.867  10.081  0.2782 -0.0114  0.0247
  212loPI   C2B 3390   9.613   7.807   9.643 -0.0315  0.1519  0.0204
  212loPI   C3B 3391   9.807   7.909   9.240  0.0739 -0.0244  0.1188
  212loPI   C4B 3392  10.065   8.002   8.876 -0.0121  0.1003  0.2689
  213loPI    C1 3393  12.915  15.604  11.130  0.1947 -0.3714 -0.1649
  213loPI    C2 3394  12.688  15.335  11.321  0.1932 -0.1581  0.1422
  213loPI    C3 3395  13.050  15.428  11.463  0.1329  0.1111  0.1252
  213loPI   PO4 3396  12.840  15.438  10.828  0.1356 -0.0992  0.0213
  213loPI   GL1 3397  12.770  15.439  10.401 -0.2033 -0.1314 -0.0773
  213loPI   GL2 3398  12.694  15.117  10.248  0.0202 -0.0878 -0.1502
  213loPI   C1A 3399  12.759  15.485   9.913  0.0777 -0.2172 -0.1213
  213loPI   C2A 3400  12.734  15.455   9.476 -0.1065 -0.1453  0.3800
  213loPI   C3A 3401  12.823  15.401   9.013 -0.1409 -0.1096  0.1036
  213loPI   C4A 3402  12.664  15.426   8.575  0.0132  0.1789  0.0608
  213loPI   C5A 3403  12.596  15.223   8.220 -0.0676  0.3767 -0.2729
  213loPI   C6A 3404  12.634  14.947   7.888  0.0837 -0.1952 -0.1702
  213loPI   C1B 3405  12.510  14.935   9.908  0.0718 -0.0822  0.1047
  213loPI   C2B 3406  12.529  14.912   9.529  0.1726 -0.3033 -0.0615
  213loPI   C3B 3407  12.585  14.992   9.137 -0.0994 -0.0357  0.0123
  213loPI   C4B 3408  12.479  14.958   8.731 -0.0625 -0.3538 -0.2621
  214loPI    C1 3409  16.319  15.234  10.762 -0.1737  0.2998 -0.0565
  214loPI    C2 3410  16.157  15.153  11.118  0.3039 -0.0908  0.0835
  214loPI    C3 3411  16.366  15.490  11.066  0.2480 -0.0411  0.1770
  214loPI   PO4 3412  16.035  15.280  10.536  0.0120  0.2206  0.0133
  214loPI   GL1 3413  15.995  15.010  10.078  0.0123 -0.0289  0.1447
  214loPI   GL2 3414  15.769  15.007  10.214 -0.0399 -0.1924  0.1694
  214loPI   C1A 3415  16.015  15.071   9.627  0.1201  0.0167 -0.2243
  214loPI   C2A 3416  16.036  14.989   9.178  0.4768  0.0515 -0.0153
  214loPI   C3A 3417  16.077  14.899   8.755 -0.3924 -0.0483  0.1643
  214loPI   C4A 3418  16.057  14.840   8.357 -0.1764  0.0921 -0.0216
  214loPI   C5A 3419  15.719  14.862   8.039 -0.2352 -0.2283  0.0810
  214loPI   C6A 3420  15.290  14.836   8.033 -0.0796  0.4645  0.1844
  214loPI   C1B 3421  15.550  14.950   9.825 -0.0005 -0.0506  0.0394
  214loPI   C2B 3422  15.456  14.970   9.386 -0.1449  0.3499 -0.0273
  214loPI   C3B 3423  15.592  14.902   8.938 -0.0899 -0.0257 -0.1916
  214loPI   C4B 3424  15.627  14.891   8.529 -0.0882  0.0035 -0.2781
  215loPI    C1 3425   9.223  12.596  10.920 -0.2372 -0.1774 -0.1114
  215loPI    C2 3426   9.383  12.230  10.908  0.1353 -0.0273  0.1057
  215loPI    C3 3427   9.358  12.425  11.256 -0.0098  0.1761 -0.0172
  215loPI   PO4 3428   9.316  12.757  10.764 -0.0019  0.0115  0.1798
  215loPI   GL1 3429   9.145  12.895  10.408 -0.1046 -0.2255  0.2877
  215loPI   GL2 3430   8.820  12.767  10.571 -0.0267 -0.1963 -0.0317
  215loPI   C1A 3431   9.174  12.820   9.975  0.2722 -0.0538 -0.0845
  215loPI   C2A 3432   9.094  12.781   9.523  0.0481  0.0026 -0.0785
  215loPI   C3A 3433   8.946  12.796   9.110 -0.1282  0.0201  0.1893
  215loPI   C4A 3434   8.998  13.066   8.775 -0.0355  0.1349 -0.3553
  215loPI   C5A 3435   9.245  13.255   8.487  0.2169  0.0311 -0.1087
  215loPI   C6A 3436   9.509  13.601   8.300  0.1644  0.1005 -0.0576
  215loPI   C1B 3437   8.689  12.806  10.133  0.0822 -0.0241  0.2018
  215loPI   C2B 3438   8.635  12.822   9.724  0.2458 -0.3463  0.0309
  215loPI   C3B 3439   8.522  12.679   9.277  0.1383  0.1158  0.0366
  215loPI   C4B 3440   8.507  12.782   8.866  0.1146 -0.0210  0.0528
  216loPI    C1 3441   4.692   8.657  11.269 -0.1378 -0.0619 -0.0675
  216loPI    C2 3442   4.696   8.862  11.613  0.2145 -0.4848  0.1918
  216loPI    C3 3443   4.349   8.786  11.429  0.0404 -0.0775  0.3404
  216loPI   PO4 3444   4.863   8.779  11.086 -0.0376  0.1208  0.3411
  216loPI   GL1 3445   4.934   9.125  10.848 -0.4623  0.0261  0.2612
  216loPI   GL2 3446   4.810   8.946  10.566  0.0855 -0.3474  0.1066
  216loPI   C1A 3447   5.208   9.212  10.476  0.1938 -0.1365 -0.1579
  216loPI   C2A 3448   5.295   9.223  10.038 -0.2781 -0.1124  0.1558
  216loPI   C3A 3449   5.413   9.260   9.598  0.0949  0.1432  0.1099
  216loPI   C4A 3450   5.537   9.245   9.102  0.2060  0.0777 -0.0073
  216loPI   C5A 3451   5.626   9.142   8.746 -0.3658  0.1047 -0.0117
  216loPI   C6A 3452   6.011   8.851   8.689 -0.1577  0.0976 -0.0696
  216loPI   C1B 3453   4.843   9.122  10.086  0.0666  0.0132 -0.3671
  216loPI   C2B 3454   4.868   9.266   9.657  0.1042  0.0134  0.0259
  216loPI   C3B 3455   5.037   9.160   9.313  0.1918 -0.0222  0.0068
  216loPI   C4B 3456   5.096   9.097   8.918  0.1658 -0.4252  0.1275
  217loPI    C1 3457  13.187  11.990  11.275 -0.1160 -0.0022  0.3442
  217loPI    C2 3458  13.270  12.337  11.095  0.0036 -0.2516 -0.0977
  217loPI    C3 3459  13.553  12.150  11.308  0.1025 -0.3350 -0.3002
  217loPI   PO4 3460  13.066  11.908  10.996 -0.1355  0.1062 -0.2174
  217loPI   GL1 3461  12.881  11.952  10.539  0.2063  0.0070  0.2208
  217loPI   GL2 3462  12.528  12.016  10.452 -0.0631  0.1537 -0.2138
  217loPI   C1A 3463  12.901  11.843  10.118  0.2235  0.2158  0.0069
  217loPI   C2A 3464  12.730  11.801   9.758 -0.0532  0.0307  0.1911
  217loPI   C3A 3465  12.638  11.841   9.341  0.0319 -0.1260 -0.0366
  217loPI   C4A 3466  12.599  11.799   8.837 -0.2422 -0.0726 -0.0258
  217loPI   C5A 3467  12.501  11.777   8.427  0.2653 -0.0169  0.1173
  217loPI   C6A 3468  12.261  11.927   8.079  0.2318  0.0980 -0.4760
  217loPI   C1B 3469  12.480  12.243   9.954 -0.0810 -0.1171  0.0486
  217loPI   C2B 3470  12.289  12.175   9.475  0.0430  0.3289 -0.0619
  217loPI   C3B 3471  12.261  12.133   9.036  0.1102  0.0841  0.0513
  217loPI   C4B 3472  12.150  12.110   8.663  0.1024 -0.0502 -0.2248
  218loPI    C1 3473   3.096   1.871  11.148  0.2770 -0.2168 -0.1481
  218loPI    C2 3474   2.937   1.963  11.503 -0.1765 -0.0286 -0.3919
  218loPI    C3 3475   3.216   2.200  11.342 -0.1844  0.0468 -0.2956
  218loPI   PO4 3476   2.784   1.758  11.051  0.1318  0.0894 -0.1642
  218loPI   GL1 3477   2.670   1.798  10.596  0.3861  0.3183  0.3035
  218loPI   GL2 3478   2.676   1.388  10.495  0.0129  0.1354 -0.1068
  218loPI   C1A 3479   2.787   1.773  10.194 -0.2222 -0.0341  0.1080
  218loPI   C2A 3480   2.852   1.814   9.698 -0.0197 -0.0821 -0.2617
  218loPI   C3A 3481   2.919   1.752   9.299 -0.3431 -0.1231  0.0864
  218loPI   C4A 3482   2.909   1.793   8.848 -0.0352  0.1939  0.0074
  218loPI   C5A 3483   3.104   1.777   8.446 -0.0843 -0.0682 -0.0061
  218loPI   C6A 3484   3.348   1.628   8.112 -0.0440 -0.2085  0.0199
  218loPI   C1B 3485   2.809   1.124  10.229  0.0214  0.2013  0.3141
  218loPI   C2B 3486   2.907   1.035   9.795  0.1521  0.0724 -0.2746
  218loPI   C3B 3487   2.948   0.953   9.450  0.2389 -0.1126 -0.1499
  218loPI   C4B 3488   2.984   0.905   9.044 -0.0058 -0.1482  0.1046
  219loPI    C1 3489  11.548   9.244  11.001 -0.0690 -0.0157 -0.0194
  219loPI    C2 3490  11.463   8.952  11.261  0.3892 -0.2374 -0.1075
  219loPI    C3 3491  11.429   9.335  11.372  0.2230 -0.3257  0.1567
  219loPI   PO4 3492  11.752   9.093  10.862 -0.1589  0.1223  0.0412
  219loPI   GL1 3493  12.018   8.981  10.534  0.0044 -0.0861  0.5293
  219loPI   GL2 3494  11.929   9.301  10.382 -0.2673 -0.0702  0.0360
  219loPI   C1A 3495  12.016   9.038   9.982 -0.1244  0.0528 -0.0990
  219loPI   C2A 3496  11.986   9.041   9.541 -0.1706 -0.0469 -0.0571
  219loPI   C3A 3497  12.074   9.004   9.193  0.0507  0.1969 -0.0454
  219loPI   C4A 3498  12.057   9.025   8.702 -0.0704  0.1388 -0.3571
  219loPI   C5A 3499  12.151   8.907   8.271  0.0907  0.0023 -0.2237
  219loPI   C6A 3500  12.235   8.812   7.848  0.1173 -0.2127  0.1313
  219loPI   C1B 3501  11.826   9.485   9.864  0.0845 -0.0776  0.0581
  219loPI   C2B 3502  11.675   9.450   9.474  0.1828 -0.1384 -0.0658
  219loPI   C3B 3503  11.515   9.546   9.055  0.0954  0.2374 -0.2212
  219loPI   C4B 3504  11.462   9.534   8.606  0.0079 -0.0204 -0.2259
  220loPI    C1 3505   2.365   8.124  11.143  0.1311 -0.1580 -0.1129
  220loPI    C2 3506   1.985   8.120  11.267  0.1449 -0.2245 -0.0722
  220loPI    C3 3507   2.281   8.048  11.527  0.1892 -0.1125 -0.0909
  220loPI   PO4 3508   2.370   8.294  10.962  0.3188  0.0979  0.3541
  220loPI   GL1 3509   2.358   8.313  10.420 -0.1087 -0.0560  0.2572
  220loPI   GL2 3510   2.196   8.101  10.282 -0.0346  0.0286  0.0096
  220loPI   C1A 3511   2.538   8.515  10.094 -0.1034  0.0106  0.2778
  220loPI   C2A 3512   2.534   8.612   9.669  0.0047 -0.0171  0.1677
  220loPI   C3A 3513   2.547   8.549   9.214 -0.1833 -0.3080  0.1089
  220loPI   C4A 3514   2.626   8.596   8.796 -0.0544 -0.0125 -0.0260
  220loPI   C5A 3515   2.630   8.424   8.428  0.0393  0.1623  0.0676
  220loPI   C6A 3516   2.775   8.356   7.907  0.0285  0.3221 -0.0060
  220loPI   C1B 3517   2.302   8.080   9.818  0.3279  0.0571 -0.0284
  220loPI   C2B 3518   2.299   8.155   9.374 -0.2956 -0.0058  0.0642
  220loPI   C3B 3519   2.329   8.148   8.978 -0.0387 -0.2435 -0.2176
  220loPI   C4B 3520   2.150   8.351   8.606 -0.1385  0.0525 -0.0413
  221loPI    C1 3521   2.231   0.525  10.975 -0.0489  0.0378  0.1639
  221loPI    C2 3522   2.059   0.861  11.107 -0.0881  0.0152  0.1705
  221loPI    C3 3523   1.956   0.509  11.265 -0.1268 -0.0107  0.0879
  221loPI   PO4 3524   2.399   0.519  10.665  0.1541  0.3069 -0.1717
  221loPI   GL1 3525   2.575   0.556  10.348 -0.1391  0.2782 -0.0007
  221loPI   GL2 3526   2.881   0.639  10.169 -0.0716 -0.1839 -0.1015
  221loPI   C1A 3527   2.569   0.428   9.876  0.1142  0.1609  0.1603
  221loPI   C2A 3528   2.674   0.520   9.487  0.0109 -0.0922 -0.0266
  221loPI   C3A 3529   2.803   0.455   9.085  0.1931 -0.2859  0.1592
  221loPI   C4A 3530   2.784   0.615   8.699 -0.2241  0.0933 -0.0243
  221loPI   C5A 3531   2.939   0.778   8.369  0.3401 -0.2184  0.1692
  221loPI   C6A 3532   3.103   1.120   8.029  0.2367  0.2113  0.2174
  221loPI   C1B 3533   3.104   0.517   9.744 -0.0199  0.1803 -0.1233
  221loPI   C2B 3534   3.251   0.496   9.300  0.1232  0.2856  0.0958
  221loPI   C3B 3535   3.256   0.534   8.813 -0.0705  0.1189  0.0626
  221loPI   C4B 3536   3.222   0.345   8.470  0.2559  0.1596  0.0067
  222loPI    C1 3537   7.687   9.846  11.250 -0.2615  0.2015 -0.0029
  222loPI    C2 3538   7.563   9.520  11.445  0.2156  0.0099 -0.0080
  222loPI    C3 3539   7.550   9.877  11.625  0.0644 -0.0702  0.1434
  222loPI   PO4 3540   7.656   9.835  11.019 -0.4746 -0.0449  0.1642
  222loPI   GL1 3541   7.722   9.913  10.606  0.3286  0.1825 -0.2833
  222loPI   GL2 3542   7.426   9.670  10.582  0.1737  0.0346  0.2326
  222loPI   C1A 3543   7.628   9.953  10.190 -0.1788  0.2690  0.1056
  222loPI   C2A 3544   7.735   9.878   9.740 -0.2170  0.1917 -0.0344
  222loPI   C3A 3545   7.729   9.937   9.324  0.0311 -0.1617 -0.3308
  222loPI   C4A 3546   7.740   9.983   8.851 -0.0509  0.3550  0.1943
  222loPI   C5A 3547   7.646  10.136   8.454  0.0798 -0.0560  0.1252
  222loPI   C6A 3548   7.250  10.091   8.196  0.1421 -0.0426  0.0428
  222loPI   C1B 3549   7.445   9.477  10.116 -0.0617  0.0036  0.2156
  222loPI   C2B 3550   7.444   9.449   9.700  0.0069 -0.0628 -0.0154
  222loPI   C3B 3551   7.507   9.463   9.258 -0.0167  0.1191  0.2560
  222loPI   C4B 3552   7.527   9.495   8.805 -0.0665  0.0310  0.0573
  223loPI    C1 3553   6.909  12.265  11.015  0.2111 -0.2281 -0.0264
  223loPI    C2 3554   7.164  12.283  11.323  0.0945  0.0787  0.0554
  223loPI    C3 3555   6.882  12.564  11.279  0.0032 -0.0549 -0.2393
  223loPI   PO4 3556   7.041  12.195  10.703  0.3213  0.0659 -0.2458
  223loPI   GL1 3557   7.329  12.201  10.431  0.1540 -0.1198 -0.0300
  223loPI   GL2 3558   7.324  11.782  10.526 -0.0705 -0.1281 -0.0872
  223loPI   C1A 3559   7.198  12.039  10.088  0.2109 -0.0506 -0.1726
  223loPI   C2A 3560   7.260  12.080   9.624  0.0304 -0.0734  0.0591
  223loPI   C3A 3561   7.282  12.184   9.143 -0.0117  0.0553 -0.0617
  223loPI   C4A 3562   7.358  12.322   8.780  0.0155  0.1863 -0.2105
  223loPI   C5A 3563   7.607  12.257   8.452 -0.1796  0.3359 -0.1943
  223loPI   C6A 3564   7.994  12.137   8.250  0.0391 -0.1179 -0.2994
  223loPI   C1B 3565   7.021  11.621  10.236 -0.0540 -0.2165 -0.0644
  223loPI   C2B 3566   6.982  11.648   9.792 -0.0467  0.2771 -0.3008
  223loPI   C3B 3567   7.049  11.592   9.287 -0.0263 -0.2343 -0.0352
  223loPI   C4B 3568   7.020  11.774   8.844  0.0237  0.1278 -0.1209
  224loPI    C1 3569  16.185   2.105  10.519 -0.0033 -0.2690 -0.0868
  224loPI    C2 3570  16.240   1.724  10.628  0.0807 -0.2468 -0.0505
  224loPI    C3 3571  16.053   1.978  10.875  0.1828 -0.2209  0.0009
  224loPI   PO4 3572  16.131   2.091  10.260  0.1475 -0.1331 -0.1788
  224loPI   GL1 3573  15.933   1.982   9.856  0.0819 -0.0037 -0.3232
  224loPI   GL2 3574  15.871   2.284   9.817 -0.0171 -0.2694 -0.2517
  224loPI   C1A 3575  16.031   1.776   9.463  0.0309 -0.3162  0.0569
  224loPI   C2A 3576  16.296   1.716   9.122 -0.0603  0.0640 -0.1462
  224loPI   C3A 3577  16.450   1.323   8.959 -0.1084 -0.1550  0.1648
  224loPI   C4A 3578  16.242   1.048   8.776  0.3901  0.4356  0.0593
  224loPI   C5A 3579  16.095   0.739   8.829  0.0241 -0.1040  0.0717
  224loPI   C6A 3580  15.802   0.592   9.223  0.2041 -0.1888  0.2500
  224loPI   C1B 3581  16.053   2.316   9.439 -0.3179 -0.0729 -0.1134
  224loPI   C2B 3582  16.134   2.465   9.086 -0.1732 -0.0914  0.1014
  224loPI   C3B 3583  15.904   2.502   8.709 -0.2173 -0.2486  0.1570
  224loPI   C4B 3584  15.504   2.409   8.667 -0.3241  0.1426  0.4645
  225loPI    C1 3585   0.913  13.345  10.904 -0.1556  0.0293  0.1925
  225loPI    C2 3586   1.248  13.546  10.820 -0.1186 -0.0680  0.1049
  225loPI    C3 3587   0.974  13.706  11.065 -0.2866  0.2777 -0.2958
  225loPI   PO4 3588   0.864  13.229  10.679 -0.3435 -0.1956 -0.0211
  225loPI   GL1 3589   1.155  13.380  10.357  0.2506 -0.1609 -0.3245
  225loPI   GL2 3590   0.872  13.385  10.178 -0.1714 -0.0762  0.0813
  225loPI   C1A 3591   1.192  13.019   9.957 -0.1663 -0.0441  0.0063
  225loPI   C2A 3592   1.073  12.997   9.491  0.1205 -0.1781 -0.1044
  225loPI   C3A 3593   1.061  12.757   9.105 -0.0416  0.0756 -0.1320
  225loPI   C4A 3594   0.870  12.476   8.765 -0.1093  0.0178  0.1106
  225loPI   C5A 3595   0.382  12.332   8.759  0.1777  0.1984  0.4024
  225loPI   C6A 3596   0.194  11.988   9.019  0.0810 -0.0947 -0.2272
  225loPI   C1B 3597   0.818  13.394   9.715 -0.2236  0.3642  0.0531
  225loPI   C2B 3598   0.853  13.408   9.294  0.0719 -0.3879 -0.2662
  225loPI   C3B 3599   1.032  13.261   8.990 -0.1753  0.0012 -0.0623
  225loPI   C4B 3600   1.167  13.034   8.677 -0.3367 -0.1681 -0.2260
  226loPI    C1 3601   8.967  10.558  11.502 -0.0031 -0.0563 -0.2234
  226loPI    C2 3602   8.604  10.712  11.569 -0.0465 -0.1767 -0.1776
  226loPI    C3 3603   8.812  10.555  11.871  0.0450 -0.1063 -0.2035
  226loPI   PO4 3604   9.029  10.700  11.303 -0.2672 -0.0064  0.0173
  226loPI   GL1 3605   8.878  10.700  10.878 -0.0921  0.1137 -0.0865
  226loPI   GL2 3606   8.548  10.481  10.694  0.4820 -0.0647 -0.0527
  226loPI   C1A 3607   8.953  10.514  10.439 -0.3087 -0.1251  0.1357
  226loPI   C2A 3608   9.019  10.499   9.922  0.1095  0.0120 -0.0918
  226loPI   C3A 3609   9.038  10.440   9.478  0.1712 -0.1069  0.4520
  226loPI   C4A 3610   8.960  10.485   9.074 -0.2071 -0.1328  0.3503
  226loPI   C5A 3611   8.930  10.644   8.591 -0.0328  0.1775 -0.1510
  226loPI   C6A 3612   9.271  10.740   8.308  0.2037  0.0224  0.1840
  226loPI   C1B 3613   8.519  10.468  10.236 -0.2323  0.2390  0.0375
  226loPI   C2B 3614   8.499  10.386   9.797  0.3111 -0.1332  0.3186
  226loPI   C3B 3615   8.501  10.440   9.367  0.1856 -0.0222  0.0908
  226loPI   C4B 3616   8.456  10.475   8.948 -0.0384  0.0030  0.1092
  227loPI    C1 3617  12.300   1.418  10.748 -0.0209 -0.1152 -0.0165
  227loPI    C2 3618  12.099   1.329  11.082 -0.2301  0.2801 -0.0305
  227loPI    C3 3619  12.194   1.709  11.001  0.2252  0.1374 -0.1979
  227loPI   PO4 3620  12.131   1.293  10.580  0.1200 -0.4192  0.0055
  227loPI   GL1 3621  12.156   1.386  10.252 -0.1305 -0.0132  0.0105
  227loPI   GL2 3622  11.804   1.403  10.216  0.0337  0.0828  0.1429
  227loPI   C1A 3623  12.146   1.421   9.762  0.0991 -0.0172  0.2270
  227loPI   C2A 3624  12.150   1.466   9.306  0.1533  0.4293  0.0302
  227loPI   C3A 3625  11.962   1.396   8.921  0.2105 -0.1575  0.0050
  227loPI   C4A 3626  11.772   1.622   8.582 -0.0021 -0.3769 -0.2243
  227loPI   C5A 3627  11.531   1.449   8.240  0.2270 -0.1124 -0.1420
  227loPI   C6A 3628  11.166   1.561   8.140 -0.0346  0.1549  0.0998
  227loPI   C1B 3629  11.621   1.459   9.769  0.0253 -0.3305 -0.0113
  227loPI   C2B 3630  11.663   1.374   9.381 -0.1281  0.0012  0.1797
  227loPI   C3B 3631  11.448   1.427   8.926  0.0037 -0.0255  0.0492
  227loPI   C4B 3632  11.263   1.771   8.699  0.0523 -0.1203 -0.2219
  228loPI    C1 3633  17.807   0.637  10.760  0.1679  0.1097  0.0936
  228loPI    C2 3634  17.635   0.278  10.725  0.3878  0.0172 -0.0606
  228loPI    C3 3635  17.477   0.552  10.969  0.0179 -0.0608 -0.2056
  228loPI   PO4 3636  18.008   0.583  10.571  0.1211  0.0769  0.3741
  228loPI   GL1 3637  17.977   0.496  10.074 -0.1588  0.1746 -0.1217
  228loPI   GL2 3638  18.018   0.811  10.082  0.2470  0.0500 -0.2089
  228loPI   C1A 3639  17.815   0.634   9.688 -0.0363  0.1150 -0.0401
  228loPI   C2A 3640  17.775   0.677   9.273  0.1935 -0.1281  0.1640
  228loPI   C3A 3641  17.608   0.706   8.825  0.0860 -0.0469 -0.0754
  228loPI   C4A 3642  17.218   0.796   8.623 -0.4033  0.0128  0.1224
  228loPI   C5A 3643  17.042   1.012   8.311  0.2448  0.1529  0.1772
  228loPI   C6A 3644  16.616   1.256   8.507 -0.1834  0.1172  0.2252
  228loPI   C1B 3645  18.238   0.912   9.787 -0.0122 -0.0371  0.4940
  228loPI   C2B 3646  18.374   0.800   9.394 -0.0682 -0.0364 -0.0364
  228loPI   C3B 3647  18.589   0.493   9.117 -0.3425 -0.2609  0.3045
  228loPI   C4B 3648  18.408   0.306   8.754 -0.0970 -0.0139  0.1799
  229loPI    C1 3649   5.007   6.937  11.405 -0.0856  0.0795  0.1398
  229loPI    C2 3650   5.005   6.966  11.804 -0.0772  0.1220  0.1369
  229loPI    C3 3651   4.883   6.628  11.628 -0.1303  0.1219  0.1739
  229loPI   PO4 3652   5.157   7.084  11.309 -0.1384  0.2560 -0.1832
  229loPI   GL1 3653   5.109   7.263  10.866  0.2180 -0.0734 -0.2733
  229loPI   GL2 3654   4.896   6.991  10.853  0.2413  0.1104 -0.0491
  229loPI   C1A 3655   5.073   7.407  10.447  0.2400 -0.1074  0.1662
  229loPI   C2A 3656   4.997   7.384   9.973 -0.0564  0.1489 -0.1202
  229loPI   C3A 3657   5.094   7.427   9.514  0.0437  0.2404 -0.3162
  229loPI   C4A 3658   5.051   7.362   9.174  0.3786  0.0279 -0.2158
  229loPI   C5A 3659   4.966   7.095   8.896  0.0322  0.0910 -0.1143
  229loPI   C6A 3660   4.734   7.028   8.604  0.4630 -0.0874  0.3321
  229loPI   C1B 3661   4.687   7.079  10.488 -0.2064  0.1102 -0.0879
  229loPI   C2B 3662   4.750   6.949  10.148  0.0649 -0.2860 -0.5649
  229loPI   C3B 3663   4.854   6.976   9.726  0.0625 -0.1370 -0.1192
  229loPI   C4B 3664   4.791   6.952   9.336  0.0085  0.1054 -0.0172
  230loPI    C1 3665  12.731  12.262  11.053  0.0132  0.1575 -0.0875
  230loPI    C2 3666  12.757  12.625  11.219  0.0943  0.1974 -0.1865
  230loPI    C3 3667  12.826  12.298  11.439 -0.0815  0.2367 -0.0713
  230loPI   PO4 3668  12.838  12.363  10.808  0.1375 -0.1536  0.1610
  230loPI   GL1 3669  13.019  12.354  10.279 -0.2053  0.0346  0.1773
  230loPI   GL2 3670  13.068  12.635  10.438 -0.1117  0.2937  0.1981
  230loPI   C1A 3671  12.969  12.285   9.853  0.0353 -0.0969  0.0182
  230loPI   C2A 3672  12.877  12.277   9.495 -0.0274  0.1544  0.2389
  230loPI   C3A 3673  12.843  12.239   9.100 -0.1007 -0.3691  0.1343
  230loPI   C4A 3674  12.639  12.315   8.766 -0.1675 -0.1844 -0.1035
  230loPI   C5A 3675  12.556  12.502   8.340  0.0833 -0.1762 -0.0533
  230loPI   C6A 3676  12.265  12.433   7.938  0.2653  0.2956  0.0240
  230loPI   C1B 3677  13.237  12.816   9.965 -0.2905 -0.0153  0.0847
  230loPI   C2B 3678  13.135  12.829   9.518 -0.2163  0.0023 -0.0200
  230loPI   C3B 3679  12.968  12.733   9.202  0.1673  0.0855 -0.1300
  230loPI   C4B 3680  12.794  12.738   8.693 -0.2583  0.0439 -0.1737
  231loPI    C1 3681   3.450   0.975  11.120 -0.1128 -0.0568 -0.0898
  231loPI    C2 3682   3.107   0.904  11.312 -0.0372  0.0712  0.0959
  231loPI    C3 3683   3.432   0.687  11.396 -0.0243  0.0746  0.0552
  231loPI   PO4 3684   3.371   0.948  10.844  0.1690  0.0472  0.1281
  231loPI   GL1 3685   3.376   0.734  10.473  0.0370  0.1820  0.2126
  231loPI   GL2 3686   3.655   0.832  10.429  0.1856  0.1782  0.2889
  231loPI   C1A 3687   3.342   0.883  10.081 -0.1399 -0.2464  0.0792
  231loPI   C2A 3688   3.459   1.022   9.699 -0.0969 -0.0700 -0.1765
  231loPI   C3A 3689   3.506   0.982   9.289 -0.1615  0.5912  0.1017
  231loPI   C4A 3690   3.483   0.979   8.852  0.0196 -0.0944  0.0335
  231loPI   C5A 3691   3.502   0.803   8.460 -0.1436  0.0037  0.0577
  231loPI   C6A 3692   3.818   0.842   8.049  0.0436 -0.0106 -0.2385
  231loPI   C1B 3693   3.842   1.029  10.005 -0.0520  0.2005  0.1656
  231loPI   C2B 3694   3.969   1.064   9.578  0.3014 -0.0707  0.0902
  231loPI   C3B 3695   4.007   1.022   9.113 -0.0038  0.3804 -0.1967
  231loPI   C4B 3696   4.009   1.037   8.672  0.1971 -0.2352 -0.0908
  232loPI    C1 3697  15.037  17.106  10.708 -0.2826  0.0267  0.0278
  232loPI    C2 3698  15.411  17.233  10.646 -0.3093  0.0407 -0.1088
  232loPI    C3 3699  15.298  17.113  11.011 -0.1645  0.0109 -0.0729
  232loPI   PO4 3700  15.034  16.930  10.500  0.0636 -0.0225  0.4443
  232loPI   GL1 3701  15.011  16.827  10.105 -0.0592 -0.1904 -0.3503
  232loPI   GL2 3702  15.233  16.586   9.998  0.1867  0.0753 -0.0244
  232loPI   C1A 3703  14.891  16.829   9.626 -0.1812  0.2006  0.0679
  232loPI   C2A 3704  14.667  16.688   9.340 -0.1327  0.3098  0.1510
  232loPI   C3A 3705  14.639  16.577   8.909 -0.5064  0.1706  0.0513
  232loPI   C4A 3706  14.754  16.506   8.535 -0.1111  0.1824  0.0946
  232loPI   C5A 3707  15.126  16.655   8.290 -0.0464 -0.0395 -0.1020
  232loPI   C6A 3708  15.217  17.040   8.091  0.0786  0.2902 -0.2284
  232loPI   C1B 3709  15.215  16.347   9.671 -0.1997 -0.0747  0.1871
  232loPI   C2B 3710  14.928  16.223   9.368  0.0316 -0.1758  0.0479
  232loPI   C3B 3711  14.989  16.163   8.965 -0.3122  0.2315 -0.3653
  232loPI   C4B 3712  15.033  16.011   8.542 -0.5056 -0.1231 -0.0203
  233loPI    C1 3713   0.898   7.651  11.200  0.2317 -0.0019 -0.0392
  233loPI    C2 3714   1.010   7.802  11.553 -0.0651  0.0120  0.0514
  233loPI    C3 3715   0.622   7.747  11.473  0.0013 -0.0155 -0.2640
  233loPI   PO4 3716   1.127   7.657  11.060 -0.0539  0.1725  0.2252
  233loPI   GL1 3717   1.175   7.499  10.712 -0.0050  0.0660  0.1611
  233loPI   GL2 3718   1.085   7.692  10.407  0.0152 -0.3016 -0.0281
  233loPI   C1A 3719   1.316   7.174  10.220  0.0305 -0.0088  0.0581
  233loPI   C2A 3720   1.359   7.075   9.769  0.1980  0.1047  0.1266
  233loPI   C3A 3721   1.225   7.065   9.368  0.0246  0.0226 -0.1521
  233loPI   C4A 3722   1.340   7.098   8.979 -0.2766 -0.0229 -0.0985
  233loPI   C5A 3723   1.462   6.956   8.651 -0.0936  0.0146 -0.0128
  233loPI   C6A 3724   1.182   6.915   8.210 -0.0521 -0.2389  0.1769
  233loPI   C1B 3725   0.981   7.520   9.967  0.2282  0.1233  0.0970
  233loPI   C2B 3726   0.980   7.456   9.444  0.1462 -0.1104  0.1800
  233loPI   C3B 3727   1.090   7.567   9.035 -0.2002  0.1227 -0.0741
  233loPI   C4B 3728   1.060   7.368   8.611  0.0547  0.0008 -0.0302
  234loPI    C1 3729   1.270  14.716  10.996 -0.0873 -0.0130  0.1577
  234loPI    C2 3730   1.459  14.577  11.320 -0.0956 -0.2821  0.0498
  234loPI    C3 3731   1.310  14.948  11.319  0.0785 -0.2092  0.2807
  234loPI   PO4 3732   1.439  14.737  10.707 -0.1810 -0.2789 -0.1591
  234loPI   GL1 3733   1.266  14.882  10.247 -0.2229 -0.0867 -0.0983
  234loPI   GL2 3734   0.983  15.016  10.136 -0.1302  0.1235  0.0112
  234loPI   C1A 3735   1.332  14.817   9.823 -0.2592 -0.0586 -0.3314
  234loPI   C2A 3736   1.204  14.698   9.416 -0.2088  0.2054 -0.2496
  234loPI   C3A 3737   1.125  14.753   8.958 -0.4035  0.1276  0.2148
  234loPI   C4A 3738   1.164  14.936   8.581 -0.1111 -0.2460  0.2019
  234loPI   C5A 3739   1.205  14.762   8.136 -0.1138  0.0569  0.0290
  234loPI   C6A 3740   1.243  14.476   7.740 -0.1942 -0.1008  0.0173
  234loPI   C1B 3741   0.761  14.918   9.761  0.2460 -0.1442  0.1184
  234loPI   C2B 3742   0.657  14.769   9.396  0.1968  0.0270 -0.3097
  234loPI   C3B 3743   0.580  14.738   8.926 -0.1611  0.2383  0.1334
  234loPI   C4B 3744   0.683  14.753   8.508  0.0696 -0.2428 -0.0351
  235loPI    C1 3745  14.965   2.451  10.724  0.2131 -0.1421  0.0433
  235loPI    C2 3746  15.039   2.108  10.916 -0.0280 -0.1911  0.0516
  235loPI    C3 3747  14.940   2.435  11.123  0.1350 -0.1327  0.0388
  235loPI   PO4 3748  14.822   2.357  10.498  0.1725 -0.0700 -0.1253
  235loPI   GL1 3749  14.389   2.424  10.352 -0.2253 -0.0983  0.4087
  235loPI   GL2 3750  14.445   2.701  10.216 -0.1471 -0.1167 -0.2131
  235loPI   C1A 3751  14.181   2.369   9.984  0.1855 -0.0522  0.2808
  235loPI   C2A 3752  14.020   2.498   9.650 -0.1671 -0.4605 -0.1224
  235loPI   C3A 3753  13.971   2.706   9.245 -0.1960  0.0139  0.0714
  235loPI   C4A 3754  13.861   2.899   8.844  0.3017 -0.0463 -0.1497
  235loPI   C5A 3755  13.698   3.039   8.534  0.0759  0.1793  0.0837
  235loPI   C6A 3756  13.306   3.333   8.540  0.2216 -0.2499  0.0001
  235loPI   C1B 3757  14.202   2.894   9.889  0.1920  0.0344  0.1139
  235loPI   C2B 3758  14.036   3.066   9.503  0.1472 -0.1526 -0.1501
  235loPI   C3B 3759  14.047   3.282   9.113  0.0563  0.3550 -0.3549
  235loPI   C4B 3760  14.194   3.317   8.608 -0.2378 -0.2629 -0.1738
  236loPI    C1 3761   3.433   9.412  11.309 -0.0201 -0.1089  0.1060
  236loPI    C2 3762   3.051   9.493  11.224  0.0298 -0.0729 -0.0901
  236loPI    C3 3763   3.217   9.640  11.556 -0.0685  0.0829 -0.1092
  236loPI   PO4 3764   3.625   9.522  11.118  0.2592  0.0662  0.1287
  236loPI   GL1 3765   3.428   9.554  10.786  0.2494  0.2860  0.1701
  236loPI   GL2 3766   3.527   9.657  10.513  0.3019 -0.0384 -0.1428
  236loPI   C1A 3767   3.184   9.277  10.383 -0.1851 -0.1161  0.2957
  236loPI   C2A 3768   3.177   9.145   9.897 -0.4047 -0.0284 -0.1464
  236loPI   C3A 3769   3.273   9.138   9.479  0.2192  0.4046  0.0297
  236loPI   C4A 3770   3.335   9.060   9.046 -0.1518 -0.0679 -0.1547
  236loPI   C5A 3771   3.537   9.039   8.693 -0.1598  0.1699  0.1458
  236loPI   C6A 3772   3.409   8.954   8.303  0.0578 -0.1966 -0.1788
  236loPI   C1B 3773   3.391   9.605  10.052 -0.0753  0.2451  0.2576
  236loPI   C2B 3774   3.470   9.619   9.601 -0.0885 -0.2356 -0.1305
  236loPI   C3B 3775   3.438   9.550   9.215  0.3536  0.1815 -0.2112
  236loPI   C4B 3776   3.633   9.545   8.835  0.2231 -0.2021 -0.0119
  237loPI    C1 3777   0.773  10.228  10.633 -0.2421  0.1879  0.0432
  237loPI    C2 3778   0.586  10.405  10.940  0.0784  0.3878  0.1274
  237loPI    C3 3779   0.878  10.141  11.009 -0.1134  0.1365 -0.0043
  237loPI   PO4 3780   0.871  10.397  10.414 -0.1584 -0.0623 -0.1425
  237loPI   GL1 3781   0.755  10.719  10.135  0.1540 -0.3424 -0.0051
  237loPI   GL2 3782   0.582  10.494  10.046  0.3358  0.2124  0.1932
  237loPI   C1A 3783   1.154  10.693   9.922 -0.1096  0.1565 -0.1864
  237loPI   C2A 3784   1.488  10.705   9.727  0.1101 -0.1166  0.2329
  237loPI   C3A 3785   1.598  10.771   9.316  0.1497 -0.0341 -0.0406
  237loPI   C4A 3786   1.617  10.668   8.900 -0.0656  0.3240  0.0332
  237loPI   C5A 3787   1.573  10.708   8.429  0.0984  0.0178 -0.0787
  237loPI   C6A 3788   1.512  10.601   7.948 -0.2268 -0.1024 -0.1761
  237loPI   C1B 3789   0.795  10.385   9.703 -0.0789  0.1665 -0.2387
  237loPI   C2B 3790   0.782  10.262   9.279 -0.0389  0.3076 -0.1326
  237loPI   C3B 3791   0.967  10.256   8.858 -0.0002  0.0553  0.1447
  237loPI   C4B 3792   0.910  10.147   8.470  0.0971  0.0313 -0.2887
  238loPI    C1 3793  14.599   8.492  11.300  0.0514  0.0398 -0.1164
  238loPI    C2 3794  14.695   8.166  11.511  0.2311  0.0047 -0.2503
  238loPI    C3 3795  14.832   8.525  11.623  0.0243  0.0376 -0.0965
  238loPI   PO4 3796  14.670   8.396  11.059  0.0376  0.2210 -0.1853
  238loPI   GL1 3797  14.577   8.541  10.610 -0.0496 -0.0813  0.0849
  238loPI   GL2 3798  14.359   8.760  10.490 -0.0373  0.1889 -0.0338
  238loPI   C1A 3799  14.805   8.474  10.177  0.0577 -0.2647  0.1732
  238loPI   C2A 3800  14.690   8.452   9.764  0.1507 -0.0342 -0.2196
  238loPI   C3A 3801  14.813   8.555   9.421 -0.0157  0.2087  0.1456
  238loPI   C4A 3802  14.717   8.513   8.922  0.1527 -0.0928  0.4238
  238loPI   C5A 3803  14.643   8.539   8.484 -0.1603  0.0983 -0.1452
  238loPI   C6A 3804  14.524   8.821   8.118  0.1366  0.4186  0.1444
  238loPI   C1B 3805  14.089   8.757  10.120 -0.1100  0.0720 -0.0034
  238loPI   C2B 3806  13.910   8.838   9.724  0.1019  0.0472  0.1213
  238loPI   C3B 3807  13.891   8.902   9.277  0.2284  0.1884 -0.0634
  238loPI   C4B 3808  13.895   8.913   8.726  0.3169  0.0869 -0.0520
  239loPI    C1 3809  15.888   4.189  10.867  0.3271  0.0243 -0.0485
  239loPI    C2 3810  15.607   4.311  11.123  0.2008  0.0437 -0.1949
  239loPI    C3 3811  15.968   4.204  11.259  0.0944 -0.0697  0.0041
  239loPI   PO4 3812  15.860   4.365  10.704  0.0457  0.1915  0.1051
  239loPI   GL1 3813  15.864   4.582  10.304  0.0335  0.3642  0.0859
  239loPI   GL2 3814  15.642   4.803  10.223 -0.0150  0.3398 -0.3711
  239loPI   C1A 3815  15.998   4.737   9.907  0.2648  0.1916 -0.0620
  239loPI   C2A 3816  15.861   4.999   9.531 -0.1054 -0.2310 -0.1728
  239loPI   C3A 3817  15.851   5.026   9.042 -0.1768  0.1633 -0.0728
  239loPI   C4A 3818  15.675   5.013   8.631  0.2172  0.3594  0.0677
  239loPI   C5A 3819  15.747   5.234   8.188  0.1669 -0.1434 -0.1408
  239loPI   C6A 3820  15.825   5.043   7.821 -0.1151 -0.0984 -0.0445
  239loPI   C1B 3821  15.432   4.805   9.803  0.1844  0.2228 -0.2733
  239loPI   C2B 3822  15.315   4.928   9.444  0.0329 -0.0822  0.0362
  239loPI   C3B 3823  15.294   4.916   8.998  0.5461  0.0233  0.0335
  239loPI   C4B 3824  15.213   4.880   8.594 -0.2096 -0.1849 -0.2032
  240loPI    C1 3825   2.381  11.254  11.139 -0.1812  0.0656 -0.0551
  240loPI    C2 3826   2.329  10.931  11.368 -0.2072 -0.0441 -0.2144
  240loPI    C3 3827   2.024  11.183  11.306 -0.0934  0.2039  0.1967
  240loPI   PO4 3828   2.411  11.130  10.868  0.0480 -0.1467 -0.0097
  240loPI   GL1 3829   2.445  11.517  10.496  0.0810 -0.1399 -0.1268
  240loPI   GL2 3830   2.768  11.341  10.409  0.0394  0.0974  0.1250
  240loPI   C1A 3831   2.352  11.676  10.100 -0.0392 -0.0007 -0.2522
  240loPI   C2A 3832   2.442  11.688   9.640  0.0254  0.1754 -0.1120
  240loPI   C3A 3833   2.549  11.690   9.199  0.2134  0.1072  0.0731
  240loPI   C4A 3834   2.591  11.771   8.770 -0.0650 -0.2635 -0.0809
  240loPI   C5A 3835   2.377  11.715   8.395  0.4300  0.2698 -0.2330
  240loPI   C6A 3836   2.475  11.903   7.998  0.2950 -0.3673  0.2197
  240loPI   C1B 3837   2.604  11.250   9.910 -0.0027 -0.2321  0.1150
  240loPI   C2B 3838   2.782  11.309   9.480  0.0694 -0.0757 -0.0525
  240loPI   C3B 3839   2.803  11.219   9.036 -0.1084  0.2667 -0.2591
  240loPI   C4B 3840   2.760  11.372   8.610 -0.0678 -0.0511  0.1031
  241loPI    C1 3841  14.962  13.236  10.844 -0.0416 -0.1541 -0.0121
  241loPI    C2 3842  14.965  13.323  11.235  0.2136 -0.1496 -0.0133
  241loPI    C3 3843  14.724  13.036  11.096  0.1224 -0.1520  0.1474
  241loPI   PO4 3844  15.179  13.349  10.626 -0.1157 -0.0502  0.0850
  241loPI   GL1 3845  15.090  13.177  10.358 -0.1469  0.2237 -0.1065
  241loPI   GL2 3846  14.776  13.180  10.281  0.2953 -0.3701 -0.0818
  241loPI   C1A 3847  15.329  13.086  10.031  0.2569 -0.0418 -0.0557
  241loPI   C2A 3848  15.243  13.000   9.592  0.2312  0.2601 -0.0511
  241loPI   C3A 3849  15.134  13.043   9.122  0.0451 -0.0642 -0.0051
  241loPI   C4A 3850  15.182  12.963   8.718  0.2335 -0.2110  0.0639
  241loPI   C5A 3851  14.911  13.022   8.363 -0.2526 -0.0212  0.0826
  241loPI   C6A 3852  14.589  12.772   8.164  0.0487  0.2778  0.1311
  241loPI   C1B 3853  14.801  12.960   9.947 -0.0093  0.2215 -0.0771
  241loPI   C2B 3854  14.720  12.897   9.610 -0.3613 -0.0641  0.2486
  241loPI   C3B 3855  14.591  13.017   9.178 -0.2166 -0.2722 -0.1534
  241loPI   C4B 3856  14.603  12.914   8.704 -0.0738 -0.0798 -0.1338
  242loPI    C1 3857   8.794  16.949  10.765 -0.1740 -0.3059  0.0734
  242loPI    C2 3858   8.715  17.330  10.673 -0.0316 -0.3047 -0.0488
  242loPI    C3 3859   8.674  17.203  11.050  0.3686 -0.0504  0.0867
  242loPI   PO4 3860   9.022  16.857  10.711  0.4267  0.0817 -0.0772
  242loPI   GL1 3861   8.971  16.569  10.400  0.2373 -0.4185 -0.0154
  242loPI   GL2 3862   9.314  16.608  10.249 -0.1565 -0.0711  0.3281
  242loPI   C1A 3863   8.826  16.679  10.069 -0.1970 -0.0537 -0.1485
  242loPI   C2A 3864   8.876  16.684   9.666  0.1557  0.0626 -0.1264
  242loPI   C3A 3865   8.942  16.755   9.191  0.0909  0.0260  0.1965
  242loPI   C4A 3866   8.965  16.785   8.810 -0.0408 -0.0003  0.1229
  242loPI   C5A 3867   8.950  16.783   8.381 -0.0201  0.0283 -0.1937
  242loPI   C6A 3868   8.847  16.730   7.936  0.0952  0.2729 -0.3853
  242loPI   C1B 3869   9.424  16.792   9.924  0.0500 -0.0315  0.2440
  242loPI   C2B 3870   9.355  16.706   9.480 -0.1849 -0.0597  0.0891
  242loPI   C3B 3871   9.446  16.835   9.064 -0.2403 -0.1355  0.0846
  242loPI   C4B 3872   9.420  16.785   8.678  0.2085 -0.0252  0.4993
  243loPI    C1 3873  16.592   6.667  11.048 -0.1167 -0.3249  0.2559
  243loPI    C2 3874  16.974   6.606  11.149  0.1017  0.3060 -0.1305
  243loPI    C3 3875  16.717   6.754  11.417  0.2602  0.3826 -0.0195
  243loPI   PO4 3876  16.620   6.717  10.858 -0.0156  0.1683 -0.0901
  243loPI   GL1 3877  16.461   6.791  10.419  0.1013  0.5262  0.1801
  243loPI   GL2 3878  16.537   6.460  10.350  0.1963  0.0919 -0.1318
  243loPI   C1A 3879  16.516   7.006  10.017 -0.0148  0.0155 -0.1960
  243loPI   C2A 3880  16.382   7.239   9.640 -0.0571 -0.2852 -0.0336
  243loPI   C3A 3881  16.159   7.122   9.298  0.1780 -0.0049  0.1157
  243loPI   C4A 3882  16.019   7.431   8.959  0.1475 -0.0276 -0.2623
  243loPI   C5A 3883  15.799   7.778   8.775  0.1993 -0.1020  0.0957
  243loPI   C6A 3884  15.755   7.934   8.399 -0.0499  0.1592 -0.1470
  243loPI   C1B 3885  16.376   6.313   9.976 -0.0732 -0.2025 -0.0202
  243loPI   C2B 3886  16.536   6.270   9.575 -0.1611  0.1076  0.2383
  243loPI   C3B 3887  16.498   6.316   9.149 -0.1079 -0.0305 -0.1446
  243loPI   C4B 3888  16.882   6.176   8.896  0.0593  0.0411 -0.1446
  244loPI    C1 3889   4.509  17.045  11.020 -0.0020 -0.0443 -0.2149
  244loPI    C2 3890   4.678  17.352  11.213  0.2919 -0.0925 -0.3888
  244loPI    C3 3891   4.761  16.976  11.323  0.0294 -0.1141 -0.2564
  244loPI   PO4 3892   4.508  17.179  10.711  0.3807  0.3516  0.1307
  244loPI   GL1 3893   4.626  17.172  10.258  0.1856  0.1153  0.2702
  244loPI   GL2 3894   4.804  17.433  10.302  0.0658 -0.1375  0.0641
  244loPI   C1A 3895   4.564  17.147   9.856 -0.1099 -0.3576 -0.2453
  244loPI   C2A 3896   4.542  17.302   9.373  0.0489 -0.0737  0.0117
  244loPI   C3A 3897   4.749  17.266   9.037  0.1807 -0.5085 -0.0662
  244loPI   C4A 3898   4.759  17.334   8.615 -0.1437 -0.0994  0.0959
  244loPI   C5A 3899   4.736  17.325   8.159  0.1888 -0.1253 -0.0165
  244loPI   C6A 3900   4.792  17.200   7.776 -0.2393 -0.2165 -0.1352
  244loPI   C1B 3901   4.871  17.553   9.821 -0.0886  0.0816 -0.1212
  244loPI   C2B 3902   4.833  17.656   9.405  0.0064  0.0515  0.1710
  244loPI   C3B 3903   4.873  17.765   8.982 -0.1736  0.1446  0.1478
  244loPI   C4B 3904   4.930  17.814   8.546 -0.1295  0.0742  0.2003
  245loPI    C1 3905  12.196   4.130  11.132  0.2408 -0.0952  0.2557
  245loPI    C2 3906  12.036   3.977  11.465 -0.2032 -0.1070  0.0439
  245loPI    C3 3907  12.102   4.370  11.438 -0.0535 -0.1211  0.1888
  245loPI   PO4 3908  12.062   3.954  10.957 -0.2090  0.0273 -0.1534
  245loPI   GL1 3909  12.069   3.921  10.530 -0.1621  0.3989 -0.0093
  245loPI   GL2 3910  12.072   3.646  10.423  0.1265  0.1321  0.0164
  245loPI   C1A 3911  12.185   4.284  10.097  0.2762  0.0214  0.0339
  245loPI   C2A 3912  12.129   4.430   9.697  0.0565  0.1689  0.0667
  245loPI   C3A 3913  12.143   4.490   9.280  0.2477 -0.1193  0.0052
  245loPI   C4A 3914  12.066   4.534   8.813  0.0247 -0.0077  0.0092
  245loPI   C5A 3915  12.058   4.434   8.378  0.2443  0.2679  0.1124
  245loPI   C6A 3916  11.981   4.542   7.980 -0.3021 -0.0038  0.1337
  245loPI   C1B 3917  11.856   3.438  10.152 -0.1582  0.2082 -0.2246
  245loPI   C2B 3918  11.910   3.175   9.727 -0.3245  0.0987  0.3523
  245loPI   C3B 3919  12.064   3.137   9.384  0.0108  0.1669  0.1166
  245loPI   C4B 3920  11.947   3.118   8.993 -0.0453  0.2173  0.1377
  246loPI    C1 3921  14.163   9.812  11.171 -0.0952  0.2674  0.0706
  246loPI    C2 3922  13.834   9.589  11.124  0.0539  0.1060 -0.2448
  246loPI    C3 3923  14.019   9.601  11.479 -0.1969  0.0688 -0.1102
  246loPI   PO4 3924  14.205   9.813  10.927 -0.2024 -0.1192 -0.1782
  246loPI   GL1 3925  14.359   9.975  10.589  0.2605  0.0894 -0.1007
  246loPI   GL2 3926  14.118  10.148  10.356 -0.0810 -0.0210 -0.1734
  246loPI   C1A 3927  14.367   9.777  10.152  0.1597 -0.1195 -0.1626
  246loPI   C2A 3928  14.247   9.682   9.705  0.4202 -0.1221  0.1341
  246loPI   C3A 3929  14.338   9.730   9.261  0.3430  0.1290  0.0312
  246loPI   C4A 3930  14.326   9.813   8.787  0.2134 -0.0263  0.0166
  246loPI   C5A 3931  14.554   9.758   8.503  0.1672 -0.3740  0.3273
  246loPI   C6A 3932  14.555   9.740   8.009  0.2065  0.0334 -0.0631
  246loPI   C1B 3933  14.033  10.042   9.956  0.2041 -0.1878  0.2690
  246loPI   C2B 3934  13.923  10.139   9.569 -0.0007  0.1519 -0.1819
  246loPI   C3B 3935  14.062  10.139   9.196 -0.0396  0.0369 -0.2625
  246loPI   C4B 3936  13.917  10.180   8.834  0.0213  0.1818  0.1186
  247loPI    C1 3937   4.651   9.524  11.112  0.0993 -0.0464 -0.0275
  247loPI    C2 3938   4.457   9.254  11.334  0.2245 -0.0738  0.0492
  247loPI    C3 3939   4.825   9.371  11.438  0.2748 -0.0696 -0.1309
  247loPI   PO4 3940   4.624   9.463  10.819 -0.0892  0.0511  0.0787
  247loPI   GL1 3941   4.784   9.483  10.495 -0.0238 -0.0974  0.0110
  247loPI   GL2 3942   5.004   9.670  10.358 -0.0147 -0.0400  0.1730
  247loPI   C1A 3943   4.575   9.579  10.092 -0.2750  0.0152  0.0651
  247loPI   C2A 3944   4.502   9.630   9.651 -0.1642  0.3366  0.2022
  247loPI   C3A 3945   4.607   9.569   9.246  0.3267  0.1694  0.1505
  247loPI   C4A 3946   4.758   9.591   8.847 -0.0264  0.0882 -0.1555
  247loPI   C5A 3947   4.951   9.828   8.501  0.0245  0.0542 -0.1108
  247loPI   C6A 3948   5.325   9.898   8.287 -0.0198  0.0512 -0.3420
  247loPI   C1B 3949   5.101   9.671   9.863 -0.2031 -0.0406  0.0696
  247loPI   C2B 3950   5.156   9.658   9.425 -0.3102  0.0724 -0.0417
  247loPI   C3B 3951   5.185   9.617   9.047  0.0056 -0.0349 -0.1213
  247loPI   C4B 3952   5.265   9.486   8.647 -0.0041 -0.0202  0.2214
  248loPI    C1 3953   0.618  14.689  10.888  0.2608 -0.0564 -0.2061
  248loPI    C2 3954   0.826  14.968  11.085  0.0556  0.1637 -0.2963
  248loPI    C3 3955   0.456  14.873  11.204  0.2509 -0.3261 -0.0508
  248loPI   PO4 3956   0.538  14.748  10.571 -0.1837 -0.0326 -0.1777
  248loPI   GL1 3957   0.430  14.799  10.248 -0.0507  0.2213  0.2042
  248loPI   GL2 3958   0.719  14.585  10.148 -0.0002 -0.0600  0.1807
  248loPI   C1A 3959   0.311  15.190   9.967  0.2732 -0.0527 -0.1262
  248loPI   C2A 3960   0.438  15.282   9.571 -0.1656  0.1230  0.1923
  248loPI   C3A 3961   0.342  15.108   9.173 -0.0766 -0.0586  0.2901
  248loPI   C4A 3962   0.290  15.184   8.775 -0.1424  0.1355  0.4088
  248loPI   C5A 3963   0.140  14.948   8.358 -0.1884 -0.0093  0.3337
  248loPI   C6A 3964   0.392  14.745   8.099 -0.1717  0.2483  0.0037
  248loPI   C1B 3965   0.502  14.447   9.854 -0.1653 -0.0854  0.1721
  248loPI   C2B 3966   0.411  14.372   9.263 -0.0413 -0.0668 -0.1301
  248loPI   C3B 3967   0.537  14.225   8.795  0.2733  0.0411 -0.0725
  248loPI   C4B 3968   0.416  13.867   8.492 -0.2930  0.0805  0.3407
  249loPI    C1 3969   5.041  10.205  11.015  0.0231  0.0238  0.3566
  249loPI    C2 3970   4.814   9.920  10.848 -0.0429  0.3540 -0.1389
  249loPI    C3 3971   4.714  10.074  11.204 -0.1158 -0.0954  0.0408
  249loPI   PO4 3972   5.063  10.380  10.861  0.0200 -0.0670  0.1431
  249loPI   GL1 3973   4.999  10.412  10.461  0.2131  0.1305  0.0923
  249loPI   GL2 3974   4.934  10.172  10.397  0.2237  0.1231 -0.3330
  249loPI   C1A 3975   4.951  10.550  10.043  0.2470 -0.2137  0.1820
  249loPI   C2A 3976   5.075  10.575   9.689 -0.1493 -0.1481  0.1640
  249loPI   C3A 3977   5.142  10.524   9.319  0.2380  0.0256  0.3593
  249loPI   C4A 3978   5.080  10.631   8.881  0.2595 -0.1041 -0.2203
  249loPI   C5A 3979   5.080  10.526   8.446 -0.3445 -0.0555  0.0969
  249loPI   C6A 3980   5.476  10.379   8.119 -0.1541  0.0945  0.2334
  249loPI   C1B 3981   5.193  10.160  10.063 -0.0150  0.4296 -0.4095
  249loPI   C2B 3982   5.353  10.110   9.740 -0.0981 -0.1548 -0.1133
  249loPI   C3B 3983   5.347  10.106   9.275  0.3203 -0.2885 -0.1487
  249loPI   C4B 3984   5.302  10.086   8.845 -0.2261  0.1015 -0.1017
  250loPI    C1 3985   2.926   4.362  11.151  0.0885  0.0264 -0.0097
  250loPI    C2 3986   3.135   4.128  11.399 -0.0796 -0.2141 -0.0915
  250loPI    C3 3987   2.926   4.438  11.544  0.0896 -0.1528  0.0254
  250loPI   PO4 3988   3.005   4.446  10.941 -0.0316  0.1391 -0.1032
  250loPI   GL1 3989   3.234   4.589  10.599 -0.1295 -0.0888 -0.2077
  250loPI   GL2 3990   3.603   4.580  10.558  0.0386  0.3734 -0.1827
  250loPI   C1A 3991   3.104   4.542  10.162  0.2067  0.0195  0.0136
  250loPI   C2A 3992   3.143   4.525   9.798 -0.0085 -0.0081  0.0314
  250loPI   C3A 3993   3.258   4.455   9.384  0.0643 -0.0404 -0.0441
  250loPI   C4A 3994   3.274   4.555   9.014  0.0617 -0.0066 -0.4627
  250loPI   C5A 3995   3.263   4.598   8.569  0.0111 -0.0716 -0.0832
  250loPI   C6A 3996   3.556   4.902   8.465  0.0482  0.2773 -0.1857
  250loPI   C1B 3997   3.583   4.512  10.097  0.3051  0.2224  0.0904
  250loPI   C2B 3998   3.648   4.603   9.675 -0.2031 -0.0954  0.0562
  250loPI   C3B 3999   3.727   4.602   9.255  0.2075  0.1611  0.5301
  250loPI   C4B 4000   3.775   4.558   8.776  0.2671 -0.1014 -0.2456
  251loPI    C1 4001   7.165  16.641  10.906  0.0292  0.0233 -0.2629
  251loPI    C2 4002   7.519  16.591  11.085 -0.1716  0.1302  0.1786
  251loPI    C3 4003   7.291  16.273  11.001 -0.0160  0.0688 -0.0216
  251loPI   PO4 4004   7.225  16.836  10.693  0.4216  0.1614  0.2356
  251loPI   GL1 4005   7.342  16.814  10.262  0.1377  0.0901  0.0834
  251loPI   GL2 4006   7.341  16.615  10.068 -0.2987 -0.0550 -0.2282
  251loPI   C1A 4007   6.972  16.917   9.927 -0.0360 -0.1040 -0.0516
  251loPI   C2A 4008   7.036  17.070   9.458 -0.0180 -0.0504  0.1851
  251loPI   C3A 4009   7.035  17.064   8.982  0.0877  0.0603 -0.0084
  251loPI   C4A 4010   7.084  16.911   8.576 -0.0619 -0.0212  0.0177
  251loPI   C5A 4011   7.010  16.656   8.198 -0.0045  0.3233 -0.5977
  251loPI   C6A 4012   6.891  16.678   7.824  0.0173  0.0651  0.0987
  251loPI   C1B 4013   7.303  16.517   9.657  0.0198 -0.0826 -0.1544
  251loPI   C2B 4014   7.262  16.638   9.179 -0.2000  0.2026 -0.0147
  251loPI   C3B 4015   7.450  16.567   8.734  0.0208  0.0826 -0.3971
  251loPI   C4B 4016   7.524  16.626   8.210 -0.0359 -0.3112 -0.0870
  252loPI    C1 4017   5.208  11.620  10.945  0.0135  0.0123 -0.0445
  252loPI    C2 4018   5.261  11.239  11.057  0.0134  0.0347  0.0323
  252loPI    C3 4019   5.372  11.537  11.300 -0.2078  0.0834  0.0763
  252loPI   PO4 4020   5.264  11.641  10.739 -0.1211  0.3029  0.0066
  252loPI   GL1 4021   4.984  11.631  10.430 -0.0673  0.1412  0.3819
  252loPI   GL2 4022   4.835  11.422  10.291  0.0630 -0.1254  0.2286
  252loPI   C1A 4023   5.169  11.807  10.093 -0.0770  0.0002 -0.2870
  252loPI   C2A 4024   5.181  11.940   9.652 -0.1238  0.0061  0.0025
  252loPI   C3A 4025   5.273  11.951   9.233 -0.0208  0.0257 -0.0536
  252loPI   C4A 4026   5.160  11.909   8.809  0.1904  0.0133  0.0790
  252loPI   C5A 4027   5.221  11.904   8.383 -0.2638 -0.0008 -0.0883
  252loPI   C6A 4028   5.638  11.822   8.016 -0.0446 -0.4004  0.1709
  252loPI   C1B 4029   4.942  11.443   9.829  0.1022  0.2867  0.1209
  252loPI   C2B 4030   5.013  11.479   9.349 -0.2309  0.2656 -0.4195
  252loPI   C3B 4031   4.942  11.474   8.979 -0.0198 -0.0192 -0.2957
  252loPI   C4B 4032   4.980  11.427   8.543  0.1866  0.0815  0.1527
  253loPI    C1 4033  10.442   1.890  11.129 -0.1603  0.0586 -0.0823
  253loPI    C2 4034  10.539   1.600  11.388 -0.0500  0.0041 -0.1837
  253loPI    C3 4035  10.408   1.953  11.522  0.2062  0.0490 -0.0453
  253loPI   PO4 4036  10.505   1.784  10.883 -0.2389  0.2558 -0.1257
  253loPI   GL1 4037  10.322   1.916  10.580 -0.0833  0.3819  0.1616
  253loPI   GL2 4038  10.440   2.024  10.378  0.0651  0.0114  0.2469
  253loPI   C1A 4039   9.946   2.044  10.281 -0.0266 -0.0464  0.0245
  253loPI   C2A 4040   9.961   2.063   9.792  0.0761  0.0753 -0.2466
  253loPI   C3A 4041   9.984   2.085   9.367  0.0099  0.1416 -0.2146
  253loPI   C4A 4042   9.957   2.052   8.898 -0.2957 -0.0951  0.1607
  253loPI   C5A 4043   9.939   2.068   8.430 -0.0998  0.0573  0.3514
  253loPI   C6A 4044   9.838   2.418   8.318  0.4307  0.0823 -0.2105
  253loPI   C1B 4045  10.538   2.102  10.082 -0.0886 -0.0210 -0.0969
  253loPI   C2B 4046  10.520   2.118   9.538  0.1860  0.2645  0.0257
  253loPI   C3B 4047  10.432   2.093   9.101  0.0847 -0.0900 -0.2513
  253loPI   C4B 4048  10.462   2.033   8.667 -0.0649  0.2820 -0.4586
  254loPI    C1 4049  17.935  10.265  10.625 -0.3131 -0.0274 -0.0047
  254loPI    C2 4050  17.907  10.664  10.602  0.0817  0.0134  0.1585
  254loPI    C3 4051  17.699  10.464  10.880  0.1008  0.1347  0.2605
  254loPI   PO4 4052  17.927  10.139  10.443 -0.0383 -0.1118 -0.2230
  254loPI   GL1 4053  18.064  10.237  10.102 -0.1194  0.4698  0.0227
  254loPI   GL2 4054  18.011  10.560  10.137  0.1455  0.1165  0.2191
  254loPI   C1A 4055  18.180  10.559   9.686  0.1689 -0.0303 -0.0384
  254loPI   C2A 4056  18.458  10.570   9.335 -0.1787 -0.0540  0.0792
  254loPI   C3A 4057  18.502  10.669   8.920 -0.3586 -0.1000 -0.1073
  254loPI   C4A 4058  18.657  10.643   8.539  0.1885  0.2286  0.1492
  254loPI   C5A 4059  18.646  10.903   8.051 -0.1042 -0.0302  0.0719
  254loPI   C6A 4060  18.581  11.219   7.874 -0.2837 -0.0316  0.0592
  254loPI   C1B 4061  18.119  10.956   9.958  0.2671  0.2123 -0.0381
  254loPI   C2B 4062  18.273  11.105   9.563  0.1561 -0.0307  0.0969
  254loPI   C3B 4063  18.170  11.185   9.071  0.1270  0.0084 -0.0043
  254loPI   C4B 4064  18.040  11.546   8.836  0.2218 -0.2179  0.0648
  255loPI    C1 4065   6.596  10.515  11.021 -0.0894 -0.1043  0.0924
  255loPI    C2 4066   6.628  10.690  11.379  0.0437  0.0980 -0.0164
  255loPI    C3 4067   6.794  10.332  11.316  0.3108  0.2110  0.0293
  255loPI   PO4 4068   6.367  10.476  10.999 -0.1022 -0.3040 -0.1935
  255loPI   GL1 4069   6.121  10.598  10.675  0.3251  0.2598 -0.0527
  255loPI   GL2 4070   6.348  10.314  10.533  0.2283 -0.2051  0.4786
  255loPI   C1A 4071   6.017  10.630  10.195 -0.4214  0.2757 -0.1089
  255loPI   C2A 4072   6.081  10.653   9.720 -0.3179 -0.0430 -0.2066
  255loPI   C3A 4073   6.071  10.692   9.313 -0.0554 -0.1016  0.1550
  255loPI   C4A 4074   6.174  10.712   8.999 -0.1613  0.2034  0.0199
  255loPI   C5A 4075   6.129  10.542   8.560  0.1119  0.2271 -0.3195
  255loPI   C6A 4076   6.340  10.243   8.385 -0.2243 -0.2576 -0.0814
  255loPI   C1B 4077   6.254  10.236  10.159 -0.1328 -0.0180 -0.0034
  255loPI   C2B 4078   6.386  10.208   9.742 -0.1666 -0.1772 -0.0932
  255loPI   C3B 4079   6.411  10.297   9.283  0.0345 -0.3879  0.3135
  255loPI   C4B 4080   6.501  10.264   8.833 -0.0907 -0.3498 -0.4479
  256loPI    C1 4081  15.022   9.335  11.069 -0.1940 -0.1511  0.1961
  256loPI    C2 4082  15.157   8.996  11.234 -0.1445 -0.0984  0.2640
  256loPI    C3 4083  15.351   9.341  11.296 -0.0161 -0.1093 -0.0579
  256loPI   PO4 4084  15.043   9.391  10.769  0.1531 -0.0157  0.0719
  256loPI   GL1 4085  15.323   9.385  10.325  0.1076 -0.0451  0.0712
  256loPI   GL2 4086  15.429   9.689  10.398 -0.3854 -0.4140 -0.0423
  256loPI   C1A 4087  15.269   9.517   9.879  0.2661  0.1431  0.0200
  256loPI   C2A 4088  15.248   9.434   9.389 -0.2455 -0.2896  0.2886
  256loPI   C3A 4089  15.150   9.559   8.918  0.1784 -0.0280 -0.0098
  256loPI   C4A 4090  15.009   9.511   8.539 -0.1448  0.2471  0.2322
  256loPI   C5A 4091  15.030   9.816   8.168  0.1370  0.0651 -0.1557
  256loPI   C6A 4092  15.059  10.205   7.823 -0.2598 -0.1214 -0.0010
  256loPI   C1B 4093  15.420   9.968  10.028 -0.0950 -0.0263 -0.1916
  256loPI   C2B 4094  15.386   9.878   9.582 -0.2252 -0.1854  0.2884
  256loPI   C3B 4095  15.327   9.935   9.175 -0.0819 -0.2042  0.2428
  256loPI   C4B 4096  15.449  10.023   8.749 -0.2083 -0.0713  0.2598
  257loPI    C1 4097  14.709   6.884  10.821  0.0777  0.0119 -0.0795
  257loPI    C2 4098  15.002   6.919  11.091  0.0240 -0.1341 -0.0013
  257loPI    C3 4099  14.820   6.567  11.038  0.0893 -0.1276 -0.2859
  257loPI   PO4 4100  14.754   6.967  10.626 -0.1333 -0.1055  0.1016
  257loPI   GL1 4101  14.682   6.759  10.210  0.1609 -0.0897  0.0121
  257loPI   GL2 4102  14.640   6.416  10.073  0.3277 -0.1613 -0.1632
  257loPI   C1A 4103  14.810   6.948   9.805  0.1166  0.2969 -0.1238
  257loPI   C2A 4104  14.752   7.063   9.417 -0.0422 -0.3334 -0.1206
  257loPI   C3A 4105  14.575   7.084   9.015 -0.1676 -0.1334  0.0431
  257loPI   C4A 4106  14.510   7.110   8.541 -0.1501 -0.1170 -0.2372
  257loPI   C5A 4107  14.644   7.369   8.233 -0.2563 -0.1173 -0.0250
  257loPI   C6A 4108  14.755   7.832   8.106 -0.0433  0.1114  0.1067
  257loPI   C1B 4109  14.643   6.517   9.673  0.1506  0.1984 -0.1563
  257loPI   C2B 4110  14.480   6.583   9.311  0.0668 -0.2539  0.1915
  257loPI   C3B 4111  14.478   6.633   8.855 -0.0769  0.1553  0.1388
  257loPI   C4B 4112  14.416   6.522   8.405  0.2365  0.2401  0.0698
  258loPI    C1 4113  15.832  13.585  11.025  0.0326 -0.0861  0.0097
  258loPI    C2 4114  15.811  13.945  11.200 -0.0042 -0.0575 -0.0531
  258loPI    C3 4115  16.130  13.710  11.261 -0.0465 -0.0749  0.1042
  258loPI   PO4 4116  15.807  13.627  10.787  0.1224  0.2959  0.2197
  258loPI   GL1 4117  15.782  13.664  10.294 -0.1032  0.2636 -0.1957
  258loPI   GL2 4118  15.520  13.659  10.122 -0.1809 -0.2255  0.3512
  258loPI   C1A 4119  15.983  13.673   9.958 -0.1481 -0.2105 -0.0994
  258loPI   C2A 4120  15.913  13.581   9.493  0.0790 -0.0753 -0.3467
  258loPI   C3A 4121  15.944  13.634   9.066 -0.1430  0.1442  0.0516
  258loPI   C4A 4122  15.788  13.551   8.632 -0.0854 -0.1125 -0.0494
  258loPI   C5A 4123  15.687  13.673   8.229  0.1120 -0.0770  0.0189
  258loPI   C6A 4124  15.559  13.961   8.024  0.1149 -0.0400  0.1493
  258loPI   C1B 4125  15.430  13.533   9.669  0.0435 -0.1123  0.4958
  258loPI   C2B 4126  15.428  13.536   9.307 -0.2011 -0.1040  0.2726
  258loPI   C3B 4127  15.366  13.479   8.861  0.3115 -0.1533  0.0503
  258loPI   C4B 4128  15.222  13.385   8.417 -0.0674 -0.3082 -0.1216
  259loPI    C1 4129  10.222  13.081  11.074 -0.1744  0.0216 -0.0798
  259loPI    C2 4130  10.200  12.856  11.404 -0.3580  0.0371 -0.0807
  259loPI    C3 4131  10.360  13.222  11.422  0.3441 -0.2507 -0.1647
  259loPI   PO4 4132  10.112  12.983  10.887  0.0896 -0.0597  0.1422
  259loPI   GL1 4133  10.305  12.842  10.531 -0.1384  0.2045  0.0186
  259loPI   GL2 4134  10.547  12.554  10.388  0.1525 -0.0047  0.0604
  259loPI   C1A 4135  10.210  12.942  10.046 -0.1916  0.1281  0.2903
  259loPI   C2A 4136   9.978  12.891   9.615 -0.1772 -0.1053 -0.0277
  259loPI   C3A 4137  10.080  12.947   9.227 -0.0589 -0.3726  0.0146
  259loPI   C4A 4138  10.259  13.153   8.793 -0.0342 -0.5099  0.2271
  259loPI   C5A 4139  10.146  13.381   8.420  0.2069  0.1558 -0.2901
  259loPI   C6A 4140   9.956  13.805   8.419  0.0967 -0.0533 -0.1658
  259loPI   C1B 4141  10.482  12.472   9.914 -0.2340  0.3501  0.0666
  259loPI   C2B 4142  10.390  12.581   9.524  0.0387  0.1464 -0.4160
  259loPI   C3B 4143  10.374  12.505   9.035 -0.4548 -0.1803  0.4443
  259loPI   C4B 4144  10.655  12.644   8.755  0.0103  0.1263  0.1513
  260loPI    C1 4145  14.228   7.864  10.750  0.1565 -0.0933  0.0313
  260loPI    C2 4146  14.298   7.595  11.038  0.0106 -0.2226 -0.0523
  260loPI    C3 4147  14.408   7.976  11.089  0.1656 -0.2855  0.0913
  260loPI   PO4 4148  14.087   7.609  10.611 -0.0130 -0.0403 -0.0035
  260loPI   GL1 4149  14.021   7.443  10.164 -0.0428 -0.0683  0.0671
  260loPI   GL2 4150  14.121   7.301  10.047  0.2018  0.0290 -0.2649
  260loPI   C1A 4151  13.622   7.728   9.942  0.1823 -0.1509  0.1160
  260loPI   C2A 4152  13.616   7.879   9.513  0.1858 -0.1433  0.1041
  260loPI   C3A 4153  13.532   7.881   9.137  0.2873 -0.2160 -0.1569
  260loPI   C4A 4154  13.511   7.913   8.719 -0.1566 -0.0644  0.1297
  260loPI   C5A 4155  13.331   7.909   8.280  0.1759 -0.3467 -0.0834
  260loPI   C6A 4156  13.215   8.082   7.885  0.1212 -0.0445 -0.1066
  260loPI   C1B 4157  13.961   7.520   9.651 -0.1932  0.5741  0.0315
  260loPI   C2B 4158  13.902   7.478   9.212 -0.0794 -0.5335  0.2505
  260loPI   C3B 4159  13.821   7.458   8.737  0.1517 -0.3682  0.1196
  260loPI   C4B 4160  13.772   7.528   8.349  0.3401  0.1419 -0.0222
  261loPI    C1 4161   0.374   9.212  10.982  0.0349 -0.2911  0.0329
  261loPI    C2 4162   0.191   8.898  10.815 -0.0478 -0.2080 -0.0335
  261loPI    C3 4163   0.186   8.944  11.212 -0.0377 -0.2891 -0.0238
  261loPI   PO4 4164   0.558   9.281  10.686  0.1239  0.2462 -0.0299
  261loPI   GL1 4165   0.484   9.450  10.233  0.0891  0.1725 -0.2201
  261loPI   GL2 4166   0.820   9.658  10.251 -0.0578  0.1795 -0.1477
  261loPI   C1A 4167   0.395   9.585   9.778 -0.0589  0.0077  0.2636
  261loPI   C2A 4168   0.504   9.664   9.439  0.0296  0.1551 -0.0971
  261loPI   C3A 4169   0.541   9.796   9.064 -0.4021  0.2823 -0.0751
  261loPI   C4A 4170   0.499   9.946   8.653  0.1110 -0.3686 -0.1932
  261loPI   C5A 4171   0.378  10.212   8.358 -0.0571 -0.1125  0.2864
  261loPI   C6A 4172   0.229  10.127   7.919  0.0051 -0.1634  0.1103
  261loPI   C1B 4173   0.927   9.607   9.812 -0.2465  0.0116  0.2435
  261loPI   C2B 4174   0.990   9.776   9.369 -0.0427 -0.0302  0.0657
  261loPI   C3B 4175   1.072   9.731   8.944  0.2423 -0.0326  0.0435
  261loPI   C4B 4176   0.866   9.606   8.598 -0.1381 -0.0273 -0.1553
  262loPI    C1 4177  11.707   0.804  10.681 -0.0012  0.2427  0.0961
  262loPI    C2 4178  12.027   0.892  10.905  0.3239 -0.0217 -0.2525
  262loPI    C3 4179  11.902   0.513  10.873  0.0322  0.0670 -0.1990
  262loPI   PO4 4180  11.715   0.987  10.516 -0.1895 -0.1054 -0.2619
  262loPI   GL1 4181  11.802   0.928  10.099  0.2093  0.4400  0.0519
  262loPI   GL2 4182  12.053   1.022   9.954  0.1889 -0.0430 -0.1097
  262loPI   C1A 4183  11.600   0.940   9.725  0.1076 -0.0144  0.1519
  262loPI   C2A 4184  11.314   0.943   9.258 -0.0702  0.0256 -0.1276
  262loPI   C3A 4185  11.018   1.183   8.931  0.0873  0.1608 -0.0210
  262loPI   C4A 4186  11.125   1.241   8.567 -0.0490  0.1217  0.0423
  262loPI   C5A 4187  11.393   0.981   8.259 -0.3983 -0.4330  0.1575
  262loPI   C6A 4188  11.700   0.730   8.274 -0.2243  0.0235  0.1707
  262loPI   C1B 4189  12.068   0.975   9.519 -0.0876 -0.2652 -0.2467
  262loPI   C2B 4190  11.836   0.974   9.169  0.2098 -0.0048 -0.1197
  262loPI   C3B 4191  11.604   0.936   8.765 -0.0135  0.0839 -0.0879
  262loPI   C4B 4192  11.252   0.794   8.763  0.1911  0.1886 -0.0302
  263loPI    C1 4193  11.581  11.679  10.914  0.0118  0.1100  0.0141
  263loPI    C2 4194  11.492  11.496  11.258  0.0299 -0.0576 -0.0693
  263loPI    C3 4195  11.864  11.625  11.191  0.0478 -0.1053 -0.0627
  263loPI   PO4 4196  11.360  11.708  10.774 -0.0050  0.0532  0.1301
  263loPI   GL1 4197  11.182  11.724  10.433  0.0880 -0.2443  0.1706
  263loPI   GL2 4198  10.980  11.375  10.407  0.0129 -0.1290  0.2280
  263loPI   C1A 4199  11.244  11.636  10.046  0.1027  0.0130  0.2647
  263loPI   C2A 4200  10.967  11.622   9.603  0.2846  0.3236 -0.1610
  263loPI   C3A 4201  10.964  11.631   9.177 -0.3060  0.0932 -0.2091
  263loPI   C4A 4202  10.946  11.670   8.726  0.0202 -0.0792  0.0167
  263loPI   C5A 4203  10.835  11.556   8.354 -0.2036  0.1185  0.1555
  263loPI   C6A 4204  10.410  11.410   8.402 -0.3039  0.1530  0.2591
  263loPI   C1B 4205  10.930  11.158  10.013 -0.0783  0.3645  0.1292
  263loPI   C2B 4206  10.854  11.161   9.653  0.2640 -0.2081 -0.0584
  263loPI   C3B 4207  10.788  11.144   9.234 -0.1956  0.0922  0.1124
  263loPI   C4B 4208  10.735  11.187   8.741 -0.1090  0.0968 -0.2743
  264loPI    C1 4209  11.013  10.562  11.213  0.0322  0.1158  0.0754
  264loPI    C2 4210  10.646  10.673  11.097 -0.0623  0.0079  0.2662
  264loPI    C3 4211  10.867  10.919  11.321  0.1800  0.2809 -0.2528
  264loPI   PO4 4212  11.171  10.536  10.949 -0.0202 -0.1732  0.1124
  264loPI   GL1 4213  11.185  10.430  10.559  0.1338 -0.1510  0.2404
  264loPI   GL2 4214  11.573  10.429  10.451  0.0648  0.0501  0.4430
  264loPI   C1A 4215  11.059  10.298  10.187  0.2585  0.0495 -0.0131
  264loPI   C2A 4216  11.069  10.251   9.804  0.0642 -0.0296  0.1981
  264loPI   C3A 4217  10.904  10.291   9.336  0.0554  0.2648 -0.0247
  264loPI   C4A 4218  10.843  10.345   8.959  0.0313  0.0666  0.1209
  264loPI   C5A 4219  10.868  10.439   8.604 -0.0653  0.1804  0.0338
  264loPI   C6A 4220  11.183  10.238   8.352  0.1440 -0.2129 -0.1185
  264loPI   C1B 4221  11.591  10.386  10.016 -0.0278  0.0318  0.0281
  264loPI   C2B 4222  11.524  10.316   9.568 -0.1260 -0.0333 -0.0521
  264loPI   C3B 4223  11.305  10.354   9.174 -0.0106  0.2054 -0.2472
  264loPI   C4B 4224  11.373  10.339   8.750  0.1059  0.0237 -0.3402
  265loPI    C1 4225  13.777  10.790  10.931 -0.0366 -0.0537 -0.0432
  265loPI    C2 4226  14.144  10.761  11.086 -0.0906 -0.3028  0.0434
  265loPI    C3 4227  13.938  11.102  11.122  0.1173 -0.1734  0.0250
  265loPI   PO4 4228  13.826  10.749  10.684 -0.0496  0.1686  0.3830
  265loPI   GL1 4229  13.732  10.661  10.315 -0.1069  0.0239  0.2350
  265loPI   GL2 4230  13.683  10.283  10.331  0.0620  0.1711 -0.0161
  265loPI   C1A 4231  13.729  10.568   9.864  0.0057 -0.3176 -0.1021
  265loPI   C2A 4232  13.657  10.596   9.477 -0.3312  0.1202 -0.0737
  265loPI   C3A 4233  13.743  10.649   9.127  0.0853 -0.1650 -0.1610
  265loPI   C4A 4234  13.602  10.609   8.697 -0.2767  0.0253 -0.2226
  265loPI   C5A 4235  13.436  10.333   8.294 -0.1426 -0.2279 -0.2147
  265loPI   C6A 4236  13.155   9.963   8.229  0.1987  0.0053  0.0595
  265loPI   C1B 4237  13.562  10.108   9.935  0.2112  0.3012  0.1438
  265loPI   C2B 4238  13.353  10.091   9.682 -0.0634 -0.1010  0.0180
  265loPI   C3B 4239  13.477  10.130   9.208  0.1650  0.0282  0.3917
  265loPI   C4B 4240  13.404  10.174   8.826 -0.0843  0.0857 -0.2640
  266loPI    C1 4241   2.399   1.454  11.193  0.0014  0.3051 -0.0289
  266loPI    C2 4242   2.008   1.464  11.277 -0.0103 -0.0396 -0.0308
  266loPI    C3 4243   2.247   1.205  11.466  0.1510 -0.0889 -0.2970
  266loPI   PO4 4244   2.389   1.402  10.898  0.3094  0.0940 -0.0659
  266loPI   GL1 4245   2.184   1.543  10.544  0.1788 -0.5419  0.0638
  266loPI   GL2 4246   2.274   1.920  10.415 -0.1046  0.1528  0.2889
  266loPI   C1A 4247   2.351   1.478  10.193  0.2754 -0.2554  0.2520
  266loPI   C2A 4248   2.551   1.362   9.869 -0.1035 -0.4023  0.1652
  266loPI   C3A 4249   2.639   1.360   9.439  0.0463 -0.2204 -0.0489
  266loPI   C4A 4250   2.713   1.330   9.041  0.0025  0.0847  0.0473
  266loPI   C5A 4251   2.733   1.448   8.516  0.2487  0.3942  0.2937
  266loPI   C6A 4252   2.754   1.486   8.058  0.0927 -0.0389  0.0330
  266loPI   C1B 4253   2.354   2.068  10.063  0.2665 -0.1582  0.0216
  266loPI   C2B 4254   2.547   2.258   9.683  0.1150 -0.1508 -0.1460
  266loPI   C3B 4255   2.619   2.195   9.295  0.1864 -0.2298  0.1453
  266loPI   C4B 4256   2.579   2.263   8.892 -0.0936 -0.2727  0.0076
  267loPI    C1 4257   2.452   0.041  10.792  0.0821  0.0422 -0.0645
  267loPI    C2 4258   2.708   0.049  11.099 -0.0292 -0.1417  0.0348
  267loPI    C3 4259   2.323  -0.037  11.163 -0.1175  0.1345 -0.1135
  267loPI   PO4 4260   2.498  -0.049  10.626 -0.0188  0.0007 -0.2292
  267loPI   GL1 4261   2.655   0.056  10.223 -0.1274 -0.1049 -0.4802
  267loPI   GL2 4262   2.963   0.135  10.102  0.0883 -0.1676  0.0718
  267loPI   C1A 4263   2.366  -0.045   9.879  0.0092 -0.1943  0.0577
  267loPI   C2A 4264   2.517  -0.001   9.450 -0.0882 -0.1397 -0.1474
  267loPI   C3A 4265   2.510   0.020   9.087  0.1245  0.0044  0.1455
  267loPI   C4A 4266   2.496  -0.081   8.684  0.4161  0.1742  0.1766
  267loPI   C5A 4267   2.689   0.191   8.482 -0.3587  0.0894 -0.1346
  267loPI   C6A 4268   2.859   0.412   8.067  0.0239  0.2876 -0.1200
  267loPI   C1B 4269   3.005   0.073   9.722 -0.0881  0.0844  0.0196
  267loPI   C2B 4270   3.069   0.087   9.289  0.3368 -0.0664 -0.2079
  267loPI   C3B 4271   3.008   0.005   8.820  0.0442 -0.0522  0.1471
  267loPI   C4B 4272   3.118  -0.088   8.322  0.3340  0.6966 -0.0207
  268loPI    C1 4273   7.759   6.105  11.167  0.0885  0.0539  0.2627
  268loPI    C2 4274   7.905   6.417  11.370 -0.2014  0.3452  0.0330
  268loPI    C3 4275   7.550   6.262  11.470  0.0246 -0.0367  0.2659
  268loPI   PO4 4276   7.761   6.202  10.843 -0.1744 -0.2263 -0.1960
  268loPI   GL1 4277   7.503   6.328  10.548 -0.0183  0.1016  0.0177
  268loPI   GL2 4278   7.312   6.179  10.501  0.1191  0.0781 -0.1689
  268loPI   C1A 4279   7.492   6.338  10.019 -0.0687  0.2226 -0.2360
  268loPI   C2A 4280   7.470   6.323   9.574  0.1276  0.2488  0.2706
  268loPI   C3A 4281   7.530   6.295   9.166 -0.1682  0.2277 -0.2095
  268loPI   C4A 4282   7.638   6.260   8.717 -0.1693  0.2912  0.2097
  268loPI   C5A 4283   7.780   5.916   8.455 -0.0335 -0.2636  0.1571
  268loPI   C6A 4284   7.705   5.539   8.210  0.0196  0.0655 -0.4992
  268loPI   C1B 4285   7.282   5.863  10.159  0.1106 -0.0202  0.0642
  268loPI   C2B 4286   7.282   5.797   9.701 -0.1101  0.4384  0.3392
  268loPI   C3B 4287   7.355   5.808   9.213 -0.5309 -0.0174 -0.1881
  268loPI   C4B 4288   7.310   5.890   8.756 -0.1959  0.1314 -0.2895
  269loPI    C1 4289  13.704   9.046  11.123 -0.1376  0.1905  0.0001
  269loPI    C2 4290  13.860   9.165  11.471  0.3532  0.3434 -0.2630
  269loPI    C3 4291  13.501   9.299  11.357  0.1754  0.2699  0.1908
  269loPI   PO4 4292  13.898   9.014  10.973 -0.0732  0.0248  0.3456
  269loPI   GL1 4293  13.825   8.913  10.554 -0.1225 -0.2560  0.0803
  269loPI   GL2 4294  13.613   8.668  10.413  0.0818 -0.0660 -0.2270
  269loPI   C1A 4295  13.700   9.122  10.168 -0.4704  0.2367 -0.2801
  269loPI   C2A 4296  13.533   9.201   9.803 -0.0295  0.0700 -0.0954
  269loPI   C3A 4297  13.505   9.299   9.383  0.0484 -0.1653  0.0680
  269loPI   C4A 4298  13.542   9.257   8.892 -0.1147 -0.0677  0.1461
  269loPI   C5A 4299  13.577   9.211   8.396 -0.0078  0.1020  0.1846
  269loPI   C6A 4300  13.720   9.417   8.033  0.1831 -0.0592  0.2863
  269loPI   C1B 4301  13.497   8.698   9.978  0.0078 -0.0783  0.4239
  269loPI   C2B 4302  13.401   8.760   9.565  0.1560  0.3153 -0.0425
  269loPI   C3B 4303  13.452   8.825   9.126  0.1137 -0.1014  0.1115
  269loPI   C4B 4304  13.359   8.784   8.702  0.2268 -0.2090  0.2219
  270loPI    C1 4305  10.017   6.054  10.984  0.0836  0.0000 -0.0565
  270loPI    C2 4306  10.289   6.178  11.249 -0.0980 -0.0599  0.1608
  270loPI    C3 4307  10.295   5.800  11.118 -0.2206 -0.1282  0.3487
  270loPI   PO4 4308  10.040   6.234  10.819 -0.1651 -0.0186  0.1946
  270loPI   GL1 4309  10.115   6.341  10.405  0.3906 -0.0077 -0.1827
  270loPI   GL2 4310  10.272   6.148  10.271 -0.2460  0.1721 -0.0758
  270loPI   C1A 4311  10.025   6.532  10.001  0.2070  0.2232 -0.0841
  270loPI   C2A 4312  10.007   6.469   9.620  0.0470  0.1825  0.2411
  270loPI   C3A 4313   9.975   6.545   9.129  0.0974 -0.1062  0.0030
  270loPI   C4A 4314  10.031   6.600   8.682  0.0345  0.1477 -0.1045
  270loPI   C5A 4315  10.066   6.685   8.374  0.0015 -0.2691  0.0837
  270loPI   C6A 4316  10.432   6.635   8.152 -0.4294 -0.3026  0.0438
  270loPI   C1B 4317  10.378   6.098   9.792 -0.0579 -0.0919  0.0465
  270loPI   C2B 4318  10.275   6.189   9.310 -0.2272 -0.1569 -0.3524
  270loPI   C3B 4319  10.340   6.201   8.842  0.0562 -0.2247  0.4048
  270loPI   C4B 4320  10.328   6.176   8.302 -0.0335  0.1031  0.0885
  271loPI    C1 4321  10.961   7.332  11.045  0.0835 -0.0244  0.1260
  271loPI    C2 4322  11.242   7.579  11.188 -0.0311  0.0028  0.3070
  271loPI    C3 4323  10.865   7.607  11.319 -0.1033 -0.0837  0.1213
  271loPI   PO4 4324  11.053   7.372  10.774 -0.4479 -0.2474  0.2320
  271loPI   GL1 4325  11.214   7.288  10.412  0.1582 -0.0579 -0.0455
  271loPI   GL2 4326  10.982   7.031  10.297  0.1300  0.3093  0.2147
  271loPI   C1A 4327  11.397   7.178  10.057 -0.1648  0.0227  0.1503
  271loPI   C2A 4328  11.306   7.192   9.723  0.2048  0.3508  0.3289
  271loPI   C3A 4329  11.235   7.114   9.232  0.0081 -0.0854  0.1185
  271loPI   C4A 4330  11.161   7.080   8.860 -0.0127 -0.1732  0.2193
  271loPI   C5A 4331  11.194   7.232   8.450 -0.0512 -0.2314  0.2232
  271loPI   C6A 4332  10.979   7.506   8.207 -0.0839 -0.2676  0.3377
  271loPI   C1B 4333  10.766   7.065   9.880  0.2569 -0.1783 -0.3741
  271loPI   C2B 4334  10.778   7.076   9.443 -0.0240 -0.1401  0.0343
  271loPI   C3B 4335  10.691   7.089   9.030 -0.0230  0.2250 -0.5162
  271loPI   C4B 4336  10.710   7.179   8.599 -0.0276  0.1700  0.0010
  272loPI    C1 4337   5.668   0.272  11.038  0.0585  0.0271  0.0441
  272loPI    C2 4338   5.907   0.388  11.337  0.0259 -0.1639  0.1466
  272loPI    C3 4339   5.517   0.476  11.348  0.0336 -0.1280  0.1355
  272loPI   PO4 4340   5.813   0.326  10.720  0.1330 -0.0231 -0.2317
  272loPI   GL1 4341   5.805   0.325  10.292 -0.3467  0.0608  0.0664
  272loPI   GL2 4342   6.201   0.430  10.238  0.2583 -0.3217 -0.2871
  272loPI   C1A 4343   5.721   0.328   9.791 -0.0361  0.0511 -0.2677
  272loPI   C2A 4344   5.591   0.257   9.335 -0.1609  0.0965 -0.0054
  272loPI   C3A 4345   5.747   0.267   8.924  0.2243 -0.0522  0.0324
  272loPI   C4A 4346   5.710   0.194   8.425 -0.2394 -0.1993 -0.3243
  272loPI   C5A 4347   5.799   0.368   7.988 -0.3717 -0.1056 -0.0551
  272loPI   C6A 4348   5.904   0.038   7.699  0.3658  0.3893 -0.2269
  272loPI   C1B 4349   6.204   0.262   9.839  0.1828  0.0981 -0.0831
  272loPI   C2B 4350   6.074   0.300   9.377  0.1190 -0.0679  0.3519
  272loPI   C3B 4351   6.230   0.222   8.919  0.1113  0.1415 -0.0964
  272loPI   C4B 4352   6.197   0.407   8.476 -0.1120 -0.1721 -0.0477
  273loPI    C1 4353  13.823  16.910  10.793  0.0528  0.1217  0.0849
  273loPI    C2 4354  13.476  17.078  10.900 -0.0886 -0.1088 -0.0044
  273loPI    C3 4355  13.822  17.248  11.007 -0.2280  0.0451  0.2091
  273loPI   PO4 4356  13.697  16.792  10.549  0.1227  0.0799 -0.1401
  273loPI   GL1 4357  13.612  16.481  10.337 -0.2398  0.1176 -0.1638
  273loPI   GL2 4358  13.380  16.389  10.466  0.1734  0.2100  0.1408
  273loPI   C1A 4359  13.699  16.499   9.907 -0.0494  0.1680  0.2112
  273loPI   C2A 4360  13.603  16.460   9.537 -0.2309 -0.0449 -0.1597
  273loPI   C3A 4361  13.733  16.473   9.156 -0.0612 -0.2818 -0.3432
  273loPI   C4A 4362  13.593  16.495   8.725  0.3786  0.3260  0.1567
  273loPI   C5A 4363  13.562  16.399   8.341  0.0582 -0.2867 -0.3209
  273loPI   C6A 4364  13.829  16.300   8.011  0.0381  0.1855 -0.1792
  273loPI   C1B 4365  13.204  16.427   9.926 -0.3966  0.0146 -0.1956
  273loPI   C2B 4366  13.076  16.398   9.534  0.1973 -0.0968  0.4690
  273loPI   C3B 4367  13.248  16.380   9.251  0.1653 -0.1577  0.1051
  273loPI   C4B 4368  13.083  16.367   8.822  0.1422  0.1191  0.1041
  274loPI    C1 4369   0.708   1.382  10.822  0.3117 -0.1032 -0.0871
  274loPI    C2 4370   0.545   1.060  10.994  0.1623 -0.0953 -0.2117
  274loPI    C3 4371   0.354   1.412  11.006  0.3293 -0.0079 -0.0678
  274loPI   PO4 4372   0.693   1.431  10.528  0.2919  0.4981  0.0506
  274loPI   GL1 4373   1.054   1.322  10.225 -0.1184  0.1333  0.1328
  274loPI   GL2 4374   1.124   1.596  10.160 -0.0993 -0.0841 -0.0722
  274loPI   C1A 4375   1.070   1.298   9.762 -0.1833  0.4045 -0.0494
  274loPI   C2A 4376   1.142   1.383   9.323  0.0801 -0.0293  0.1064
  274loPI   C3A 4377   1.331   1.693   9.112  0.1446 -0.0074  0.1432
  274loPI   C4A 4378   1.339   1.642   8.816 -0.3577  0.1234  0.2461
  274loPI   C5A 4379   1.349   1.360   8.429 -0.1313 -0.0432 -0.1034
  274loPI   C6A 4380   1.497   0.982   8.127 -0.3051 -0.0242  0.0414
  274loPI   C1B 4381   1.086   1.804   9.627  0.0715 -0.0012 -0.3197
  274loPI   C2B 4382   1.065   2.082   9.279 -0.2094 -0.2442 -0.1862
  274loPI   C3B 4383   1.020   2.043   8.792  0.2615  0.1512  0.1554
  274loPI   C4B 4384   1.191   1.861   8.401  0.1855 -0.0327 -0.0622
  275loPI    C1 4385   6.671  11.587  11.155  0.1316 -0.0014  0.0518
  275loPI    C2 4386   6.919  11.774  11.407  0.0958  0.2445 -0.0928
  275loPI    C3 4387   6.599  11.581  11.548  0.2175  0.1598  0.0708
  275loPI   PO4 4388   6.664  11.780  10.940 -0.2267  0.0262  0.0437
  275loPI   GL1 4389   6.637  11.927  10.490 -0.2473 -0.1701  0.0018
  275loPI   GL2 4390   6.668  12.181  10.394 -0.1034 -0.0338 -0.0018
  275loPI   C1A 4391   6.429  11.625  10.256  0.1635 -0.1001  0.1950
  275loPI   C2A 4392   6.459  11.583   9.891 -0.1411  0.0104  0.0680
  275loPI   C3A 4393   6.540  11.624   9.508 -0.0838 -0.0452  0.0005
  275loPI   C4A 4394   6.568  11.570   9.002  0.1496 -0.2460 -0.1461
  275loPI   C5A 4395   6.686  11.494   8.585 -0.2166 -0.2028  0.0360
  275loPI   C6A 4396   6.806  11.685   8.235 -0.0939  0.1147 -0.0297
  275loPI   C1B 4397   6.698  12.004   9.949 -0.0455  0.1577 -0.1141
  275loPI   C2B 4398   6.820  12.034   9.471 -0.1794 -0.1232  0.2656
  275loPI   C3B 4399   6.805  12.135   9.032  0.1700 -0.1218  0.0269
  275loPI   C4B 4400   6.722  12.004   8.618 -0.1005 -0.2581 -0.1530
  276loPI    C1 4401   8.485  15.093  11.141  0.0962 -0.2747 -0.4140
  276loPI    C2 4402   8.228  14.793  11.076 -0.2370 -0.1171  0.1186
  276loPI    C3 4403   8.422  14.820  11.426 -0.0162  0.1491 -0.0197
  276loPI   PO4 4404   8.341  15.379  10.993 -0.0461  0.1176 -0.0421
  276loPI   GL1 4405   8.338  15.521  10.651  0.0391 -0.2072 -0.1252
  276loPI   GL2 4406   8.603  15.417  10.565 -0.0694 -0.1674  0.1149
  276loPI   C1A 4407   8.337  15.627  10.161  0.0126  0.1185 -0.0056
  276loPI   C2A 4408   8.412  15.709   9.760 -0.0741 -0.0817  0.0190
  276loPI   C3A 4409   8.493  15.790   9.261  0.0269 -0.0325 -0.0317
  276loPI   C4A 4410   8.576  15.887   8.832  0.1026  0.0269 -0.2864
  276loPI   C5A 4411   8.538  15.914   8.464  0.0952  0.0115 -0.0390
  276loPI   C6A 4412   8.422  15.700   8.153 -0.1623 -0.1285 -0.0273
  276loPI   C1B 4413   8.718  15.310  10.141  0.0439  0.0588 -0.0772
  276loPI   C2B 4414   8.743  15.321   9.613 -0.2321  0.0129 -0.0434
  276loPI   C3B 4415   8.816  15.400   9.195  0.1454 -0.1183  0.0832
  276loPI   C4B 4416   8.793  15.406   8.777 -0.1890 -0.1790  0.0795
  277loPI    C1 4417  11.806  17.685  11.081 -0.0667  0.0434  0.1046
  277loPI    C2 4418  11.650  17.407  11.323 -0.0676  0.1282  0.2022
  277loPI    C3 4419  11.627  17.794  11.422 -0.1437  0.1702  0.0244
  277loPI   PO4 4420  11.810  17.580  10.815 -0.0676 -0.1535 -0.0884
  277loPI   GL1 4421  11.983  17.488  10.532 -0.2927 -0.0180  0.0271
  277loPI   GL2 4422  11.738  17.599  10.239 -0.1712  0.3915  0.0123
  277loPI   C1A 4423  12.224  17.498  10.085  0.0098 -0.1102  0.1598
  277loPI   C2A 4424  12.221  17.516   9.697 -0.0315 -0.0802  0.0711
  277loPI   C3A 4425  12.235  17.575   9.252 -0.1407 -0.3770 -0.0121
  277loPI   C4A 4426  12.344  17.614   8.822  0.0702  0.2238  0.3614
  277loPI   C5A 4427  12.462  17.729   8.418  0.2872  0.1239 -0.3740
  277loPI   C6A 4428  12.745  17.638   8.093  0.0418  0.0852  0.0023
  277loPI   C1B 4429  11.697  17.622   9.767 -0.1271  0.1015 -0.0697
  277loPI   C2B 4430  11.757  17.545   9.388  0.0580  0.2828 -0.1106
  277loPI   C3B 4431  11.719  17.532   8.968  0.2790  0.0599 -0.0414
  277loPI   C4B 4432  11.821  17.490   8.530  0.1747  0.2130  0.3625
  278loPI    C1 4433  13.808   4.542  11.068 -0.1641 -0.3019  0.1259
  278loPI    C2 4434  14.139   4.470  11.281  0.0366 -0.0585 -0.0960
  278loPI    C3 4435  13.853   4.708  11.429  0.0050 -0.1876  0.0535
  278loPI   PO4 4436  13.915   4.607  10.817 -0.1609  0.2054 -0.3409
  278loPI   GL1 4437  13.737   4.434  10.408  0.1442 -0.0769 -0.2124
  278loPI   GL2 4438  13.868   4.168  10.324 -0.0619  0.2289 -0.1713
  278loPI   C1A 4439  13.772   4.540   9.998  0.3957  0.1032  0.3250
  278loPI   C2A 4440  13.637   4.694   9.680  0.1673  0.1524 -0.0019
  278loPI   C3A 4441  13.585   4.773   9.271  0.0576  0.1939  0.2335
  278loPI   C4A 4442  13.655   4.809   8.900  0.3276 -0.1090 -0.4070
  278loPI   C5A 4443  13.739   4.706   8.511 -0.1253  0.1993 -0.5157
  278loPI   C6A 4444  13.509   4.435   8.153  0.1955  0.1718  0.0283
  278loPI   C1B 4445  13.812   3.990  10.006  0.0524 -0.0711 -0.3061
  278loPI   C2B 4446  13.748   3.922   9.531 -0.1377  0.2105 -0.1290
  278loPI   C3B 4447  13.709   3.862   9.118 -0.2583 -0.0864  0.0990
  278loPI   C4B 4448  13.720   3.574   8.663  0.1469 -0.0972 -0.3126
  279loPI    C1 4449  14.701  10.791  11.001  0.1312  0.1569 -0.2695
  279loPI    C2 4450  15.068  10.766  11.157 -0.0300  0.0095  0.0977
  279loPI    C3 4451  14.782  10.967  11.351 -0.2012 -0.0648 -0.0753
  279loPI   PO4 4452  14.732  10.856  10.808 -0.0011 -0.2765 -0.0799
  279loPI   GL1 4453  14.767  10.834  10.339  0.0110  0.0667  0.0290
  279loPI   GL2 4454  14.654  11.169  10.258 -0.0948 -0.2201 -0.0946
  279loPI   C1A 4455  14.729  10.700   9.944  0.3235 -0.3238 -0.2731
  279loPI   C2A 4456  14.775  10.755   9.549  0.0298  0.0400 -0.0025
  279loPI   C3A 4457  14.793  10.754   9.132 -0.0513  0.1409  0.0180
  279loPI   C4A 4458  14.742  10.726   8.651 -0.0562 -0.2169  0.0543
  279loPI   C5A 4459  14.991  10.990   8.349 -0.0478 -0.2106  0.0978
  279loPI   C6A 4460  15.055  11.179   8.034 -0.1230 -0.0806 -0.0539
  279loPI   C1B 4461  14.498  11.131   9.812  0.1344  0.3392  0.0261
  279loPI   C2B 4462  14.444  11.117   9.403  0.0682  0.1790 -0.1857
  279loPI   C3B 4463  14.418  11.201   8.922  0.0520  0.3030 -0.3617
  279loPI   C4B 4464  14.408  11.107   8.540 -0.0492 -0.0556  0.4998
  280loPI    C1 4465   8.369   5.462  11.110  0.0722 -0.1087 -0.0881
  280loPI    C2 4466   8.379   5.261  11.456 -0.2952  0.2105  0.1160
  280loPI    C3 4467   8.592   5.597  11.413 -0.2163  0.1483  0.0142
  280loPI   PO4 4468   8.422   5.379  10.902  0.2167 -0.0797  0.1868
  280loPI   GL1 4469   8.764   5.323  10.579  0.0556 -0.1494 -0.1020
  280loPI   GL2 4470   8.498   5.235  10.462 -0.1609  0.1292 -0.0063
  280loPI   C1A 4471   8.964   5.475  10.223  0.0193 -0.4311 -0.1980
  280loPI   C2A 4472   9.040   5.585   9.724  0.3672  0.2247  0.2348
  280loPI   C3A 4473   9.069   5.577   9.312 -0.3842 -0.0508 -0.0550
  280loPI   C4A 4474   9.095   5.636   8.851  0.1044  0.5962 -0.1087
  280loPI   C5A 4475   9.179   5.525   8.465  0.0301  0.0728  0.0162
  280loPI   C6A 4476   9.300   5.463   7.985 -0.2308 -0.1473 -0.0761
  280loPI   C1B 4477   8.537   5.387  10.032  0.0605  0.2557  0.1149
  280loPI   C2B 4478   8.570   5.483   9.597 -0.2803  0.3140 -0.4222
  280loPI   C3B 4479   8.538   5.435   9.217  0.0228  0.2608 -0.2159
  280loPI   C4B 4480   8.610   5.480   8.804 -0.0123 -0.3322  0.1507
  281loPI    C1 4481   6.794  11.105  11.065  0.1460 -0.0451 -0.2210
  281loPI    C2 4482   7.046  10.904  11.303 -0.1494  0.1195  0.2456
  281loPI    C3 4483   7.103  11.294  11.235  0.0040  0.0469 -0.0619
  281loPI   PO4 4484   6.769  10.934  10.891 -0.0182 -0.1647  0.2005
  281loPI   GL1 4485   6.774  10.566  10.510  0.1260  0.1595 -0.0983
  281loPI   GL2 4486   6.537  10.801  10.470 -0.1981  0.1159 -0.0548
  281loPI   C1A 4487   6.827  10.312  10.098  0.0640  0.2918 -0.0566
  281loPI   C2A 4488   6.897  10.282   9.655  0.1827  0.1654 -0.1064
  281loPI   C3A 4489   6.881  10.322   9.174  0.3462 -0.1266 -0.0996
  281loPI   C4A 4490   6.997  10.470   8.757 -0.0417 -0.0694 -0.2884
  281loPI   C5A 4491   6.868  10.513   8.283 -0.0291  0.1081  0.0085
  281loPI   C6A 4492   6.477  10.639   8.154  0.1695  0.1927  0.1173
  281loPI   C1B 4493   6.496  10.736   9.982  0.3615  0.2688 -0.3149
  281loPI   C2B 4494   6.544  10.732   9.511 -0.2300 -0.0937 -0.2675
  281loPI   C3B 4495   6.668  10.745   9.141 -0.3232 -0.5080  0.0847
  281loPI   C4B 4496   6.584  10.758   8.713 -0.0589 -0.1003 -0.0311
  282loPI    C1 4497   2.591   2.760  11.133  0.0882 -0.0055  0.1471
  282loPI    C2 4498   2.382   3.012  11.363 -0.0517  0.1183 -0.1108
  282loPI    C3 4499   2.292   2.622  11.360  0.0670  0.0863  0.1754
  282loPI   PO4 4500   2.691   2.897  10.953 -0.0846 -0.1185 -0.1476
  282loPI   GL1 4501   2.691   2.891  10.577 -0.2457 -0.0175 -0.0301
  282loPI   GL2 4502   2.896   2.634  10.465 -0.0430 -0.1869 -0.2465
  282loPI   C1A 4503   2.440   3.057  10.310  0.3368  0.1533 -0.0621
  282loPI   C2A 4504   2.368   3.154   9.968  0.1461 -0.1329 -0.0059
  282loPI   C3A 4505   2.322   3.104   9.560  0.0404 -0.4151 -0.0624
  282loPI   C4A 4506   2.444   3.176   9.165  0.0401  0.1822  0.1335
  282loPI   C5A 4507   2.498   3.287   8.730 -0.2728 -0.0329  0.1992
  282loPI   C6A 4508   2.633   2.952   8.396  0.1797  0.0872  0.0343
  282loPI   C1B 4509   3.048   2.735  10.105  0.1033  0.3278  0.2453
  282loPI   C2B 4510   3.299   2.765   9.628  0.2162  0.1265 -0.1841
  282loPI   C3B 4511   3.306   2.687   9.165 -0.1156 -0.0341  0.2761
  282loPI   C4B 4512   3.464   2.789   8.700 -0.0424  0.0495  0.1206
  283loPI    C1 4513  14.234  17.169  10.675 -0.0413  0.0375 -0.3517
  283loPI    C2 4514  14.253  17.544  10.536 -0.1029  0.2831  0.2723
  283loPI    C3 4515  14.541  17.404  10.777 -0.1226 -0.0477  0.1100
  283loPI   PO4 4516  14.194  17.034  10.489  0.2338 -0.1034  0.2516
  283loPI   GL1 4517  14.055  17.217  10.070 -0.2475 -0.0211 -0.2178
  283loPI   GL2 4518  13.867  16.928  10.074 -0.1597  0.1437  0.0228
  283loPI   C1A 4519  14.075  17.378   9.726  0.1351  0.1166 -0.0259
  283loPI   C2A 4520  13.927  17.526   9.402 -0.1071  0.0065 -0.1497
  283loPI   C3A 4521  14.054  17.364   8.968 -0.2037  0.0816  0.0887
  283loPI   C4A 4522  14.085  17.269   8.477  0.1223  0.3902  0.2037
  283loPI   C5A 4523  13.950  17.517   8.218  0.0939 -0.1050  0.0953
  283loPI   C6A 4524  14.143  17.941   8.347  0.2558 -0.2144  0.4100
  283loPI   C1B 4525  13.812  16.953   9.696  0.0084  0.1954 -0.0698
  283loPI   C2B 4526  13.814  16.990   9.259  0.3328  0.0616 -0.0495
  283loPI   C3B 4527  13.916  16.887   8.902  0.0972  0.3317  0.1605
  283loPI   C4B 4528  13.876  16.822   8.476  0.1233  0.3409 -0.0280
  284loPI    C1 4529  15.494  10.877  10.864 -0.2160 -0.0724 -0.1748
  284loPI    C2 4530  15.566  10.484  10.886 -0.0966 -0.0459 -0.0816
  284loPI    C3 4531  15.550  10.704  11.220  0.2290  0.0970 -0.1556
  284loPI   PO4 4532  15.589  10.985  10.492  0.3065  0.0853 -0.0345
  284loPI   GL1 4533  15.990  10.948  10.209  0.0910  0.1548  0.1924
  284loPI   GL2 4534  15.743  10.911  10.008 -0.0790  0.0209 -0.0833
  284loPI   C1A 4535  16.275  10.912   9.756  0.1215 -0.2552  0.0125
  284loPI   C2A 4536  16.279  10.881   9.321 -0.2300 -0.0860 -0.3175
  284loPI   C3A 4537  16.166  10.527   9.032 -0.0739  0.0225  0.1995
  284loPI   C4A 4538  16.475  10.267   8.725 -0.2463 -0.1915 -0.0117
  284loPI   C5A 4539  16.568   9.963   8.451  0.3623 -0.2922  0.1995
  284loPI   C6A 4540  16.900   9.773   8.334 -0.1235 -0.0628  0.2262
  284loPI   C1B 4541  15.747  10.938   9.635 -0.0492 -0.0654  0.1198
  284loPI   C2B 4542  15.745  10.821   9.205  0.1873 -0.0300  0.1907
  284loPI   C3B 4543  15.583  10.458   8.963  0.0484 -0.0510  0.2776
  284loPI   C4B 4544  15.096  10.368   8.997 -0.1817  0.0151 -0.2415
  285loPI    C1 4545  14.658  14.475  11.015 -0.1658  0.1447  0.1421
  285loPI    C2 4546  15.018  14.615  11.120 -0.1412  0.2139 -0.0294
  285loPI    C3 4547  14.833  14.345  11.350  0.1082  0.0283 -0.0415
  285loPI   PO4 4548  14.717  14.484  10.750 -0.0992 -0.0346  0.2563
  285loPI   GL1 4549  14.638  14.726  10.273 -0.1564  0.0819 -0.1017
  285loPI   GL2 4550  14.821  14.546  10.181  0.0041  0.0795 -0.0033
  285loPI   C1A 4551  14.555  14.864   9.897 -0.0462 -0.0073 -0.3411
  285loPI   C2A 4552  14.478  14.784   9.565 -0.2216  0.0289 -0.2847
  285loPI   C3A 4553  14.509  14.741   9.134 -0.0757 -0.1004 -0.1032
  285loPI   C4A 4554  14.313  14.663   8.702 -0.0349 -0.1067 -0.0397
  285loPI   C5A 4555  14.265  14.441   8.223  0.3431 -0.0478  0.1571
  285loPI   C6A 4556  14.531  14.085   8.025  0.1546  0.0342  0.1982
  285loPI   C1B 4557  14.804  14.444   9.786  0.1411 -0.0032 -0.1182
  285loPI   C2B 4558  14.754  14.353   9.310 -0.0901 -0.0417  0.2788
  285loPI   C3B 4559  14.776  14.329   8.882 -0.1887  0.0842  0.0894
  285loPI   C4B 4560  14.655  14.190   8.514  0.3641  0.1047  0.0092
  286loPI    C1 4561  12.223  12.737  11.264  0.1410  0.1520  0.1473
  286loPI    C2 4562  12.312  12.348  11.282  0.3520  0.1791 -0.2083
  286loPI    C3 4563  12.400  12.588  11.590  0.2293 -0.0500  0.0090
  286loPI   PO4 4564  12.364  12.665  10.900  0.2085 -0.3611 -0.1738
  286loPI   GL1 4565  12.419  12.511  10.401  0.1352 -0.0652  0.0758
  286loPI   GL2 4566  12.531  12.720  10.457  0.1206  0.1800  0.0628
  286loPI   C1A 4567  12.247  12.653   9.993 -0.1087 -0.0041 -0.1668
  286loPI   C2A 4568  12.046  12.668   9.541 -0.1529  0.0557 -0.0014
  286loPI   C3A 4569  11.930  12.610   9.159 -0.1177  0.2297  0.0098
  286loPI   C4A 4570  11.856  12.494   8.807  0.1025  0.2361 -0.1154
  286loPI   C5A 4571  11.882  12.754   8.436 -0.2096 -0.0938 -0.0883
  286loPI   C6A 4572  11.861  13.162   8.257 -0.0617  0.3188 -0.1160
  286loPI   C1B 4573  12.732  12.772  10.032 -0.0428  0.3531  0.2118
  286loPI   C2B 4574  12.552  12.751   9.592 -0.2243 -0.1640 -0.2985
  286loPI   C3B 4575  12.434  12.599   9.149 -0.0819 -0.0655 -0.0096
  286loPI   C4B 4576  12.270  12.652   8.719 -0.0365  0.0201  0.4376
  287loPI    C1 4577  12.598   5.212  10.703  0.1999  0.0994 -0.0997
  287loPI    C2 4578  12.522   5.550  10.904 -0.3181  0.0272 -0.1591
  287loPI    C3 4579  12.427   5.197  11.064 -0.0603 -0.0756 -0.2272
  287loPI   PO4 4580  12.825   5.321  10.551  0.0398 -0.0677  0.1104
  287loPI   GL1 4581  12.910   5.522  10.248  0.2584 -0.1310  0.0048
  287loPI   GL2 4582  13.243   5.380  10.194 -0.1896 -0.0188  0.0855
  287loPI   C1A 4583  13.010   5.486   9.793 -0.1045 -0.2733 -0.1050
  287loPI   C2A 4584  13.012   5.558   9.398 -0.0244  0.3304 -0.0314
  287loPI   C3A 4585  12.950   5.561   8.878  0.1596 -0.3393  0.0397
  287loPI   C4A 4586  12.935   5.519   8.457 -0.2191 -0.2740  0.3154
  287loPI   C5A 4587  13.160   5.695   8.246  0.6401 -0.0579  0.2266
  287loPI   C6A 4588  13.446   5.870   7.869  0.1117  0.3891 -0.2345
  287loPI   C1B 4589  13.336   5.112   9.761 -0.0499 -0.0637  0.0193
  287loPI   C2B 4590  13.272   5.109   9.398  0.0449 -0.0216  0.1347
  287loPI   C3B 4591  13.321   5.215   8.938  0.0779  0.6215 -0.1683
  287loPI   C4B 4592  13.449   5.227   8.462  0.0080 -0.1880  0.1378
  288loPI    C1 4593   0.820   5.407  10.930  0.3536 -0.0263 -0.1683
  288loPI    C2 4594   0.706   5.680  11.199 -0.2008 -0.0770 -0.3383
  288loPI    C3 4595   0.994   5.417  11.290 -0.1315  0.1318  0.0708
  288loPI   PO4 4596   0.862   5.635  10.763  0.0717  0.1061 -0.0301
  288loPI   GL1 4597   1.157   5.766  10.442 -0.2760 -0.2608  0.2242
  288loPI   GL2 4598   0.813   5.883  10.318  0.1506  0.0587  0.1086
  288loPI   C1A 4599   1.151   5.748   9.993  0.0854  0.1844  0.0365
  288loPI   C2A 4600   1.205   5.697   9.538 -0.1332 -0.5277  0.1812
  288loPI   C3A 4601   1.288   5.693   9.077 -0.0714  0.1414 -0.1901
  288loPI   C4A 4602   1.141   5.695   8.728  0.0323 -0.0704  0.0459
  288loPI   C5A 4603   0.779   5.535   8.417  0.0777  0.4986 -0.3698
  288loPI   C6A 4604   0.432   5.395   8.200 -0.0526  0.1849  0.0647
  288loPI   C1B 4605   0.816   6.115   9.918 -0.3704 -0.2317 -0.0588
  288loPI   C2B 4606   0.798   6.125   9.446 -0.1033  0.0030  0.0936
  288loPI   C3B 4607   1.005   6.132   8.982 -0.0120  0.1933  0.3554
  288loPI   C4B 4608   0.985   6.050   8.438  0.3223 -0.0469 -0.1825
  289loPI    C1 4609   4.253  13.261  11.104 -0.1997  0.1482  0.0284
  289loPI    C2 4610   4.528  13.513  11.250 -0.1237  0.1176 -0.0610
  289loPI    C3 4611   4.348  13.250  11.492  0.0645  0.0084 -0.0380
  289loPI   PO4 4612   4.342  13.158  10.949  0.4018  0.0268  0.0059
  289loPI   GL1 4613   4.416  12.990  10.568 -0.0069 -0.0857 -0.2253
  289loPI   GL2 4614   4.059  13.034  10.428 -0.1944  0.2572  0.0355
  289loPI   C1A 4615   4.612  13.078  10.132  0.1014  0.0849 -0.1438
  289loPI   C2A 4616   4.685  13.253   9.753  0.1071 -0.2200  0.1855
  289loPI   C3A 4617   4.737  13.198   9.433 -0.1568  0.1449 -0.3942
  289loPI   C4A 4618   4.797  13.283   9.037 -0.0073  0.0906  0.0316
  289loPI   C5A 4619   4.668  13.198   8.603  0.3139 -0.0576 -0.3543
  289loPI   C6A 4620   4.570  12.842   8.537  0.1466  0.1198 -0.2215
  289loPI   C1B 4621   4.107  13.148  10.082 -0.0390  0.1909  0.3439
  289loPI   C2B 4622   4.246  13.238   9.585  0.1540  0.2465  0.0847
  289loPI   C3B 4623   4.203  13.117   9.168 -0.2616 -0.0271 -0.2154
  289loPI   C4B 4624   4.238  13.286   8.789 -0.0436 -0.0624 -0.1872
  290loPI    C1 4625   6.440   4.012  11.300  0.4021  0.2632  0.0582
  290loPI    C2 4626   6.765   3.812  11.420  0.0915 -0.2345  0.0974
  290loPI    C3 4627   6.484   3.916  11.685  0.2797  0.3305  0.0895
  290loPI   PO4 4628   6.287   3.889  11.075  0.0535  0.0457 -0.5837
  290loPI   GL1 4629   6.329   3.852  10.669  0.0904  0.1540  0.0417
  290loPI   GL2 4630   6.049   3.686  10.691  0.1082 -0.0612  0.1895
  290loPI   C1A 4631   6.297   4.053  10.372  0.0795 -0.3158 -0.3248
  290loPI   C2A 4632   6.418   3.999   9.991  0.1403  0.0236 -0.1664
  290loPI   C3A 4633   6.340   4.013   9.564 -0.1126  0.2595 -0.1101
  290loPI   C4A 4634   6.351   3.939   9.135 -0.0906  0.0758 -0.2948
  290loPI   C5A 4635   6.363   4.084   8.776  0.0746 -0.0556 -0.0293
  290loPI   C6A 4636   6.408   3.844   8.339  0.3596 -0.0336 -0.2579
  290loPI   C1B 4637   6.084   3.556  10.232 -0.0749 -0.3600 -0.2053
  290loPI   C2B 4638   6.123   3.528   9.740 -0.2031  0.0086 -0.1618
  290loPI   C3B 4639   6.180   3.480   9.361 -0.2113 -0.0584  0.0250
  290loPI   C4B 4640   6.101   3.438   9.005  0.0006 -0.0580  0.1892
  291loPI    C1 4641   5.973   8.914  11.335 -0.1950 -0.0751 -0.0104
  291loPI    C2 4642   5.840   9.242  11.150  0.1132  0.1485  0.1559
  291loPI    C3 4643   5.741   9.174  11.531 -0.0298 -0.0038  0.0926
  291loPI   PO4 4644   5.989   8.774  11.121 -0.0300  0.0720  0.1729
  291loPI   GL1 4645   5.814   8.920  10.719 -0.2472  0.0472  0.0996
  291loPI   GL2 4646   5.786   8.567  10.676  0.0480 -0.0084 -0.0997
  291loPI   C1A 4647   5.731   9.153  10.304  0.2433  0.0270  0.2763
  291loPI   C2A 4648   5.853   9.273   9.854 -0.2435  0.0234 -0.1220
  291loPI   C3A 4649   6.022   9.302   9.440 -0.0609  0.1347  0.0360
  291loPI   C4A 4650   6.014   9.237   9.032 -0.0451 -0.1050  0.0339
  291loPI   C5A 4651   6.052   9.354   8.609 -0.1751 -0.0610 -0.0397
  291loPI   C6A 4652   6.113   9.105   8.272  0.0609 -0.0724 -0.0371
  291loPI   C1B 4653   5.836   8.560  10.191  0.1944  0.0990  0.1386
  291loPI   C2B 4654   5.940   8.445   9.806  0.1547  0.2984  0.0243
  291loPI   C3B 4655   5.959   8.399   9.311 -0.1573  0.0952  0.0816
  291loPI   C4B 4656   5.989   8.394   8.938 -0.0185  0.1097  0.2696
  292loPI    C1 4657   3.504   5.982  11.513 -0.1788 -0.0775 -0.1885
  292loPI    C2 4658   3.197   5.894  11.754 -0.1988  0.0922 -0.1511
  292loPI    C3 4659   3.359   6.260  11.761  0.1484 -0.0598 -0.0120
  292loPI   PO4 4660   3.526   5.946  11.330  0.0777 -0.0086 -0.0703
  292loPI   GL1 4661   3.465   6.001  10.901 -0.2895 -0.0810  0.0219
  292loPI   GL2 4662   3.475   5.798  10.833 -0.0841  0.0700 -0.3040
  292loPI   C1A 4663   3.396   6.299  10.455 -0.3528 -0.1742  0.0079
  292loPI   C2A 4664   3.485   6.409  10.031  0.0516  0.1091  0.0628
  292loPI   C3A 4665   3.508   6.377   9.574 -0.0320  0.3379  0.1340
  292loPI   C4A 4666   3.662   6.299   9.187 -0.2410 -0.2138  0.5688
  292loPI   C5A 4667   3.713   6.242   8.745  0.0360 -0.0453  0.1452
  292loPI   C6A 4668   3.779   5.922   8.367 -0.2069 -0.0315  0.1975
  292loPI   C1B 4669   3.728   5.908  10.450  0.1131 -0.0750 -0.1504
  292loPI   C2B 4670   3.658   5.949   9.959  0.2031 -0.2985 -0.1988
  292loPI   C3B 4671   3.845   6.044   9.548  0.0061  0.0337 -0.2175
  292loPI   C4B 4672   3.946   5.916   9.141  0.0134 -0.0861 -0.0596
  293loPI    C1 4673  12.883   9.358  10.746  0.3104  0.1221 -0.0637
  293loPI    C2 4674  12.699   9.232  11.077 -0.1285  0.1185 -0.3019
  293loPI    C3 4675  13.060   9.402  11.102 -0.2025  0.2202  0.1873
  293loPI   PO4 4676  12.745   9.163  10.566 -0.0087 -0.1077 -0.0584
  293loPI   GL1 4677  12.438   9.039  10.272  0.3402 -0.1099 -0.1140
  293loPI   GL2 4678  12.509   8.838  10.247  0.0946  0.1325  0.2791
  293loPI   C1A 4679  12.510   9.118   9.813  0.3186  0.4782 -0.1584
  293loPI   C2A 4680  12.537   9.165   9.349 -0.0228 -0.1047 -0.0602
  293loPI   C3A 4681  12.605   9.041   8.942  0.0909  0.1367 -0.0315
  293loPI   C4A 4682  12.500   9.138   8.546  0.1001  0.0518 -0.3040
  293loPI   C5A 4683  12.617   9.130   8.102  0.2168 -0.0887 -0.1948
  293loPI   C6A 4684  12.595   9.212   7.751  0.2498 -0.2933  0.0568
  293loPI   C1B 4685  12.447   8.629   9.934 -0.0002  0.2172  0.0061
  293loPI   C2B 4686  12.299   8.655   9.523 -0.2102 -0.3919  0.1738
  293loPI   C3B 4687  12.380   8.579   9.108  0.1684  0.3682  0.4102
  293loPI   C4B 4688  12.401   8.624   8.634 -0.0678  0.0175  0.1896
  294loPI    C1 4689   8.018   2.467  10.943  0.1011 -0.1425 -0.1904
  294loPI    C2 4690   8.411   2.419  10.998  0.1046  0.0609 -0.0278
  294loPI    C3 4691   8.270   2.766  10.856 -0.0152 -0.0178 -0.1022
  294loPI   PO4 4692   7.917   2.265  10.809  0.0837 -0.1301  0.0057
  294loPI   GL1 4693   7.931   2.057  10.438  0.1471 -0.3652  0.0221
  294loPI   GL2 4694   8.076   2.262  10.137 -0.1763  0.3574 -0.2922
  294loPI   C1A 4695   7.900   1.843  10.009 -0.1286 -0.1790 -0.4028
  294loPI   C2A 4696   7.884   1.779   9.671 -0.0779  0.1279 -0.1481
  294loPI   C3A 4697   7.735   1.864   9.250 -0.2178 -0.2660  0.1817
  294loPI   C4A 4698   7.845   1.911   8.883 -0.3700  0.2046 -0.1474
  294loPI   C5A 4699   7.929   1.930   8.442 -0.0337 -0.0214 -0.0782
  294loPI   C6A 4700   8.158   2.040   8.082  0.1035 -0.1082  0.1235
  294loPI   C1B 4701   8.062   2.294   9.684 -0.0286 -0.0066  0.4063
  294loPI   C2B 4702   8.080   2.238   9.238 -0.0798  0.0354  0.0921
  294loPI   C3B 4703   8.063   2.423   8.837 -0.0112 -0.0590 -0.1683
  294loPI   C4B 4704   8.247   2.416   8.399 -0.1591 -0.0171  0.1432
  295loPI    C1 4705   9.868   6.453  11.515  0.1487 -0.1584 -0.1703
  295loPI    C2 4706  10.233   6.612  11.553  0.0515 -0.0007  0.1417
  295loPI    C3 4707  10.137   6.283  11.759 -0.0609  0.1009  0.2530
  295loPI   PO4 4708   9.775   6.389  11.245 -0.0481 -0.3042 -0.4268
  295loPI   GL1 4709   9.631   6.562  10.858  0.1460 -0.2722 -0.0885
  295loPI   GL2 4710   9.396   6.445  10.648 -0.0531 -0.2997  0.0928
  295loPI   C1A 4711   9.774   6.759  10.420  0.0788  0.1934 -0.1594
  295loPI   C2A 4712   9.701   6.943  10.056 -0.0602 -0.1349  0.2339
  295loPI   C3A 4713   9.695   6.937   9.629  0.0643 -0.1026  0.0185
  295loPI   C4A 4714   9.783   6.993   9.188 -0.2549  0.1733 -0.2039
  295loPI   C5A 4715   9.759   7.041   8.763 -0.1495  0.1849 -0.1243
  295loPI   C6A 4716   9.573   6.983   8.358  0.0145  0.1531  0.0434
  295loPI   C1B 4717   9.537   6.420  10.175  0.3335  0.1252  0.1855
  295loPI   C2B 4718   9.538   6.379   9.720  0.1433 -0.0269  0.1198
  295loPI   C3B 4719   9.537   6.533   9.316  0.0449  0.2648  0.0064
  295loPI   C4B 4720   9.586   6.516   8.845  0.0437  0.2572  0.3869
  296loPI    C1 4721  11.002  14.141  10.778 -0.0457  0.1064  0.0398
  296loPI    C2 4722  11.273  14.432  10.733  0.0681 -0.0074 -0.0130
  296loPI    C3 4723  11.074  14.396  11.078  0.0286  0.1541 -0.0182
  296loPI   PO4 4724  10.872  14.164  10.611  0.2615  0.1570  0.0495
  296loPI   GL1 4725  10.754  14.078  10.209 -0.2043 -0.2477 -0.1393
  296loPI   GL2 4726  10.594  13.839  10.022  0.1614 -0.2530 -0.0508
  296loPI   C1A 4727  10.772  14.259   9.820 -0.0652 -0.2020 -0.0188
  296loPI   C2A 4728  10.857  14.222   9.320  0.1108  0.3682  0.1663
  296loPI   C3A 4729  10.851  14.228   8.799  0.2052 -0.1861  0.2115
  296loPI   C4A 4730  10.752  14.102   8.442 -0.0018  0.0866 -0.1510
  296loPI   C5A 4731  10.450  13.882   8.230 -0.3740  0.1397  0.3457
  296loPI   C6A 4732  10.287  13.619   7.939  0.0456  0.1411  0.1864
  296loPI   C1B 4733  10.589  13.694   9.614  0.1160  0.0271 -0.1340
  296loPI   C2B 4734  10.613  13.830   9.121 -0.3357 -0.2148 -0.2988
  296loPI   C3B 4735  10.540  13.679   8.667 -0.2540  0.1109  0.4603
  296loPI   C4B 4736  10.653  13.406   8.346 -0.1247  0.0333  0.0576
  297loPI    C1 4737   4.868  16.757  10.862  0.0611 -0.2821  0.1117
  297loPI    C2 4738   4.816  16.367  10.789 -0.2388 -0.2729  0.2631
  297loPI    C3 4739   4.514  16.585  10.937 -0.1794  0.0907 -0.1339
  297loPI   PO4 4740   4.935  16.892  10.662 -0.2470  0.0395 -0.1691
  297loPI   GL1 4741   4.968  16.748  10.246 -0.2982 -0.1294 -0.1930
  297loPI   GL2 4742   4.873  16.434  10.287  0.0764 -0.1006 -0.3461
  297loPI   C1A 4743   4.796  16.740   9.814  0.0587  0.3100  0.2214
  297loPI   C2A 4744   4.919  16.922   9.342 -0.0104  0.3151 -0.0197
  297loPI   C3A 4745   4.957  16.801   8.828 -0.0585 -0.1263  0.1668
  297loPI   C4A 4746   5.089  16.917   8.403 -0.0927  0.0288 -0.1563
  297loPI   C5A 4747   4.937  16.774   8.017  0.2162 -0.1641  0.0490
  297loPI   C6A 4748   5.154  16.784   7.634 -0.1996  0.1442 -0.0461
  297loPI   C1B 4749   5.165  16.393   9.965  0.0764  0.0074  0.0181
  297loPI   C2B 4750   5.209  16.461   9.452  0.0241 -0.0507 -0.2087
  297loPI   C3B 4751   5.271  16.475   9.084 -0.1376  0.0927 -0.1794
  297loPI   C4B 4752   5.301  16.433   8.716  0.0180 -0.1250 -0.0977
  298loPI    C1 4753  14.774   7.462  10.792  0.0579  0.0970 -0.0334
  298loPI    C2 4754  14.787   7.672  11.133 -0.0432  0.2379 -0.1150
  298loPI    C3 4755  14.696   7.282  11.141  0.1694  0.1895  0.0400
  298loPI   PO4 4756  14.625   7.567  10.657 -0.0509 -0.0290  0.0363
  298loPI   GL1 4757  14.530   7.524  10.228  0.0698 -0.1236 -0.0954
  298loPI   GL2 4758  14.669   7.287  10.170  0.2457  0.1830 -0.0677
  298loPI   C1A 4759  14.361   7.812   9.972 -0.3088 -0.1202 -0.0296
  298loPI   C2A 4760  14.185   7.956   9.582  0.2821 -0.0524 -0.1837
  298loPI   C3A 4761  14.003   8.034   9.161  0.2152 -0.0174 -0.0393
  298loPI   C4A 4762  13.959   7.972   8.789  0.1814 -0.0255  0.0955
  298loPI   C5A 4763  13.797   8.048   8.301 -0.4380  0.1348  0.2080
  298loPI   C6A 4764  13.668   8.246   8.041 -0.0793 -0.0594 -0.0269
  298loPI   C1B 4765  14.500   7.359   9.768 -0.0667 -0.0280 -0.0154
  298loPI   C2B 4766  14.395   7.519   9.380 -0.0258 -0.0292 -0.3225
  298loPI   C3B 4767  14.296   7.634   8.946  0.1013 -0.0917 -0.4013
  298loPI   C4B 4768  14.260   7.596   8.488  0.1996 -0.0128 -0.0246
  299loPI    C1 4769   1.158   9.786  10.634  0.0062  0.0328  0.2005
  299loPI    C2 4770   0.769   9.731  10.707 -0.0320 -0.0697 -0.0702
  299loPI    C3 4771   1.039   9.653  10.991 -0.1922 -0.2312  0.0396
  299loPI   PO4 4772   1.182   9.988  10.475 -0.0822 -0.1218 -0.1550
  299loPI   GL1 4773   1.067  10.126  10.062  0.1047 -0.1705  0.1122
  299loPI   GL2 4774   1.360  10.221  10.064  0.0736  0.1005  0.1883
  299loPI   C1A 4775   0.624   9.971   9.934 -0.0157 -0.2647  0.1057
  299loPI   C2A 4776   0.277  10.042   9.675  0.0035  0.4208 -0.2143
  299loPI   C3A 4777   0.213  10.130   9.217  0.2615 -0.2181  0.2915
  299loPI   C4A 4778   0.164  10.256   8.806  0.0237 -0.0919 -0.0639
  299loPI   C5A 4779  -0.092  10.045   8.565 -0.0407  0.0030 -0.0577
  299loPI   C6A 4780  -0.566  10.036   8.519 -0.3009 -0.2055 -0.0450
  299loPI   C1B 4781   1.267  10.239   9.578  0.1117  0.0340 -0.0244
  299loPI   C2B 4782   1.360  10.244   9.176 -0.2930 -0.3467  0.0117
  299loPI   C3B 4783   1.484  10.210   8.671  0.0149  0.3432  0.0525
  299loPI   C4B 4784   1.664  10.046   8.243 -0.0761 -0.0815 -0.2497
  300loPI    C1 4785   6.463   2.078  11.190  0.0021  0.0135  0.0919
  300loPI    C2 4786   6.707   2.236  11.465 -0.1380  0.3442  0.0311
  300loPI    C3 4787   6.377   2.040  11.578  0.2049 -0.2046  0.1176
  300loPI   PO4 4788   6.612   2.250  10.981  0.1113  0.1585 -0.0802
  300loPI   GL1 4789   6.632   2.364  10.676  0.1153  0.0388 -0.1684
  300loPI   GL2 4790   6.448   2.298  10.428  0.1543 -0.0531  0.1028
  300loPI   C1A 4791   6.803   2.615  10.296 -0.0676 -0.0466 -0.0595
  300loPI   C2A 4792   6.674   2.612   9.860  0.1713  0.2170 -0.2105
  300loPI   C3A 4793   6.689   2.563   9.431  0.3397 -0.2759  0.0704
  300loPI   C4A 4794   6.808   2.702   9.042 -0.3393  0.3543  0.1302
  300loPI   C5A 4795   6.788   2.663   8.661  0.0307 -0.2792 -0.0176
  300loPI   C6A 4796   6.771   2.811   8.268  0.0583 -0.1698 -0.0619
  300loPI   C1B 4797   6.574   2.194  10.106  0.2056 -0.2214  0.0511
  300loPI   C2B 4798   6.483   2.089   9.638  0.0068  0.3878  0.3000
  300loPI   C3B 4799   6.523   2.103   9.186 -0.1894  0.1016 -0.0877
  300loPI   C4B 4800   6.553   2.132   8.720  0.3499  0.0949  0.2593
  301loPI    C1 4801   2.747  17.181  10.386  0.0819  0.1652 -0.1237
  301loPI    C2 4802   2.487  17.484  10.398 -0.1557 -0.0423  0.0751
  301loPI    C3 4803   2.429  17.161  10.627  0.1152 -0.2231 -0.1049
  301loPI   PO4 4804   2.817  17.154  10.231 -0.0455  0.0090 -0.2037
  301loPI   GL1 4805   2.823  17.190   9.738 -0.1082  0.3741 -0.1202
  301loPI   GL2 4806   2.519  17.187   9.697 -0.0424  0.1102 -0.0596
  301loPI   C1A 4807   2.953  17.173   9.333 -0.0413 -0.1972  0.0881
  301loPI   C2A 4808   3.102  17.135   8.923  0.0622  0.0929  0.4406
  301loPI   C3A 4809   2.951  16.806   8.634 -0.3089 -0.2838  0.0415
  301loPI   C4A 4810   2.806  16.603   8.247 -0.3456 -0.2166  0.0621
  301loPI   C5A 4811   2.403  16.474   8.181  0.4287  0.0547  0.1573
  301loPI   C6A 4812   2.165  16.280   8.514  0.0998  0.1727  0.0259
  301loPI   C1B 4813   2.503  16.797   9.454  0.1158 -0.1872  0.0210
  301loPI   C2B 4814   2.764  16.718   9.175 -0.1540 -0.2244 -0.1481
  301loPI   C3B 4815   2.898  16.397   8.919 -0.0021 -0.1274 -0.0989
  301loPI   C4B 4816   3.137  16.319   8.563 -0.0565 -0.2376 -0.2133
  302loPI    C1 4817   9.011   7.037  11.238 -0.1750 -0.0503 -0.1823
  302loPI    C2 4818   9.194   7.340  11.425 -0.4222  0.1919 -0.3257
  302loPI    C3 4819   9.084   7.015  11.630  0.0423  0.1001 -0.2125
  302loPI   PO4 4820   8.907   7.160  11.039 -0.1920 -0.2648 -0.1881
  302loPI   GL1 4821   8.849   7.040  10.597 -0.0554 -0.0226  0.1635
  302loPI   GL2 4822   8.866   7.248  10.425 -0.0547 -0.3181  0.1107
  302loPI   C1A 4823   8.784   6.840  10.169 -0.1516  0.0551 -0.2800
  302loPI   C2A 4824   8.702   6.835   9.798 -0.1904 -0.1828 -0.0685
  302loPI   C3A 4825   8.718   6.841   9.440  0.1420  0.0808 -0.0519
  302loPI   C4A 4826   8.785   6.869   9.043  0.1570  0.1738  0.0364
  302loPI   C5A 4827   8.679   6.979   8.555  0.2367 -0.2062  0.1679
  302loPI   C6A 4828   8.564   7.146   8.173  0.3108  0.0002 -0.3703
  302loPI   C1B 4829   8.990   7.326  10.063 -0.2188 -0.1354  0.4589
  302loPI   C2B 4830   8.982   7.317   9.631 -0.1372 -0.0232  0.1945
  302loPI   C3B 4831   9.001   7.348   9.163  0.0519 -0.1373 -0.0610
  302loPI   C4B 4832   8.941   7.472   8.763  0.0996  0.0102  0.1699
  303loPI    C1 4833   8.032   5.070  11.161  0.2944 -0.0517 -0.3084
  303loPI    C2 4834   8.113   4.933  10.794 -0.0229 -0.0275 -0.3903
  303loPI    C3 4835   8.118   4.683  11.107 -0.0504 -0.1115 -0.4566
  303loPI   PO4 4836   7.793   5.248  11.009 -0.0056  0.0937 -0.1589
  303loPI   GL1 4837   7.900   5.388  10.549  0.0533 -0.0254 -0.0323
  303loPI   GL2 4838   8.094   5.566  10.519 -0.0090 -0.0198  0.1416
  303loPI   C1A 4839   7.928   5.376  10.083 -0.0390 -0.0182 -0.0804
  303loPI   C2A 4840   8.048   5.399   9.641  0.2253 -0.0015  0.0194
  303loPI   C3A 4841   8.041   5.437   9.316  0.1093  0.0198  0.0603
  303loPI   C4A 4842   8.128   5.416   8.868  0.2161 -0.1582 -0.0624
  303loPI   C5A 4843   8.183   5.553   8.492 -0.1504 -0.3525  0.0308
  303loPI   C6A 4844   8.144   5.333   7.993 -0.4732  0.0648  0.0239
  303loPI   C1B 4845   8.240   5.756  10.080 -0.0643 -0.1120 -0.2069
  303loPI   C2B 4846   8.307   5.916   9.692 -0.1241 -0.1920  0.0176
  303loPI   C3B 4847   8.281   5.891   9.271  0.1169  0.0150  0.0749
  303loPI   C4B 4848   8.264   5.906   8.869 -0.0001 -0.2169 -0.1409
  304loPI    C1 4849  16.731  13.230  11.170 -0.1419  0.1404  0.0697
  304loPI    C2 4850  16.446  12.971  11.280  0.0164  0.0113  0.1812
  304loPI    C3 4851  16.469  13.330  11.456  0.0800 -0.0773  0.3557
  304loPI   PO4 4852  16.772  13.159  10.869 -0.1656  0.1612  0.0407
  304loPI   GL1 4853  16.485  13.092  10.531  0.0238 -0.0699 -0.0765
  304loPI   GL2 4854  16.518  12.744  10.318  0.2474  0.0782 -0.2169
  304loPI   C1A 4855  16.282  13.178  10.173 -0.0650 -0.2245  0.0031
  304loPI   C2A 4856  16.256  13.171   9.662 -0.1361  0.1317 -0.0777
  304loPI   C3A 4857  16.214  13.165   9.228 -0.0224 -0.3407  0.4215
  304loPI   C4A 4858  16.211  13.132   8.725  0.0726 -0.0013 -0.0462
  304loPI   C5A 4859  15.904  13.103   8.440 -0.3108  0.2904  0.0306
  304loPI   C6A 4860  15.551  12.974   8.426 -0.0346 -0.0062 -0.0647
  304loPI   C1B 4861  16.742  12.690   9.919  0.0408  0.1478  0.1294
  304loPI   C2B 4862  16.646  12.792   9.411  0.3434  0.0743  0.1679
  304loPI   C3B 4863  16.616  12.774   8.914  0.2243 -0.3053  0.1672
  304loPI   C4B 4864  16.581  12.724   8.516 -0.1324 -0.0196 -0.1310
  305loPI    C1 4865   1.603   9.661  10.982 -0.2030 -0.2280  0.1325
  305loPI    C2 4866   1.412  10.011  10.947 -0.1776 -0.2137  0.1372
  305loPI    C3 4867   1.800  10.003  11.043 -0.1648 -0.2412  0.0834
  305loPI   PO4 4868   1.581   9.507  10.734  0.5878 -0.0603  0.0577
  305loPI   GL1 4869   1.398   9.566  10.280 -0.2334 -0.0693  0.0959
  305loPI   GL2 4870   1.530   9.206  10.313  0.1145 -0.1045 -0.2736
  305loPI   C1A 4871   1.443   9.717   9.877 -0.0493 -0.2763  0.1563
  305loPI   C2A 4872   1.607   9.839   9.582 -0.1850 -0.0481 -0.1741
  305loPI   C3A 4873   1.682   9.799   9.179 -0.0298  0.1211 -0.3203
  305loPI   C4A 4874   1.581   9.730   8.783  0.0093  0.0093 -0.3435
  305loPI   C5A 4875   1.310   9.784   8.442 -0.0020  0.2001 -0.2320
  305loPI   C6A 4876   1.402   9.634   7.972  0.0612 -0.1171  0.1099
  305loPI   C1B 4877   1.723   8.910  10.133  0.0390  0.2577  0.1807
  305loPI   C2B 4878   1.741   8.858   9.727 -0.0336  0.1213  0.1886
  305loPI   C3B 4879   1.770   8.957   9.223 -0.5241  0.1326 -0.0278
  305loPI   C4B 4880   1.862   9.059   8.711  0.0437 -0.2558  0.1030
  306loPI    C1 4881   3.376   8.296  11.280 -0.0897 -0.4346  0.0849
  306loPI    C2 4882   3.108   8.384  11.563  0.0980 -0.0262  0.1428
  306loPI    C3 4883   3.497   8.367  11.654  0.1401 -0.1045 -0.0468
  306loPI   PO4 4884   3.295   8.088  11.112  0.0872  0.2255 -0.1125
  306loPI   GL1 4885   3.487   8.142  10.690 -0.0040  0.2126 -0.0606
  306loPI   GL2 4886   3.482   7.871  10.692  0.1252 -0.3212  0.1197
  306loPI   C1A 4887   3.251   8.209  10.318  0.0746  0.1597  0.2533
  306loPI   C2A 4888   3.280   8.247   9.966  0.2511 -0.1186 -0.1744
  306loPI   C3A 4889   3.364   8.203   9.562 -0.1164  0.2189  0.0876
  306loPI   C4A 4890   3.443   8.100   9.182 -0.0821 -0.1128 -0.2437
  306loPI   C5A 4891   3.449   8.113   8.772 -0.2077  0.0452  0.0484
  306loPI   C6A 4892   3.439   7.928   8.324  0.0365  0.2006  0.0548
  306loPI   C1B 4893   3.581   7.756  10.276 -0.2612  0.1845 -0.0533
  306loPI   C2B 4894   3.536   7.771   9.822 -0.0796 -0.0496  0.0482
  306loPI   C3B 4895   3.736   7.773   9.432 -0.2603  0.0191 -0.2597
  306loPI   C4B 4896   3.830   7.780   8.995  0.1228 -0.0411  0.1362
  307loPI    C1 4897   6.066   1.628  10.984 -0.0103 -0.1257 -0.1197
  307loPI    C2 4898   6.001   1.910  11.260  0.2958  0.1400 -0.3123
  307loPI    C3 4899   5.706   1.798  11.015  0.0420 -0.0462  0.0687
  307loPI   PO4 4900   6.305   1.768  10.869  0.0344  0.3297 -0.0348
  307loPI   GL1 4901   6.404   1.799  10.453  0.0223 -0.4705  0.5133
  307loPI   GL2 4902   6.459   1.428  10.541  0.2424  0.3435  0.3390
  307loPI   C1A 4903   6.336   1.695   9.970  0.1297 -0.1006 -0.2066
  307loPI   C2A 4904   6.375   1.615   9.542 -0.2123  0.2624 -0.1888
  307loPI   C3A 4905   6.344   1.620   9.072 -0.0324  0.1045 -0.2265
  307loPI   C4A 4906   6.371   1.628   8.615  0.3247  0.0510  0.1723
  307loPI   C5A 4907   6.619   1.749   8.280 -0.1406  0.0420 -0.2267
  307loPI   C6A 4908   7.058   1.728   8.328  0.0307 -0.2728  0.1664
  307loPI   C1B 4909   6.609   1.324  10.136  0.3625  0.3538 -0.0061
  307loPI   C2B 4910   6.638   1.233   9.724 -0.0987 -0.1501  0.0676
  307loPI   C3B 4911   6.651   1.220   9.273  0.1953 -0.1229 -0.0461
  307loPI   C4B 4912   6.651   1.207   8.871  0.3953 -0.0946 -0.3113
  308loPI    C1 4913   9.495   2.008  11.351  0.2252 -0.3366  0.0421
  308loPI    C2 4914   9.180   1.787  11.459 -0.1159 -0.0054 -0.2463
  308loPI    C3 4915   9.322   2.068  11.706 -0.1884 -0.0039 -0.2059
  308loPI   PO4 4916   9.434   2.182  11.168  0.0827  0.0334 -0.1693
  308loPI   GL1 4917   9.313   2.090  10.721  0.0370 -0.0996  0.0334
  308loPI   GL2 4918   9.157   2.363  10.537  0.4444  0.0192 -0.1910
  308loPI   C1A 4919   9.462   2.029  10.288 -0.0227 -0.1729 -0.2017
  308loPI   C2A 4920   9.393   1.928   9.852  0.2216  0.2731 -0.1338
  308loPI   C3A 4921   9.376   1.938   9.405 -0.1878  0.4340 -0.0729
  308loPI   C4A 4922   9.415   1.931   9.023  0.0075 -0.1584  0.0395
  308loPI   C5A 4923   9.479   2.087   8.645 -0.0875 -0.2303 -0.0525
  308loPI   C6A 4924   9.344   2.365   8.478 -0.2485  0.0227 -0.0431
  308loPI   C1B 4925   9.105   2.356  10.112  0.1592  0.1411 -0.3405
  308loPI   C2B 4926   9.071   2.313   9.649 -0.0704 -0.1896 -0.0323
  308loPI   C3B 4927   9.157   2.419   9.257  0.3629  0.0435  0.0403
  308loPI   C4B 4928   9.085   2.347   8.911  0.1176  0.1837  0.2761
  309loPI    C1 4929  15.517   6.690  10.875 -0.0653 -0.0965 -0.0206
  309loPI    C2 4930  15.512   7.040  11.069 -0.2538 -0.1663  0.1034
  309loPI    C3 4931  15.742   6.740  11.201 -0.0082 -0.0555 -0.0661
  309loPI   PO4 4932  15.194   6.691  10.657 -0.1838  0.0391 -0.1347
  309loPI   GL1 4933  15.155   6.736  10.252  0.1319  0.0899 -0.1454
  309loPI   GL2 4934  15.254   6.947  10.161  0.1136 -0.0714 -0.1447
  309loPI   C1A 4935  15.131   6.524   9.883  0.0954  0.1020 -0.2166
  309loPI   C2A 4936  15.063   6.601   9.405  0.2433 -0.0206 -0.1991
  309loPI   C3A 4937  14.916   6.722   8.990 -0.0317  0.0652 -0.0336
  309loPI   C4A 4938  14.915   6.733   8.553 -0.1760 -0.0471  0.0671
  309loPI   C5A 4939  14.738   6.848   8.227  0.1161  0.2824  0.0519
  309loPI   C6A 4940  14.312   6.941   8.059  0.2124  0.2328 -0.2648
  309loPI   C1B 4941  15.324   7.042   9.715 -0.0470  0.0054  0.1389
  309loPI   C2B 4942  15.178   7.175   9.275  0.1508 -0.0684 -0.2462
  309loPI   C3B 4943  15.049   7.181   8.889 -0.0681 -0.1504  0.1316
  309loPI   C4B 4944  15.095   7.197   8.430  0.1917 -0.0853 -0.0572
  310loPI    C1 4945  10.906   5.829  11.020  0.1213 -0.2956  0.0313
  310loPI    C2 4946  10.764   5.629  11.336 -0.3846 -0.1219 -0.0774
  310loPI    C3 4947  10.783   6.028  11.345  0.1108 -0.1394 -0.0673
  310loPI   PO4 4948  10.830   5.735  10.852 -0.1354  0.1995 -0.1388
  310loPI   GL1 4949  10.821   5.932  10.435 -0.3313  0.2401 -0.3466
  310loPI   GL2 4950  10.642   5.699  10.351 -0.0143 -0.0636 -0.4396
  310loPI   C1A 4951  10.803   6.151  10.137  0.3097  0.0570  0.0703
  310loPI   C2A 4952  10.893   6.213   9.692 -0.0489 -0.0167 -0.2587
  310loPI   C3A 4953  10.840   6.305   9.266  0.2180 -0.2507 -0.3007
  310loPI   C4A 4954  10.849   6.227   8.853  0.0788 -0.0070 -0.1766
  310loPI   C5A 4955  10.800   6.266   8.376 -0.1197 -0.2245  0.2529
  310loPI   C6A 4956  10.791   6.291   7.971 -0.0052  0.0722 -0.1123
  310loPI   C1B 4957  10.619   5.666   9.948 -0.1077 -0.0648  0.0938
  310loPI   C2B 4958  10.616   5.743   9.554  0.0746 -0.1148  0.1725
  310loPI   C3B 4959  10.609   5.796   9.081  0.0580 -0.2157  0.0488
  310loPI   C4B 4960  10.607   5.787   8.588 -0.1007  0.2229  0.1859
  311loPI    C1 4961   4.809  13.098  11.073 -0.0818 -0.0939 -0.0950
  311loPI    C2 4962   5.156  12.991  11.241 -0.2241 -0.1256  0.1842
  311loPI    C3 4963   4.895  13.215  11.446 -0.3618 -0.0867 -0.0305
  311loPI   PO4 4964   4.848  13.281  10.898  0.0129  0.1643 -0.1672
  311loPI   GL1 4965   4.864  13.292  10.517  0.0994 -0.2523 -0.0430
  311loPI   GL2 4966   5.021  13.605  10.470 -0.1675  0.2202 -0.2016
  311loPI   C1A 4967   5.185  13.182  10.117  0.1087  0.0409  0.0641
  311loPI   C2A 4968   5.274  13.233   9.735 -0.2685 -0.0125  0.0854
  311loPI   C3A 4969   5.262  13.263   9.255  0.2477 -0.3647 -0.3845
  311loPI   C4A 4970   5.358  13.261   8.844 -0.2141 -0.3242 -0.1983
  311loPI   C5A 4971   5.421  13.388   8.460  0.3413 -0.0407 -0.1012
  311loPI   C6A 4972   5.654  13.352   8.207 -0.0387  0.0493  0.0521
  311loPI   C1B 4973   4.977  13.659  10.134  0.0704  0.2766 -0.1123
  311loPI   C2B 4974   5.049  13.719   9.732 -0.2958  0.0069  0.0231
  311loPI   C3B 4975   4.933  13.725   9.356 -0.0600 -0.3213 -0.0543
  311loPI   C4B 4976   5.107  13.720   8.950 -0.3914 -0.1211 -0.0668
  312loPI    C1 4977   8.916   3.585  11.261  0.2345 -0.0720 -0.2678
  312loPI    C2 4978   8.922   3.238  11.460 -0.0129 -0.0089 -0.1459
  312loPI    C3 4979   9.055   3.571  11.636 -0.3586  0.0726 -0.0298
  312loPI   PO4 4980   8.976   3.558  10.936 -0.0148  0.1305 -0.0360
  312loPI   GL1 4981   8.934   3.790  10.636 -0.2501 -0.3502 -0.0994
  312loPI   GL2 4982   8.670   3.710  10.469 -0.2629  0.4319 -0.1872
  312loPI   C1A 4983   8.989   4.126  10.285 -0.0057  0.0730  0.1460
  312loPI   C2A 4984   8.931   4.209   9.801  0.1479  0.1860 -0.0655
  312loPI   C3A 4985   8.945   4.199   9.505  0.1701 -0.0809 -0.2023
  312loPI   C4A 4986   9.065   4.229   9.075 -0.3053  0.0633  0.1520
  312loPI   C5A 4987   9.040   4.305   8.644  0.0121  0.2276  0.0119
  312loPI   C6A 4988   9.236   4.577   8.402  0.1129  0.0746 -0.0286
  312loPI   C1B 4989   8.683   3.638  10.049 -0.2036 -0.2424 -0.1147
  312loPI   C2B 4990   8.785   3.678   9.571  0.1152 -0.0937  0.1471
  312loPI   C3B 4991   8.827   3.826   9.202 -0.0358  0.0390  0.1135
  312loPI   C4B 4992   8.932   3.775   8.777 -0.2561  0.1801 -0.0903
  313loPI    C1 4993   2.617   9.253  11.066 -0.0473  0.1425  0.0254
  313loPI    C2 4994   2.518   9.600  11.239 -0.3557 -0.0626  0.2722
  313loPI    C3 4995   2.700   9.315  11.452 -0.0653 -0.0413  0.0597
  313loPI   PO4 4996   2.398   9.276  10.893 -0.0264 -0.0347 -0.0715
  313loPI   GL1 4997   2.554   9.160  10.489  0.1865  0.1391 -0.1240
  313loPI   GL2 4998   2.501   9.505  10.435  0.0930  0.0910  0.0785
  313loPI   C1A 4999   2.763   9.060  10.111 -0.1130  0.0267 -0.0551
  313loPI   C2A 5000   2.698   9.080   9.677  0.1230 -0.0003 -0.0039
  313loPI   C3A 5001   2.751   9.000   9.295  0.2203  0.0990 -0.2361
  313loPI   C4A 5002   2.847   9.044   9.031  0.0854  0.0630 -0.0569
  313loPI   C5A 5003   2.843   9.013   8.530 -0.2119  0.2059 -0.0097
  313loPI   C6A 5004   2.776   9.410   8.159  0.1485 -0.1723 -0.2397
  313loPI   C1B 5005   2.422   9.437  10.033  0.0110 -0.1863  0.1348
  313loPI   C2B 5006   2.463   9.476   9.502  0.3724  0.1293  0.2642
  313loPI   C3B 5007   2.479   9.452   9.139  0.0765  0.1610 -0.0633
  313loPI   C4B 5008   2.502   9.400   8.673  0.2374 -0.2410 -0.1556
  314loPI    C1 5009  16.124   4.975  10.825 -0.0226  0.1531  0.0778
  314loPI    C2 5010  15.760   4.821  10.886 -0.0383  0.1714  0.0302
  314loPI    C3 5011  16.082   4.643  11.043 -0.0350 -0.0297 -0.1975
  314loPI   PO4 5012  16.085   5.051  10.573  0.4729 -0.0127  0.2632
  314loPI   GL1 5013  16.182   5.063  10.245  0.4178 -0.1224  0.0850
  314loPI   GL2 5014  16.507   5.050  10.138  0.1369 -0.2153  0.1177
  314loPI   C1A 5015  16.237   5.225   9.748 -0.0452 -0.3222  0.0347
  314loPI   C2A 5016  15.989   5.431   9.418 -0.1108  0.0802  0.3699
  314loPI   C3A 5017  16.012   5.572   8.987  0.0245  0.1318 -0.1397
  314loPI   C4A 5018  15.834   5.558   8.578 -0.1087 -0.0284  0.2826
  314loPI   C5A 5019  15.538   5.746   8.154  0.1017  0.1789 -0.3958
  314loPI   C6A 5020  15.109   5.613   8.038 -0.1068 -0.0658  0.2944
  314loPI   C1B 5021  16.459   4.759   9.829 -0.1562 -0.1447  0.0899
  314loPI   C2B 5022  16.602   4.720   9.365  0.0758 -0.0863  0.0333
  314loPI   C3B 5023  16.631   4.780   8.885 -0.5224  0.3457 -0.0163
  314loPI   C4B 5024  16.593   4.712   8.462 -0.2613  0.2018  0.0197
  315loPI    C1 5025  15.933   1.107  10.144  0.0041 -0.1501 -0.1044
  315loPI    C2 5026  15.911   0.821  10.424 -0.0741  0.0471  0.0937
  315loPI    C3 5027  15.599   0.890  10.183 -0.0706 -0.0058  0.0740
  315loPI   PO4 5028  16.199   1.048  10.071 -0.6113 -0.0071  0.2266
  315loPI   GL1 5029  16.250   0.688   9.896 -0.0850 -0.0134 -0.1097
  315loPI   GL2 5030  15.972   0.576   9.973  0.1094 -0.1862 -0.0786
  315loPI   C1A 5031  16.392   0.408   9.609 -0.1772 -0.0856 -0.2103
  315loPI   C2A 5032  16.142   0.138   9.383  0.0127  0.0006  0.0748
  315loPI   C3A 5033  15.982   0.157   8.971  0.1262 -0.0762  0.2082
  315loPI   C4A 5034  15.630   0.055   8.779 -0.1848 -0.0293  0.0487
  315loPI   C5A 5035  15.273   0.107   8.628  0.0444  0.0674 -0.0529
  315loPI   C6A 5036  14.810   0.216   8.695 -0.1189 -0.1577  0.2081
  315loPI   C1B 5037  15.823   0.308   9.702  0.2700  0.1405  0.0041
  315loPI   C2B 5038  15.435   0.262   9.518 -0.0621 -0.1532 -0.0533
  315loPI   C3B 5039  15.373   0.296   9.093  0.0999  0.0707  0.0447
  315loPI   C4B 5040  15.682   0.485   8.657  0.3331  0.1651  0.1833
  316loPI    C1 5041   2.776  13.645  10.742  0.0781  0.1708  0.0941
  316loPI    C2 5042   2.504  13.584  11.029  0.0858 -0.1507  0.0372
  316loPI    C3 5043   2.893  13.580  11.119  0.0855 -0.1559  0.0383
  316loPI   PO4 5044   2.709  13.697  10.549  0.1078  0.1066 -0.0284
  316loPI   GL1 5045   2.573  13.754  10.210 -0.3189  0.0844  0.1613
  316loPI   GL2 5046   2.335  13.552  10.126  0.0907 -0.0125  0.0826
  316loPI   C1A 5047   2.798  13.772   9.844 -0.0159  0.1485 -0.1151
  316loPI   C2A 5048   3.010  13.531   9.440  0.1861  0.2362  0.1217
  316loPI   C3A 5049   2.970  13.554   8.966 -0.1414 -0.2161  0.1780
  316loPI   C4A 5050   2.595  13.475   8.826  0.3802  0.0442  0.1764
  316loPI   C5A 5051   2.266  13.471   8.490 -0.1548  0.0786  0.1209
  316loPI   C6A 5052   2.067  13.562   8.025  0.0708  0.1850 -0.1124
  316loPI   C1B 5053   2.373  13.691   9.674 -0.1517  0.1677  0.1592
  316loPI   C2B 5054   2.326  13.691   9.218 -0.3532  0.0450  0.0253
  316loPI   C3B 5055   2.138  13.877   8.840 -0.2384 -0.0344 -0.1087
  316loPI   C4B 5056   2.172  13.946   8.325 -0.2095 -0.0727 -0.1861
  317loPI    C1 5057  16.607  10.368  10.859 -0.2083 -0.0106  0.0515
  317loPI    C2 5058  16.611  10.739  11.010 -0.2225 -0.1093  0.2986
  317loPI    C3 5059  16.719  10.428  11.238 -0.0616 -0.2422  0.0469
  317loPI   PO4 5060  16.478  10.431  10.586  0.0658  0.0199  0.2542
  317loPI   GL1 5061  16.438  10.183  10.209 -0.1198 -0.1751 -0.0102
  317loPI   GL2 5062  16.778  10.245  10.194 -0.4085 -0.1006  0.1221
  317loPI   C1A 5063  16.574  10.445   9.724 -0.1255  0.3977  0.0327
  317loPI   C2A 5064  16.826  10.449   9.399  0.0408 -0.2590  0.1187
  317loPI   C3A 5065  16.745  10.152   9.133  0.0214 -0.0979  0.3031
  317loPI   C4A 5066  16.664   9.804   9.018  0.0654 -0.0423  0.0800
  317loPI   C5A 5067  16.698   9.491   8.740 -0.3027 -0.0755 -0.0261
  317loPI   C6A 5068  16.961   9.236   8.589 -0.0634  0.0019 -0.2159
  317loPI   C1B 5069  17.170  10.142   9.890  0.0725 -0.2120  0.1830
  317loPI   C2B 5070  17.317  10.221   9.452 -0.0546 -0.2873  0.0646
  317loPI   C3B 5071  17.235  10.221   8.963  0.0497  0.3111 -0.5562
  317loPI   C4B 5072  16.978  10.057   8.720  0.0495  0.2837 -0.2303
  318loPI    C1 5073  10.219   2.844  11.043  0.1830 -0.0948 -0.4394
  318loPI    C2 5074  10.198   3.169  10.811 -0.0311  0.1540 -0.0814
  318loPI    C3 5075  10.410   3.179  11.149 -0.0538 -0.0750 -0.0588
  318loPI   PO4 5076  10.102   2.634  10.865 -0.1176 -0.0746  0.0990
  318loPI   GL1 5077  10.222   2.455  10.435  0.2733  0.0070  0.1437
  318loPI   GL2 5078  10.092   2.873  10.405  0.2035 -0.2929 -0.0551
  318loPI   C1A 5079  10.230   2.464  10.004  0.0062  0.0803  0.0347
  318loPI   C2A 5080  10.225   2.499   9.618  0.2504 -0.0810  0.0606
  318loPI   C3A 5081  10.174   2.526   9.221  0.0944 -0.3646  0.1899
  318loPI   C4A 5082  10.301   2.503   8.866 -0.1756  0.4448 -0.0484
  318loPI   C5A 5083  10.286   2.444   8.452 -0.2539  0.1410  0.4428
  318loPI   C6A 5084  10.612   2.190   8.169  0.0602  0.0804 -0.0450
  318loPI   C1B 5085   9.935   2.919   9.943 -0.3417  0.0695 -0.1238
  318loPI   C2B 5086   9.877   2.903   9.437 -0.2742  0.2404  0.2708
  318loPI   C3B 5087  10.000   2.910   9.037  0.0474  0.2974 -0.0172
  318loPI   C4B 5088   9.936   2.815   8.634  0.2200 -0.1033  0.0897
  319loPI    C1 5089   1.245  14.057  10.731  0.0536  0.4354 -0.0737
  319loPI    C2 5090   0.905  14.197  10.889 -0.0824 -0.2689  0.2980
  319loPI    C3 5091   1.223  14.131  11.123  0.1821 -0.0062  0.0223
  319loPI   PO4 5092   1.327  14.207  10.582 -0.0325 -0.1640 -0.3602
  319loPI   GL1 5093   1.360  14.353  10.258  0.0777 -0.1040  0.1885
  319loPI   GL2 5094   1.645  14.284  10.073 -0.1616 -0.1613  0.0255
  319loPI   C1A 5095   1.078  14.334   9.940  0.2873 -0.2261  0.2411
  319loPI   C2A 5096   0.880  14.291   9.514  0.1364  0.1759  0.1477
  319loPI   C3A 5097   0.911  14.365   9.087  0.0717  0.1580 -0.1067
  319loPI   C4A 5098   0.981  14.394   8.543  0.0499  0.3116 -0.0553
  319loPI   C5A 5099   0.658  14.259   8.281 -0.2445 -0.2246 -0.0841
  319loPI   C6A 5100   0.259  14.107   8.037 -0.0722  0.0721  0.2388
  319loPI   C1B 5101   1.485  14.276   9.620  0.1260 -0.1883  0.1022
  319loPI   C2B 5102   1.462  14.272   9.198  0.0940  0.0155 -0.0023
  319loPI   C3B 5103   1.476  14.513   8.780 -0.1193 -0.1652  0.3106
  319loPI   C4B 5104   1.560  14.524   8.308 -0.1256  0.2184 -0.0448
  320loPI    C1 5105  12.359   8.848  10.954 -0.1118 -0.0071 -0.1416
  320loPI    C2 5106  12.009   8.757  11.127 -0.1841  0.0498 -0.2569
  320loPI    C3 5107  12.352   8.629  11.289 -0.2618 -0.0659 -0.1824
  320loPI   PO4 5108  12.363   8.751  10.730 -0.0168  0.2886 -0.1047
  320loPI   GL1 5109  12.193   8.519  10.415 -0.2040  0.0171  0.0687
  320loPI   GL2 5110  12.488   8.304  10.362 -0.2227 -0.0211 -0.0723
  320loPI   C1A 5111  11.897   8.562  10.179 -0.0213 -0.1751 -0.0877
  320loPI   C2A 5112  11.845   8.625   9.736 -0.1344 -0.0018 -0.3112
  320loPI   C3A 5113  11.764   8.593   9.304 -0.1373  0.1464  0.1283
  320loPI   C4A 5114  11.931   8.544   8.907  0.2172  0.0316 -0.0741
  320loPI   C5A 5115  11.933   8.500   8.492  0.0964  0.1604  0.0381
  320loPI   C6A 5116  12.305   8.384   8.184 -0.0020 -0.2373 -0.2896
  320loPI   C1B 5117  12.212   8.209  10.012 -0.0529  0.1225  0.0345
  320loPI   C2B 5118  12.228   8.172   9.632  0.1574  0.1024  0.0714
  320loPI   C3B 5119  12.141   8.183   9.253 -0.1820 -0.0921  0.1260
  320loPI   C4B 5120  12.226   8.162   8.783  0.0805  0.0952  0.3069
  321loPI    C1 5121  12.358   4.736  10.822 -0.0752  0.0368  0.0551
  321loPI    C2 5122  12.347   4.350  10.716  0.0796  0.0745 -0.1027
  321loPI    C3 5123  12.559   4.463  11.036 -0.0231  0.0204 -0.0146
  321loPI   PO4 5124  12.141   4.856  10.754  0.1260  0.0114 -0.1570
  321loPI   GL1 5125  12.237   4.892  10.344 -0.2686 -0.1793  0.0556
  321loPI   GL2 5126  12.407   5.043  10.191  0.0973 -0.0481 -0.0214
  321loPI   C1A 5127  11.956   4.750  10.016 -0.1010 -0.5479 -0.3695
  321loPI   C2A 5128  11.905   4.887   9.544 -0.0935  0.1820 -0.0551
  321loPI   C3A 5129  11.817   4.980   9.119  0.0182 -0.0599 -0.0572
  321loPI   C4A 5130  11.782   4.960   8.760  0.0191  0.2075 -0.1925
  321loPI   C5A 5131  11.753   4.951   8.399 -0.1754 -0.0690  0.0803
  321loPI   C6A 5132  11.998   5.021   8.045 -0.1755 -0.0017 -0.0616
  321loPI   C1B 5133  12.323   4.984   9.782 -0.1200  0.1750  0.1681
  321loPI   C2B 5134  12.339   5.020   9.282  0.1050  0.2716 -0.1204
  321loPI   C3B 5135  12.223   5.006   8.883 -0.1751 -0.1721  0.0174
  321loPI   C4B 5136  12.301   4.834   8.448  0.1378 -0.0367  0.3575
  322loPI    C1 5137  10.732  10.214  11.314  0.1750 -0.0076  0.0916
  322loPI    C2 5138  10.413  10.234  11.556  0.0453 -0.4717 -0.0315
  322loPI    C3 5139  10.752  10.065  11.685  0.1764 -0.1706  0.0267
  322loPI   PO4 5140  10.611  10.151  11.083 -0.2285 -0.3242  0.2003
  322loPI   GL1 5141  10.724  10.113  10.746  0.3701 -0.1447  0.0983
  322loPI   GL2 5142  10.710  10.461  10.647 -0.2810  0.1718 -0.0119
  322loPI   C1A 5143  10.513  10.229  10.271 -0.0712 -0.0626 -0.2801
  322loPI   C2A 5144  10.418  10.066   9.794  0.0607  0.0211  0.3390
  322loPI   C3A 5145  10.381  10.155   9.394 -0.4878  0.2262 -0.0794
  322loPI   C4A 5146  10.366  10.306   9.054 -0.2556  0.0785 -0.2818
  322loPI   C5A 5147  10.367  10.527   8.619  0.2203  0.3286  0.2485
  322loPI   C6A 5148  10.214  10.509   8.270  0.0992 -0.0327  0.0932
  322loPI   C1B 5149  10.772  10.731  10.259  0.2316 -0.0878 -0.1741
  322loPI   C2B 5150  10.749  10.618   9.785  0.1699 -0.2021 -0.1307
  322loPI   C3B 5151  10.628  10.666   9.364  0.0360  0.0273  0.0827
  322loPI   C4B 5152  10.509  10.800   9.004  0.2927  0.0757  0.2621
  323loPI    C1 5153   0.385  14.246  10.775  0.1620 -0.0686 -0.2181
  323loPI    C2 5154   0.468  13.907  10.971  0.0532  0.0424  0.0247
  323loPI    C3 5155   0.522  14.260  11.151 -0.0847  0.1457 -0.1334
  323loPI   PO4 5156   0.525  14.255  10.572 -0.5748 -0.0971 -0.1942
  323loPI   GL1 5157   0.933  14.089  10.325  0.1860 -0.0328  0.0045
  323loPI   GL2 5158   1.179  13.872  10.251  0.2109 -0.3425 -0.2964
  323loPI   C1A 5159   0.710  14.014   9.988  0.3199 -0.0806  0.2454
  323loPI   C2A 5160   0.602  13.836   9.587  0.1463 -0.1031 -0.2658
  323loPI   C3A 5161   0.613  13.790   9.098  0.2328  0.0591  0.2621
  323loPI   C4A 5162   0.805  13.812   8.756 -0.1195 -0.3432  0.0690
  323loPI   C5A 5163   0.952  13.869   8.286 -0.2613  0.2984 -0.4569
  323loPI   C6A 5164   1.184  14.198   8.125  0.2164 -0.0983 -0.0701
  323loPI   C1B 5165   1.251  13.862   9.887 -0.0239 -0.0500 -0.2015
  323loPI   C2B 5166   1.131  13.815   9.491 -0.0579 -0.0479 -0.1375
  323loPI   C3B 5167   1.155  13.852   9.039  0.0150 -0.1457 -0.1933
  323loPI   C4B 5168   1.288  14.074   8.721  0.2654 -0.3162  0.0793
  324loPI    C1 5169   8.794   1.445  11.241 -0.0967 -0.5744  0.2158
  324loPI    C2 5170   8.559   1.580  11.535  0.0075  0.0001  0.0471
  324loPI    C3 5171   8.908   1.404  11.622 -0.0395  0.0150  0.2709
  324loPI   PO4 5172   8.748   1.634  11.048  0.0863 -0.0538 -0.0484
  324loPI   GL1 5173   8.704   1.605  10.645 -0.0680 -0.0559  0.1085
  324loPI   GL2 5174   8.978   1.768  10.486  0.0323  0.1799 -0.1191
  324loPI   C1A 5175   8.686   1.401  10.220 -0.1594 -0.1943 -0.1537
  324loPI   C2A 5176   8.617   1.397   9.853  0.3981 -0.0015  0.1651
  324loPI   C3A 5177   8.600   1.405   9.452  0.1090 -0.0937  0.2266
  324loPI   C4A 5178   8.623   1.518   9.018  0.0474  0.0745  0.2999
  324loPI   C5A 5179   8.715   1.437   8.657  0.0314  0.1135  0.0592
  324loPI   C6A 5180   8.744   1.578   8.208 -0.0869  0.0946  0.2739
  324loPI   C1B 5181   8.862   1.880  10.094  0.0051  0.0748 -0.1459
  324loPI   C2B 5182   8.860   1.816   9.582  0.0701  0.2126  0.1007
  324loPI   C3B 5183   8.825   1.965   9.200  0.1396 -0.1056 -0.0672
  324loPI   C4B 5184   8.916   1.952   8.777  0.1662  0.2324  0.1917
  325loPI    C1 5185   3.869  12.426  11.036 -0.5132  0.0928 -0.0966
  325loPI    C2 5186   3.783  12.035  11.024 -0.0830 -0.0075 -0.0725
  325loPI    C3 5187   3.645  12.262  11.323  0.1351 -0.2628  0.2277
  325loPI   PO4 5188   3.943  12.560  10.656 -0.2552 -0.1775 -0.0652
  325loPI   GL1 5189   4.008  12.584  10.182  0.0525 -0.1190 -0.0508
  325loPI   GL2 5190   4.179  12.216  10.239  0.1129 -0.3158  0.1923
  325loPI   C1A 5191   3.957  12.673   9.791  0.0279 -0.2071  0.0368
  325loPI   C2A 5192   4.033  12.706   9.347  0.0311 -0.3579  0.2353
  325loPI   C3A 5193   4.060  12.758   8.812 -0.0887 -0.0566 -0.3450
  325loPI   C4A 5194   4.030  12.602   8.410  0.0318  0.1384 -0.0670
  325loPI   C5A 5195   3.780  12.544   8.131 -0.0676  0.0535 -0.0380
  325loPI   C6A 5196   3.544  12.137   8.141  0.1284 -0.1074  0.2296
  325loPI   C1B 5197   4.276  12.284   9.808 -0.1646  0.5306 -0.0191
  325loPI   C2B 5198   4.302  12.282   9.420 -0.1471  0.1565  0.0200
  325loPI   C3B 5199   4.312  12.324   8.989 -0.1291 -0.1865 -0.1592
  325loPI   C4B 5200   4.412  12.317   8.567  0.0726 -0.0537  0.1662
  326loPI    C1 5201   0.261   9.652  10.651 -0.1677 -0.0117  0.0098
  326loPI    C2 5202   0.359   9.998  10.827 -0.0778 -0.0438  0.0232
  326loPI    C3 5203   0.415   9.951  10.433  0.1192 -0.1206  0.0592
  326loPI   PO4 5204  -0.028   9.679  10.735 -0.1089  0.0409  0.0685
  326loPI   GL1 5205  -0.303   9.634  10.467 -0.1408  0.2145 -0.0289
  326loPI   GL2 5206  -0.024   9.688  10.247 -0.0801  0.3166 -0.4186
  326loPI   C1A 5207  -0.437   9.843  10.021  0.3722 -0.0537  0.0552
  326loPI   C2A 5208  -0.529   9.712   9.584  0.0282 -0.0543 -0.1111
  326loPI   C3A 5209  -0.702   9.396   9.353  0.0545 -0.2410 -0.1776
  326loPI   C4A 5210  -0.605   9.146   8.961 -0.1375 -0.1212 -0.2181
  326loPI   C5A 5211  -0.495   9.130   8.537 -0.0542 -0.3480 -0.4513
  326loPI   C6A 5212  -0.290   9.174   8.148 -0.0473 -0.2494 -0.0186
  326loPI   C1B 5213  -0.090   9.560   9.816 -0.2327  0.1976  0.1900
  326loPI   C2B 5214   0.011   9.715   9.391  0.2016 -0.0232 -0.1526
  326loPI   C3B 5215   0.020   9.676   8.881 -0.1667 -0.2016 -0.1312
  326loPI   C4B 5216  -0.243   9.598   8.453  0.0589  0.2961  0.0392
  327loPI    C1 5217   7.880  14.712  10.700 -0.3443 -0.1009  0.0587
  327loPI    C2 5218   7.951  15.097  10.782  0.1199 -0.1725  0.0216
  327loPI    C3 5219   7.662  14.900  10.978 -0.1527  0.2025  0.0081
  327loPI   PO4 5220   7.911  14.736  10.442 -0.1019  0.2629 -0.0285
  327loPI   GL1 5221   7.958  14.646  10.003  0.1224  0.2390  0.0497
  327loPI   GL2 5222   7.990  14.255  10.067 -0.2204 -0.4837 -0.3231
  327loPI   C1A 5223   8.116  14.738   9.606  0.2009  0.2893 -0.0638
  327loPI   C2A 5224   8.032  14.940   9.234 -0.1295 -0.0165 -0.2371
  327loPI   C3A 5225   8.002  14.978   8.794 -0.0683  0.0315  0.1389
  327loPI   C4A 5226   7.930  14.862   8.330  0.0352  0.4568  0.2051
  327loPI   C5A 5227   7.584  15.041   8.046  0.1790 -0.1129 -0.3404
  327loPI   C6A 5228   7.149  15.066   8.079  0.0586 -0.1767  0.3464
  327loPI   C1B 5229   7.845  14.318   9.617 -0.0097  0.2540  0.1359
  327loPI   C2B 5230   7.876  14.485   9.223  0.0829 -0.1068 -0.0365
  327loPI   C3B 5231   7.850  14.504   8.774  0.1922  0.1244 -0.0260
  327loPI   C4B 5232   7.826  14.377   8.364  0.2305  0.1030  0.0419
  328loPI    C1 5233   2.887  12.290  10.913  0.0025 -0.2370  0.0836
  328loPI    C2 5234   2.696  12.557  11.141 -0.3225 -0.1857 -0.2397
  328loPI    C3 5235   2.644  12.166  11.205  0.1079 -0.1813  0.1960
  328loPI   PO4 5236   2.953  12.436  10.586 -0.1364 -0.1493 -0.5215
  328loPI   GL1 5237   3.252  12.691  10.304 -0.2080  0.1200 -0.0240
  328loPI   GL2 5238   3.441  12.572  10.256 -0.1298  0.0128  0.1058
  328loPI   C1A 5239   3.151  12.946  10.052  0.1237  0.0371  0.0986
  328loPI   C2A 5240   3.242  13.079   9.632  0.0968 -0.0061  0.1219
  328loPI   C3A 5241   3.231  13.108   9.255 -0.1763  0.0418 -0.1460
  328loPI   C4A 5242   3.245  13.098   8.852  0.2974 -0.1355  0.0687
  328loPI   C5A 5243   3.321  13.209   8.414 -0.2183  0.1768  0.2370
  328loPI   C6A 5244   3.540  12.992   8.072  0.0723  0.0434  0.0836
  328loPI   C1B 5245   3.399  12.621   9.799  0.1626  0.0960 -0.0002
  328loPI   C2B 5246   3.469  12.679   9.367 -0.4140 -0.3794  0.0260
  328loPI   C3B 5247   3.609  12.674   8.994  0.0528  0.1415  0.0099
  328loPI   C4B 5248   3.550  12.710   8.551 -0.0469  0.0045  0.0454
  329loPI    C1 5249   6.701   0.353  11.155  0.2089 -0.1298 -0.0236
  329loPI    C2 5250   6.856   0.450  11.511 -0.0606 -0.0725  0.0799
  329loPI    C3 5251   6.965   0.110  11.332 -0.1694 -0.2654  0.3723
  329loPI   PO4 5252   6.809   0.482  10.970 -0.0260 -0.2783  0.1156
  329loPI   GL1 5253   6.898   0.641  10.576 -0.0009 -0.0806  0.1140
  329loPI   GL2 5254   7.122   0.418  10.428 -0.4556 -0.2135 -0.0779
  329loPI   C1A 5255   7.024   0.779  10.122  0.0987 -0.2435 -0.0859
  329loPI   C2A 5256   6.869   0.766   9.772 -0.1393 -0.3658 -0.0241
  329loPI   C3A 5257   6.949   0.804   9.358  0.2258  0.0847 -0.2761
  329loPI   C4A 5258   6.959   0.839   8.931  0.1352 -0.5185  0.0757
  329loPI   C5A 5259   6.979   0.876   8.461  0.2600  0.0191  0.0468
  329loPI   C6A 5260   7.017   0.709   8.095 -0.1898  0.0029  0.0153
  329loPI   C1B 5261   7.144   0.303   9.974  0.0061 -0.0257 -0.3517
  329loPI   C2B 5262   7.171   0.376   9.571  0.0929  0.4366  0.0241
  329loPI   C3B 5263   7.257   0.480   9.103  0.0703 -0.1910  0.3486
  329loPI   C4B 5264   7.288   0.445   8.674  0.1366  0.1872  0.1665
  330loPI    C1 5265  13.629  14.678  10.544  0.0920 -0.0419 -0.0305
  330loPI    C2 5266  13.457  14.789  10.887  0.1560 -0.0804  0.0142
  330loPI    C3 5267  13.443  15.031  10.569  0.0749 -0.0556  0.0365
  330loPI   PO4 5268  13.866  14.531  10.609 -0.4341 -0.2673 -0.1581
  330loPI   GL1 5269  14.072  14.216  10.366  0.2028 -0.0340 -0.2367
  330loPI   GL2 5270  14.360  14.280  10.374  0.2972  0.1352  0.1209
  330loPI   C1A 5271  13.853  14.252   9.919  0.0005  0.5472  0.2891
  330loPI   C2A 5272  13.769  14.177   9.540 -0.1577  0.0672  0.0135
  330loPI   C3A 5273  13.675  14.165   9.158  0.2038 -0.2687  0.0817
  330loPI   C4A 5274  13.626  14.113   8.789  0.0770 -0.1102  0.1247
  330loPI   C5A 5275  13.779  14.071   8.387  0.3009  0.1931 -0.0641
  330loPI   C6A 5276  13.996  14.090   8.064  0.0892 -0.0424  0.0631
  330loPI   C1B 5277  14.370  14.272   9.995  0.0640  0.3058 -0.0162
  330loPI   C2B 5278  14.323  14.293   9.587  0.1594 -0.1239  0.0249
  330loPI   C3B 5279  14.203  14.251   9.162  0.1719  0.3657 -0.0463
  330loPI   C4B 5280  14.134  14.180   8.733 -0.0609 -0.0640  0.0820
  331loPI    C1 5281  14.192  15.941  10.794 -0.0887  0.2726 -0.2603
  331loPI    C2 5282  14.183  16.278  11.010 -0.1723  0.0434  0.1009
  331loPI    C3 5283  14.009  15.945  11.149  0.1752 -0.2339 -0.1085
  331loPI   PO4 5284  14.036  15.950  10.599  0.3057 -0.2856 -0.1638
  331loPI   GL1 5285  13.679  15.963  10.327 -0.0256 -0.1599  0.0885
  331loPI   GL2 5286  13.476  16.073  10.093 -0.2060 -0.0718 -0.1494
  331loPI   C1A 5287  13.843  15.739   9.967 -0.1228 -0.1875  0.1224
  331loPI   C2A 5288  13.817  15.575   9.719 -0.2836  0.1620  0.1305
  331loPI   C3A 5289  13.798  15.550   9.334 -0.2292  0.0934  0.0037
  331loPI   C4A 5290  13.774  15.536   8.908 -0.5930 -0.1865 -0.0652
  331loPI   C5A 5291  13.726  15.628   8.519  0.1062  0.2683 -0.0763
  331loPI   C6A 5292  13.691  15.775   7.991  0.1734  0.0078  0.3849
  331loPI   C1B 5293  13.436  16.040   9.692  0.1757  0.2169 -0.3546
  331loPI   C2B 5294  13.573  15.959   9.219  0.0554 -0.3482 -0.0895
  331loPI   C3B 5295  13.423  16.032   8.736  0.1128  0.0162  0.2283
  331loPI   C4B 5296  13.186  15.988   8.446  0.1057 -0.1852  0.2112
  332loPI    C1 5297  17.721   3.330  10.554  0.2103  0.0090 -0.2326
  332loPI    C2 5298  17.960   3.061  10.729 -0.0806 -0.1357 -0.0493
  332loPI    C3 5299  17.820   3.372  10.939  0.0729  0.0380 -0.2000
  332loPI   PO4 5300  17.782   3.346  10.321 -0.0173 -0.1236 -0.1339
  332loPI   GL1 5301  17.691   3.284  10.001  0.1505  0.2471  0.1213
  332loPI   GL2 5302  17.497   3.146   9.925  0.2021  0.3846 -0.1582
  332loPI   C1A 5303  17.831   3.494   9.651 -0.0247 -0.3410  0.1350
  332loPI   C2A 5304  17.887   3.461   9.195 -0.1218  0.0599 -0.0505
  332loPI   C3A 5305  17.804   3.641   8.848  0.0259  0.0952 -0.0907
  332loPI   C4A 5306  18.137   3.909   8.670 -0.1418  0.1376  0.0903
  332loPI   C5A 5307  18.437   3.969   8.358  0.2967  0.2733 -0.0701
  332loPI   C6A 5308  18.783   4.120   8.197  0.0249  0.0627 -0.0048
  332loPI   C1B 5309  17.574   2.822   9.629 -0.3037  0.0331  0.2025
  332loPI   C2B 5310  17.528   2.718   9.091  0.1080  0.0396 -0.1651
  332loPI   C3B 5311  17.719   2.741   8.730  0.1871 -0.0360  0.0065
  332loPI   C4B 5312  17.840   2.698   8.268 -0.0965 -0.0817 -0.0373
  333loPI    C1 5313  17.480   3.871  10.495  0.1255  0.0042 -0.1180
  333loPI    C2 5314  17.576   3.844  10.883 -0.1555  0.2105 -0.0309
  333loPI    C3 5315  17.860   3.805  10.604  0.0644  0.1512  0.1969
  333loPI   PO4 5316  17.335   3.683  10.472  0.0476  0.0366  0.1231
  333loPI   GL1 5317  17.286   3.599  10.065 -0.0578  0.2906 -0.0457
  333loPI   GL2 5318  16.960   3.791  10.008 -0.2431 -0.0273 -0.1512
  333loPI   C1A 5319  17.244   3.478   9.626 -0.0304  0.0337 -0.0289
  333loPI   C2A 5320  17.443   3.258   9.339 -0.0121  0.0515 -0.2412
  333loPI   C3A 5321  17.475   3.251   8.863  0.1507 -0.2426  0.1044
  333loPI   C4A 5322  17.304   3.447   8.559 -0.0538  0.0913  0.2757
  333loPI   C5A 5323  17.262   3.770   8.281  0.1220  0.0791 -0.1958
  333loPI   C6A 5324  17.414   4.098   8.115 -0.0490 -0.1735 -0.1407
  333loPI   C1B 5325  16.814   3.810   9.538 -0.1532 -0.1912 -0.0853
  333loPI   C2B 5326  16.621   3.622   9.195  0.3678  0.1698 -0.1364
  333loPI   C3B 5327  16.568   3.310   8.818 -0.3316 -0.1731 -0.0268
  333loPI   C4B 5328  16.630   3.004   8.586  0.1161  0.2554  0.0863
  334loPI    C1 5329   3.141  16.643  10.703  0.0052 -0.2970  0.0417
  334loPI    C2 5330   3.254  16.770  11.066  0.0850  0.0249 -0.0918
  334loPI    C3 5331   3.485  16.515  10.861  0.0995 -0.0622  0.0319
  334loPI   PO4 5332   3.114  16.813  10.587 -0.1504 -0.4596  0.1964
  334loPI   GL1 5333   3.184  16.870  10.054 -0.1533 -0.2095  0.1064
  334loPI   GL2 5334   3.307  17.120   9.852  0.2743  0.1412  0.2430
  334loPI   C1A 5335   3.048  16.752   9.599  0.0143  0.1176 -0.0626
  334loPI   C2A 5336   3.317  16.703   9.246  0.4425 -0.1780  0.1265
  334loPI   C3A 5337   3.455  16.746   8.841 -0.0423 -0.1371  0.2885
  334loPI   C4A 5338   3.515  16.679   8.422  0.0281 -0.1929 -0.1314
  334loPI   C5A 5339   3.272  16.401   8.080 -0.0497 -0.2380  0.0828
  334loPI   C6A 5340   3.286  16.081   7.805 -0.2968  0.0785 -0.0392
  334loPI   C1B 5341   3.471  17.150   9.515  0.1539  0.4667 -0.0718
  334loPI   C2B 5342   3.538  17.191   9.155 -0.0607  0.1880 -0.1354
  334loPI   C3B 5343   3.737  17.202   8.767 -0.0128  0.2257  0.2211
  334loPI   C4B 5344   3.790  17.263   8.351  0.1365 -0.1402  0.0153
  335loPI    C1 5345   7.250  10.065  11.239 -0.2405  0.0280 -0.0454
  335loPI    C2 5346   7.278  10.451  11.342  0.1965 -0.0439  0.1241
  335loPI    C3 5347   7.145  10.182  11.607 -0.1178 -0.0113  0.0026
  335loPI   PO4 5348   7.117  10.042  10.942  0.3361 -0.1408 -0.2918
  335loPI   GL1 5349   7.166  10.191  10.538  0.1935 -0.4008 -0.1241
  335loPI   GL2 5350   7.445  10.311  10.457  0.3694 -0.1180 -0.2515
  335loPI   C1A 5351   7.061   9.928  10.231  0.0597  0.2379 -0.1366
  335loPI   C2A 5352   7.186   9.883   9.834  0.2508  0.1250 -0.0140
  335loPI   C3A 5353   7.217   9.892   9.456 -0.0110 -0.3982  0.5907
  335loPI   C4A 5354   7.230   9.918   9.056  0.0373 -0.0817  0.0800
  335loPI   C5A 5355   7.258   9.905   8.667  0.4214  0.1254  0.1027
  335loPI   C6A 5356   7.496   9.658   8.270 -0.1381  0.1277  0.1459
  335loPI   C1B 5357   7.356  10.363  10.080 -0.0421 -0.0241  0.0849
  335loPI   C2B 5358   7.483  10.334   9.718 -0.0504 -0.1261  0.0917
  335loPI   C3B 5359   7.401  10.389   9.336 -0.1067  0.2618  0.0074
  335loPI   C4B 5360   7.494  10.455   8.893 -0.2796  0.0238 -0.0309
  336loPI    C1 5361   3.396   0.197  10.721 -0.0915 -0.1174  0.1038
  336loPI    C2 5362   3.567   0.487  10.937 -0.1205  0.1288 -0.1972
  336loPI    C3 5363   3.731   0.122  10.928 -0.1341  0.1056  0.2572
  336loPI   PO4 5364   3.394   0.225  10.545 -0.0233  0.2314  0.0379
  336loPI   GL1 5365   3.404   0.360  10.144 -0.2932 -0.1444 -0.1336
  336loPI   GL2 5366   3.451  -0.024  10.067  0.0420  0.2227 -0.1395
  336loPI   C1A 5367   3.626   0.584   9.909 -0.1800 -0.1401  0.1929
  336loPI   C2A 5368   3.743   0.561   9.420 -0.2054 -0.0490  0.3364
  336loPI   C3A 5369   3.756   0.616   8.997  0.3176 -0.1046  0.2011
  336loPI   C4A 5370   3.755   0.423   8.599 -0.1015 -0.0123 -0.0471
  336loPI   C5A 5371   3.677   0.296   8.121  0.2907  0.0141  0.0670
  336loPI   C6A 5372   3.450   0.052   7.951  0.1622 -0.1110  0.0047
  336loPI   C1B 5373   3.475   0.101   9.586  0.0970 -0.1364 -0.1111
  336loPI   C2B 5374   3.552   0.135   9.136  0.1219  0.1004  0.2470
  336loPI   C3B 5375   3.497  -0.041   8.663  0.0113  0.0168 -0.0842
  336loPI   C4B 5376   3.586  -0.290   8.296 -0.2285  0.0365 -0.1424
  337loPI    C1 5377  12.196  15.898  10.798  0.1045 -0.0855  0.0790
  337loPI    C2 5378  12.414  15.711  11.076  0.1992  0.0260  0.0805
  337loPI    C3 5379  12.372  15.550  10.713 -0.1290 -0.2446  0.2323
  337loPI   PO4 5380  12.319  16.127  10.765 -0.1250  0.0326  0.1049
  337loPI   GL1 5381  12.430  16.178  10.416 -0.0090  0.1153 -0.0532
  337loPI   GL2 5382  12.400  15.869  10.321 -0.0863  0.0421 -0.0398
  337loPI   C1A 5383  12.110  16.255  10.052 -0.3597 -0.0867 -0.2291
  337loPI   C2A 5384  12.095  16.256   9.616  0.0740 -0.0608  0.1585
  337loPI   C3A 5385  12.126  16.208   9.132  0.1203 -0.0940 -0.0651
  337loPI   C4A 5386  12.057  16.279   8.631 -0.3159 -0.0510 -0.0064
  337loPI   C5A 5387  11.978  16.236   8.228  0.1594 -0.0253 -0.1498
  337loPI   C6A 5388  12.126  15.978   7.914  0.0604  0.2669  0.0548
  337loPI   C1B 5389  12.451  15.933   9.892  0.2056 -0.0751  0.1069
  337loPI   C2B 5390  12.400  15.821   9.460  0.0372  0.2334  0.2516
  337loPI   C3B 5391  12.525  15.770   9.158  0.0061  0.1441 -0.0676
  337loPI   C4B 5392  12.364  15.830   8.748 -0.4887 -0.1321 -0.1813
  338loPI    C1 5393   2.352  15.448  10.457 -0.0124  0.1665 -0.1309
  338loPI    C2 5394   2.720  15.346  10.576  0.0429  0.2950 -0.1898
  338loPI    C3 5395   2.462  15.506  10.837 -0.1101 -0.1654 -0.0480
  338loPI   PO4 5396   2.438  15.620  10.242  0.3097 -0.0405  0.2882
  338loPI   GL1 5397   2.618  15.524   9.859  0.0828  0.3211 -0.1188
  338loPI   GL2 5398   2.969  15.529   9.696 -0.1241  0.2077  0.1067
  338loPI   C1A 5399   2.581  15.266   9.499 -0.0778 -0.0212 -0.0176
  338loPI   C2A 5400   2.663  15.139   9.156 -0.0838  0.0995 -0.0660
  338loPI   C3A 5401   2.984  14.830   8.906 -0.3527 -0.2166 -0.1751
  338loPI   C4A 5402   3.219  14.843   8.577 -0.1693  0.3936 -0.1603
  338loPI   C5A 5403   3.436  14.811   8.179  0.0558 -0.1377  0.0833
  338loPI   C6A 5404   3.668  14.686   7.724  0.3221 -0.3324 -0.2034
  338loPI   C1B 5405   2.981  15.522   9.239 -0.1396 -0.2060 -0.1593
  338loPI   C2B 5406   3.026  15.329   8.781 -0.0498 -0.0284 -0.0917
  338loPI   C3B 5407   3.263  15.424   8.424  0.4084  0.0583 -0.0172
  338loPI   C4B 5408   3.416  15.318   8.032  0.3204  0.0740  0.0613
  339loPI    C1 5409  12.576   3.908  10.990  0.1316  0.0312 -0.2136
  339loPI    C2 5410  12.780   3.611  11.165  0.3553  0.2284 -0.1342
  339loPI    C3 5411  12.439   3.743  11.327  0.2784  0.0462 -0.1457
  339loPI   PO4 5412  12.570   3.871  10.740  0.0561  0.3056 -0.1430
  339loPI   GL1 5413  12.551   3.834  10.371  0.0668  0.1146 -0.0386
  339loPI   GL2 5414  12.900   3.872  10.342 -0.2232  0.2031 -0.1049
  339loPI   C1A 5415  12.483   3.946   9.842  0.2096  0.1508  0.3301
  339loPI   C2A 5416  12.425   4.055   9.448 -0.2512  0.1424  0.0767
  339loPI   C3A 5417  12.418   4.166   8.975  0.1607  0.0852  0.1855
  339loPI   C4A 5418  12.436   4.180   8.650 -0.4120 -0.4176 -0.0108
  339loPI   C5A 5419  12.415   3.988   8.273  0.0972  0.3583 -0.0808
  339loPI   C6A 5420  12.268   3.603   8.312 -0.0694 -0.0505 -0.0674
  339loPI   C1B 5421  12.922   4.123  10.011 -0.0142  0.0789  0.1569
  339loPI   C2B 5422  12.925   4.221   9.586  0.2248  0.2124  0.0555
  339loPI   C3B 5423  12.929   4.214   9.190  0.0875 -0.0993  0.0525
  339loPI   C4B 5424  12.937   4.137   8.863  0.0774 -0.0039  0.0229
  340loPI    C1 5425  10.625   2.460  11.017  0.2636  0.0393  0.1348
  340loPI    C2 5426  10.316   2.369  11.255  0.0697  0.2760 -0.0205
  340loPI    C3 5427  10.689   2.364  11.399  0.0068 -0.1168  0.1411
  340loPI   PO4 5428  10.575   2.312  10.760  0.0500 -0.1240 -0.1725
  340loPI   GL1 5429  10.836   2.310  10.444 -0.1902 -0.0772 -0.0733
  340loPI   GL2 5430  10.777   2.586  10.246 -0.2703 -0.0792 -0.0926
  340loPI   C1A 5431  11.034   2.192   9.978 -0.1112  0.1206  0.0348
  340loPI   C2A 5432  10.983   2.232   9.521  0.0544 -0.1623 -0.1070
  340loPI   C3A 5433  11.019   2.109   9.213  0.1120  0.0136 -0.4203
  340loPI   C4A 5434  10.938   2.122   8.760  0.0102 -0.0156 -0.0368
  340loPI   C5A 5435  10.853   1.820   8.427  0.2301  0.2736 -0.2034
  340loPI   C6A 5436  10.292   1.745   8.309 -0.2661 -0.2396  0.0804
  340loPI   C1B 5437  10.681   2.516   9.836  0.0383 -0.0375 -0.1793
  340loPI   C2B 5438  10.646   2.562   9.426  0.0126 -0.2197 -0.3879
  340loPI   C3B 5439  10.749   2.572   9.104 -0.0254 -0.1556  0.0252
  340loPI   C4B 5440  10.787   2.557   8.552 -0.1812 -0.1113 -0.2144
  341loPI    C1 5441  15.242  14.342  10.654 -0.2661 -0.0046  0.1365
  341loPI    C2 5442  15.480  14.184  10.934  0.0219  0.2792  0.0569
  341loPI    C3 5443  15.084  14.142  10.962  0.0788 -0.2720  0.1467
  341loPI   PO4 5444  15.370  14.242  10.392 -0.2928  0.1513 -0.0447
  341loPI   GL1 5445  15.111  14.159  10.027 -0.2502 -0.0618 -0.1420
  341loPI   GL2 5446  15.282  14.417   9.937  0.2810  0.2912  0.0589
  341loPI   C1A 5447  15.060  14.003   9.525 -0.2869 -0.2479  0.2341
  341loPI   C2A 5448  15.104  13.897   9.043  0.0811 -0.0294 -0.0290
  341loPI   C3A 5449  15.048  13.858   8.579 -0.1586 -0.0732  0.0744
  341loPI   C4A 5450  15.063  14.047   8.125  0.1101 -0.0479 -0.0594
  341loPI   C5A 5451  15.275  14.326   7.851 -0.2042 -0.0602  0.3179
  341loPI   C6A 5452  15.551  14.563   7.657 -0.0124 -0.1347  0.2715
  341loPI   C1B 5453  15.301  14.466   9.501  0.2185  0.0818 -0.1034
  341loPI   C2B 5454  15.305  14.440   9.193 -0.1787 -0.0026  0.1675
  341loPI   C3B 5455  15.270  14.450   8.846  0.1349  0.1236  0.0115
  341loPI   C4B 5456  15.264  14.522   8.428 -0.1879 -0.1456 -0.0115
  342loPI    C1 5457  16.376   7.569  10.788 -0.2229 -0.1091  0.1081
  342loPI    C2 5458  16.434   7.682  11.167  0.1065  0.2926 -0.0553
  342loPI    C3 5459  16.738   7.531  10.955 -0.0414  0.2002 -0.2032
  342loPI   PO4 5460  16.272   7.750  10.619  0.2316  0.0191 -0.2643
  342loPI   GL1 5461  16.165   7.813  10.220 -0.0540 -0.1987  0.2649
  342loPI   GL2 5462  16.192   8.068  10.041 -0.4233 -0.0784  0.1815
  342loPI   C1A 5463  16.105   7.527   9.916 -0.1370 -0.0748 -0.4999
  342loPI   C2A 5464  16.039   7.608   9.496  0.0434 -0.0358  0.0335
  342loPI   C3A 5465  16.088   7.939   9.157 -0.0511  0.2015 -0.0186
  342loPI   C4A 5466  16.021   8.256   8.796 -0.0631 -0.4820 -0.0779
  342loPI   C5A 5467  15.817   8.462   8.466  0.2982  0.3888 -0.0804
  342loPI   C6A 5468  15.527   8.712   8.408  0.1755 -0.2233  0.2366
  342loPI   C1B 5469  16.393   8.206   9.590  0.1368 -0.1229  0.1734
  342loPI   C2B 5470  16.338   8.433   9.226 -0.0504 -0.0434  0.0233
  342loPI   C3B 5471  16.198   8.731   8.829  0.0976 -0.1830 -0.0553
  342loPI   C4B 5472  16.306   8.723   8.421  0.0106 -0.0249 -0.0365
  343loPI    C1 5473  16.989   5.385  10.606 -0.0600  0.0543 -0.0264
  343loPI    C2 5474  16.825   5.355  10.969 -0.3176  0.0320 -0.1423
  343loPI    C3 5475  17.007   5.694  10.859  0.1478 -0.1090  0.1622
  343loPI   PO4 5476  17.045   5.135  10.509  0.1240  0.2764 -0.1654
  343loPI   GL1 5477  17.162   4.984  10.184  0.0930 -0.2440  0.2233
  343loPI   GL2 5478  17.335   5.149   9.936 -0.2438 -0.0320  0.1265
  343loPI   C1A 5479  16.896   5.105   9.835 -0.2441  0.1911 -0.2325
  343loPI   C2A 5480  16.787   5.249   9.484 -0.4192  0.0342  0.0333
  343loPI   C3A 5481  16.399   5.157   9.204 -0.0570 -0.2523 -0.2083
  343loPI   C4A 5482  16.340   5.207   8.770  0.1693 -0.2024 -0.0930
  343loPI   C5A 5483  16.135   5.090   8.459  0.0469 -0.3230 -0.2647
  343loPI   C6A 5484  16.085   4.824   8.156  0.1193 -0.0301 -0.1422
  343loPI   C1B 5485  17.325   5.090   9.477  0.1030  0.1919  0.1906
  343loPI   C2B 5486  17.052   5.058   9.136 -0.2530 -0.0427  0.0008
  343loPI   C3B 5487  16.902   5.296   8.740  0.1485  0.0412 -0.0793
  343loPI   C4B 5488  16.718   5.183   8.368  0.3506  0.2252  0.1351
  344loPI    C1 5489   9.767  14.518  10.894 -0.2946 -0.3331  0.0144
  344loPI    C2 5490   9.865  14.213  11.133 -0.0415 -0.1030  0.2113
  344loPI    C3 5491   9.829  14.581  11.284 -0.0010  0.0253 -0.0845
  344loPI   PO4 5492   9.896  14.566  10.780  0.1846 -0.0727  0.2060
  344loPI   GL1 5493   9.916  14.670  10.400 -0.0168 -0.1443 -0.3127
  344loPI   GL2 5494   9.645  14.451  10.361 -0.1216  0.0900  0.1042
  344loPI   C1A 5495  10.058  14.674   9.999  0.2221 -0.1556  0.0146
  344loPI   C2A 5496   9.943  14.636   9.596 -0.0322  0.2250 -0.0113
  344loPI   C3A 5497   9.911  14.525   9.230  0.3407  0.0984  0.1468
  344loPI   C4A 5498   9.800  14.539   8.774 -0.0980 -0.3422 -0.1244
  344loPI   C5A 5499   9.689  14.576   8.361 -0.1239  0.2939 -0.1097
  344loPI   C6A 5500   9.289  14.600   8.215 -0.0205  0.0442  0.2224
  344loPI   C1B 5501   9.514  14.564   9.969 -0.2592 -0.1772 -0.1445
  344loPI   C2B 5502   9.458  14.537   9.559  0.0574  0.0242  0.0277
  344loPI   C3B 5503   9.415  14.550   9.129  0.1869  0.0918 -0.2959
  344loPI   C4B 5504   9.309  14.545   8.723 -0.0211 -0.2550  0.3403
  345loPI    C1 5505  12.478   2.149  10.973  0.2033  0.0582 -0.2369
  345loPI    C2 5506  12.637   1.870  11.212 -0.1579  0.1731  0.1487
  345loPI    C3 5507  12.376   2.136  11.359 -0.1652  0.4334 -0.3138
  345loPI   PO4 5508  12.479   2.055  10.733 -0.2260 -0.1561 -0.0693
  345loPI   GL1 5509  12.235   1.834  10.524 -0.0594  0.1595  0.0088
  345loPI   GL2 5510  12.060   1.949  10.385 -0.2633 -0.0469 -0.2065
  345loPI   C1A 5511  12.507   1.939  10.096 -0.0260 -0.3182 -0.0968
  345loPI   C2A 5512  12.346   1.881   9.640 -0.1068  0.0253  0.0132
  345loPI   C3A 5513  12.268   1.889   9.204  0.0514  0.1573 -0.3786
  345loPI   C4A 5514  11.926   1.992   8.814  0.2059  0.2704  0.1592
  345loPI   C5A 5515  11.903   2.342   8.590 -0.0054 -0.1956  0.1592
  345loPI   C6A 5516  11.741   2.711   8.662  0.2295 -0.4276  0.2310
  345loPI   C1B 5517  11.964   1.799  10.009  0.0135 -0.0663 -0.0213
  345loPI   C2B 5518  11.851   2.010   9.619 -0.0510  0.1007  0.2764
  345loPI   C3B 5519  11.736   1.864   9.283 -0.0417 -0.1285  0.2143
  345loPI   C4B 5520  11.547   2.119   9.104  0.0556 -0.1013 -0.0496
  346loPI    C1 5521   7.439  14.455  10.793  0.0201  0.2791  0.0455
  346loPI    C2 5522   7.221  14.595  11.097  0.0019  0.0985  0.1168
  346loPI    C3 5523   7.593  14.463  11.162 -0.0122  0.0337  0.0657
  346loPI   PO4 5524   7.450  14.512  10.595  0.1498 -0.0156 -0.1177
  346loPI   GL1 5525   7.564  14.468  10.233  0.1947 -0.2760 -0.1143
  346loPI   GL2 5526   7.486  14.805  10.100  0.1227 -0.0279  0.0796
  346loPI   C1A 5527   7.395  14.295   9.868 -0.1518 -0.2125 -0.3872
  346loPI   C2A 5528   7.281  14.301   9.426 -0.2764 -0.0405  0.0295
  346loPI   C3A 5529   7.328  14.363   9.060  0.1172  0.1060 -0.1054
  346loPI   C4A 5530   7.349  14.292   8.656  0.0100  0.0293  0.1194
  346loPI   C5A 5531   7.320  14.323   8.285  0.1499 -0.0258 -0.1026
  346loPI   C6A 5532   7.495  14.492   7.987 -0.4145  0.2427  0.2125
  346loPI   C1B 5533   7.506  14.770   9.658  0.1900 -0.0452  0.2094
  346loPI   C2B 5534   7.507  14.837   9.284 -0.2847  0.0851 -0.0832
  346loPI   C3B 5535   7.497  14.815   8.876 -0.0500 -0.2546 -0.2793
  346loPI   C4B 5536   7.481  14.806   8.435 -0.0806 -0.0746 -0.3715
  347loPI    C1 5537  15.866   8.108  10.813  0.1738 -0.3057 -0.0761
  347loPI    C2 5538  15.893   7.788  11.053 -0.0189 -0.0329  0.3211
  347loPI    C3 5539  16.104   8.118  11.134 -0.1908  0.1111  0.1935
  347loPI   PO4 5540  15.899   8.119  10.593  0.0644 -0.0356 -0.1067
  347loPI   GL1 5541  15.740   8.141  10.209  0.1014 -0.0729 -0.1520
  347loPI   GL2 5542  15.800   8.499  10.102  0.0651  0.1935 -0.1948
  347loPI   C1A 5543  15.763   7.852   9.942 -0.0785  0.2135  0.3191
  347loPI   C2A 5544  15.534   7.534   9.671 -0.1833  0.0051  0.2659
  347loPI   C3A 5545  15.412   7.677   9.178 -0.1128  0.5045 -0.2898
  347loPI   C4A 5546  15.293   7.667   8.745  0.1424  0.0746  0.2750
  347loPI   C5A 5547  15.230   7.739   8.306  0.0438 -0.0141  0.0939
  347loPI   C6A 5548  15.046   7.460   7.942  0.0322  0.0331 -0.2337
  347loPI   C1B 5549  15.757   8.312   9.736  0.0654  0.1584 -0.2890
  347loPI   C2B 5550  15.693   7.977   9.446  0.2843  0.0769 -0.3021
  347loPI   C3B 5551  15.556   8.122   9.094  0.4051 -0.1166 -0.2991
  347loPI   C4B 5552  15.479   8.132   8.714 -0.1433 -0.0948 -0.0288
  348loPI    C1 5553  13.308  17.590  10.438 -0.1675 -0.0927  0.0909
  348loPI    C2 5554  12.956  17.723  10.574 -0.1312  0.1774 -0.0708
  348loPI    C3 5555  13.287  17.942  10.627  0.0164 -0.0797  0.0890
  348loPI   PO4 5556  13.259  17.307  10.516  0.1009  0.4332  0.0755
  348loPI   GL1 5557  13.291  17.003  10.332  0.2921 -0.2299 -0.1000
  348loPI   GL2 5558  13.121  16.788  10.457  0.1165 -0.1820  0.1520
  348loPI   C1A 5559  13.327  16.938   9.938  0.2093  0.0672 -0.0225
  348loPI   C2A 5560  13.311  16.879   9.496 -0.3033 -0.3730 -0.1456
  348loPI   C3A 5561  13.340  16.828   9.022 -0.1248 -0.1946 -0.0367
  348loPI   C4A 5562  13.321  16.858   8.624  0.2221  0.0558 -0.2645
  348loPI   C5A 5563  13.173  16.744   8.260 -0.0494  0.1911 -0.1058
  348loPI   C6A 5564  12.966  16.451   8.298 -0.1567 -0.2198  0.1178
  348loPI   C1B 5565  12.847  16.856  10.050 -0.0716 -0.0605 -0.0639
  348loPI   C2B 5566  12.828  16.854   9.612 -0.0208  0.3825 -0.0387
  348loPI   C3B 5567  12.894  16.752   9.152 -0.2802  0.1865  0.3790
  348loPI   C4B 5568  12.783  16.776   8.707  0.0671  0.3408 -0.1598
  349loPI    C1 5569  12.323  14.315  11.164 -0.0914 -0.0053 -0.0378
  349loPI    C2 5570  12.638  14.333  11.410 -0.2569 -0.0605  0.1818
  349loPI    C3 5571  12.457  13.983  11.343 -0.1330 -0.0691 -0.1245
  349loPI   PO4 5572  12.329  14.540  10.940 -0.0503  0.0245 -0.0288
  349loPI   GL1 5573  12.205  14.735  10.525 -0.1952 -0.1461 -0.2006
  349loPI   GL2 5574  12.517  14.684  10.502  0.1938 -0.0499  0.0363
  349loPI   C1A 5575  12.035  14.835  10.135 -0.0610  0.0598 -0.0058
  349loPI   C2A 5576  12.001  14.846   9.650  0.0058  0.1168 -0.0957
  349loPI   C3A 5577  11.981  14.963   9.286  0.1434 -0.0871  0.1318
  349loPI   C4A 5578  11.920  14.790   8.855 -0.1675  0.0540  0.0557
  349loPI   C5A 5579  11.769  14.965   8.423 -0.0414  0.0994  0.0639
  349loPI   C6A 5580  11.568  15.128   8.029  0.0298 -0.0598 -0.0340
  349loPI   C1B 5581  12.368  14.433  10.203  0.2737  0.1776  0.0565
  349loPI   C2B 5582  12.395  14.482   9.689  0.2036 -0.2723 -0.2193
  349loPI   C3B 5583  12.314  14.552   9.205  0.1365 -0.3481 -0.1682
  349loPI   C4B 5584  12.252  14.448   8.830 -0.0201 -0.1494  0.0085
  350loPI    C1 5585  16.286  17.903  10.815  0.0643 -0.1669  0.1651
  350loPI    C2 5586  16.323  18.289  10.912 -0.2025 -0.1399  0.1684
  350loPI    C3 5587  16.560  18.016  11.083  0.0384  0.0298  0.1105
  350loPI   PO4 5588  16.313  17.961  10.496 -0.1560 -0.0270 -0.0820
  350loPI   GL1 5589  16.466  17.711  10.168  0.0969 -0.0301 -0.0257
  350loPI   GL2 5590  16.713  17.785  10.169 -0.0048 -0.1148  0.2465
  350loPI   C1A 5591  16.403  17.548   9.805 -0.0904  0.2810  0.0184
  350loPI   C2A 5592  16.141  17.511   9.449  0.1415 -0.3644 -0.4026
  350loPI   C3A 5593  16.009  17.611   8.995  0.1265  0.0833 -0.1365
  350loPI   C4A 5594  16.044  17.757   8.634 -0.2407  0.2214  0.2815
  350loPI   C5A 5595  16.109  18.187   8.382  0.0141  0.4761 -0.1578
  350loPI   C6A 5596  16.111  18.664   8.310 -0.1261 -0.0922  0.2493
  350loPI   C1B 5597  16.914  17.630   9.724  0.3530 -0.0739 -0.2009
  350loPI   C2B 5598  16.701  17.452   9.418 -0.0861  0.3291  0.2134
  350loPI   C3B 5599  16.560  17.198   9.064  0.0636  0.0510 -0.0939
  350loPI   C4B 5600  16.373  17.190   8.686  0.1363 -0.2560 -0.2533
  351loPI    C1 5601   2.734   3.780  11.135  0.3887  0.1580 -0.0488
  351loPI    C2 5602   2.575   4.025  11.408 -0.1780 -0.1674 -0.0712
  351loPI    C3 5603   2.803   3.717  11.524 -0.0428 -0.0411  0.0016
  351loPI   PO4 5604   2.860   3.906  10.997 -0.2142  0.0885  0.2067
  351loPI   GL1 5605   2.980   3.755  10.596  0.1393 -0.1328 -0.2398
  351loPI   GL2 5606   3.127   4.055  10.559 -0.1524  0.0403  0.3827
  351loPI   C1A 5607   3.000   3.659  10.118 -0.0288 -0.3684 -0.2553
  351loPI   C2A 5608   3.153   3.544   9.756 -0.0271  0.2439 -0.0628
  351loPI   C3A 5609   3.242   3.561   9.334 -0.2611 -0.0575  0.0433
  351loPI   C4A 5610   3.306   3.704   8.900  0.1169 -0.0742 -0.0471
  351loPI   C5A 5611   3.400   3.614   8.496  0.3220  0.2472  0.1317
  351loPI   C6A 5612   3.702   3.887   8.247  0.0056  0.3860  0.0120
  351loPI   C1B 5613   3.297   4.030  10.138 -0.1923 -0.0363  0.0893
  351loPI   C2B 5614   3.422   4.100   9.664 -0.0670 -0.1286  0.3294
  351loPI   C3B 5615   3.497   4.044   9.239  0.0555  0.0485 -0.1085
  351loPI   C4B 5616   3.539   4.117   8.757 -0.2169 -0.1419 -0.0587
  352loPI    C1 5617   3.231  15.531  10.656 -0.0733  0.0855  0.0282
  352loPI    C2 5618   3.294  15.451  11.043 -0.0291  0.2076  0.0468
  352loPI    C3 5619   2.980  15.673  10.934  0.1017  0.3894  0.0355
  352loPI   PO4 5620   3.246  15.262  10.540  0.0335  0.0835 -0.3457
  352loPI   GL1 5621   3.204  15.166  10.110  0.2499  0.0518 -0.1751
  352loPI   GL2 5622   3.087  14.889   9.961 -0.2113  0.3870  0.1326
  352loPI   C1A 5623   3.514  15.178   9.861 -0.0030  0.2339 -0.0597
  352loPI   C2A 5624   3.738  15.366   9.419  0.0076 -0.0167 -0.1180
  352loPI   C3A 5625   3.882  15.428   8.945 -0.0184  0.0016 -0.0662
  352loPI   C4A 5626   3.856  15.380   8.495  0.0410 -0.1014 -0.2231
  352loPI   C5A 5627   3.892  15.645   8.127 -0.1329  0.0186 -0.1401
  352loPI   C6A 5628   4.124  15.863   7.774 -0.2152 -0.1124 -0.1419
  352loPI   C1B 5629   3.093  14.870   9.390  0.2286 -0.1202 -0.2836
  352loPI   C2B 5630   3.279  15.132   9.169  0.0532  0.0761 -0.3294
  352loPI   C3B 5631   3.536  15.111   8.817 -0.2390  0.2394  0.0962
  352loPI   C4B 5632   3.747  14.873   8.523 -0.2245  0.1095  0.0449
  353loPI    C1 5633   6.398   0.441  10.705  0.0481  0.0853 -0.1318
  353loPI    C2 5634   6.236   0.222  10.998  0.2995 -0.1018 -0.1292
  353loPI    C3 5635   6.254   0.621  11.033 -0.2373 -0.0664 -0.1709
  353loPI   PO4 5636   6.606   0.201  10.641  0.1108 -0.0453 -0.3578
  353loPI   GL1 5637   6.741   0.057  10.226  0.2347  0.0920  0.1946
  353loPI   GL2 5638   6.689   0.371  10.180 -0.0029 -0.2930  0.1825
  353loPI   C1A 5639   6.475  -0.108   9.970 -0.0869  0.0007 -0.1092
  353loPI   C2A 5640   6.448  -0.163   9.668  0.1000 -0.0529  0.3503
  353loPI   C3A 5641   6.473  -0.200   9.224 -0.2037 -0.0961  0.2815
  353loPI   C4A 5642   6.579  -0.087   8.744  0.1171  0.1494  0.1308
  353loPI   C5A 5643   6.770  -0.152   8.419 -0.2851  0.1671 -0.1534
  353loPI   C6A 5644   6.956  -0.491   8.089  0.0149 -0.0206  0.1014
  353loPI   C1B 5645   6.675   0.271   9.762 -0.0500 -0.3074  0.0666
  353loPI   C2B 5646   6.609   0.294   9.322  0.1845  0.2077  0.2804
  353loPI   C3B 5647   6.760   0.371   8.960  0.2270  0.0718  0.0238
  353loPI   C4B 5648   6.738   0.384   8.502 -0.0679  0.0397 -0.1552
  354loPI    C1 5649   4.171   7.942  11.417 -0.1348 -0.1428 -0.0195
  354loPI    C2 5650   4.413   8.259  11.437 -0.1744 -0.1180  0.0704
  354loPI    C3 5651   4.394   8.002  11.743 -0.1208 -0.2232 -0.0140
  354loPI   PO4 5652   4.281   7.915  11.098  0.0209  0.1334 -0.0506
  354loPI   GL1 5653   4.252   7.978  10.725 -0.1193 -0.0352  0.1069
  354loPI   GL2 5654   3.947   7.713  10.667 -0.0442 -0.0509 -0.0249
  354loPI   C1A 5655   4.448   8.148  10.354  0.1179 -0.0515 -0.1651
  354loPI   C2A 5656   4.443   8.189   9.969 -0.0200 -0.1491  0.0775
  354loPI   C3A 5657   4.409   8.364   9.673  0.2264 -0.2216  0.0817
  354loPI   C4A 5658   4.675   8.683   9.333  0.0733 -0.3043  0.2432
  354loPI   C5A 5659   5.228   8.716   9.264 -0.2190 -0.1943 -0.1739
  354loPI   C6A 5660   5.614   8.760   9.318 -0.2233  0.0760 -0.0416
  354loPI   C1B 5661   4.170   7.752  10.230 -0.2609  0.1462 -0.1121
  354loPI   C2B 5662   4.166   7.666   9.741 -0.0541  0.1041 -0.1184
  354loPI   C3B 5663   4.236   7.811   9.354 -0.0906 -0.0245  0.3460
  354loPI   C4B 5664   4.397   8.122   9.047 -0.2009 -0.0516 -0.2098
  355loPI    C1 5665   1.189  12.173  10.682 -0.0753 -0.1998 -0.0444
  355loPI    C2 5666   0.910  12.254  10.957  0.2943  0.1898  0.2279
  355loPI    C3 5667   1.283  12.165  11.070  0.3267 -0.1675 -0.1368
  355loPI   PO4 5668   1.164  12.384  10.498 -0.0725 -0.1238  0.1112
  355loPI   GL1 5669   0.969  12.548  10.073 -0.0750 -0.1411 -0.0233
  355loPI   GL2 5670   1.177  12.440   9.952  0.2794 -0.0083  0.3035
  355loPI   C1A 5671   0.775  12.475   9.558 -0.1027  0.1403  0.0260
  355loPI   C2A 5672   0.446  12.550   9.319  0.2500  0.0884 -0.4578
  355loPI   C3A 5673   0.059  12.881   9.290  0.1486  0.0681 -0.3910
  355loPI   C4A 5674  -0.159  13.063   8.934 -0.1134 -0.0937  0.0343
  355loPI   C5A 5675  -0.270  12.900   8.494 -0.1099 -0.2704 -0.1171
  355loPI   C6A 5676  -0.159  12.745   8.054 -0.0677 -0.1961 -0.0472
  355loPI   C1B 5677   1.266  12.547   9.474 -0.0832  0.2225 -0.0894
  355loPI   C2B 5678   1.461  12.470   9.049  0.1151 -0.1554 -0.1274
  355loPI   C3B 5679   1.378  12.540   8.632  0.2049  0.1347  0.3270
  355loPI   C4B 5680   1.779  12.668   8.383 -0.1900  0.0183 -0.0069
  356loPI    C1 5681   1.600   8.487  11.136  0.0780 -0.2587 -0.0676
  356loPI    C2 5682   1.641   8.865  11.260  0.0816 -0.2491 -0.0985
  356loPI    C3 5683   1.486   8.590  11.505 -0.0872 -0.1893 -0.1374
  356loPI   PO4 5684   1.487   8.485  10.888  0.1903 -0.2500  0.0090
  356loPI   GL1 5685   1.537   8.386  10.463  0.1902 -0.0404 -0.1291
  356loPI   GL2 5686   1.259   8.222  10.302  0.0620  0.1404  0.0462
  356loPI   C1A 5687   1.517   8.452   9.940 -0.1172  0.3174 -0.1367
  356loPI   C2A 5688   1.586   8.396   9.528 -0.3770 -0.1681  0.2687
  356loPI   C3A 5689   1.326   8.456   9.243  0.3517  0.2776 -0.2427
  356loPI   C4A 5690   1.152   8.469   8.738  0.1617 -0.0685  0.1342
  356loPI   C5A 5691   1.195   8.421   8.265 -0.1337 -0.2423  0.0364
  356loPI   C6A 5692   0.986   8.720   7.958  0.1003  0.0006  0.1217
  356loPI   C1B 5693   1.206   8.135   9.815 -0.1008 -0.0975  0.4267
  356loPI   C2B 5694   1.298   7.980   9.328  0.0560  0.1109  0.0900
  356loPI   C3B 5695   1.427   8.109   8.926 -0.1608 -0.0242 -0.0902
  356loPI   C4B 5696   1.410   7.812   8.601  0.1854 -0.0020 -0.3768
  357loPI    C1 5697   9.636  11.135  11.174  0.1199  0.1013  0.0189
  357loPI    C2 5698   9.778  10.761  11.178  0.1915  0.1291  0.1172
  357loPI    C3 5699   9.489  10.868  11.433 -0.0399  0.0605 -0.1121
  357loPI   PO4 5700   9.604  11.153  10.875 -0.0921 -0.4673 -0.1991
  357loPI   GL1 5701   9.140  11.148  10.775 -0.1587  0.2209  0.1871
  357loPI   GL2 5702   9.121  11.406  10.596  0.0360  0.1503  0.1601
  357loPI   C1A 5703   9.190  11.059  10.262  0.2117 -0.2240  0.1035
  357loPI   C2A 5704   9.237  10.986   9.837 -0.1890  0.1892 -0.1002
  357loPI   C3A 5705   9.268  11.023   9.454 -0.0532 -0.0807  0.0521
  357loPI   C4A 5706   9.251  11.095   9.157  0.1508 -0.1395  0.0085
  357loPI   C5A 5707   9.180  11.081   8.740 -0.1857 -0.0867 -0.0216
  357loPI   C6A 5708   9.212  11.480   8.481 -0.0499 -0.0394  0.0364
  357loPI   C1B 5709   8.849  11.370  10.222 -0.0034 -0.0699  0.2441
  357loPI   C2B 5710   8.860  11.318   9.791 -0.0701 -0.1179  0.1018
  357loPI   C3B 5711   8.949  11.450   9.362 -0.0420 -0.1450 -0.3549
  357loPI   C4B 5712   8.943  11.483   8.946 -0.0325  0.1895  0.0983
  358loPI    C1 5713  14.286   1.506  10.731  0.2174 -0.0830 -0.1454
  358loPI    C2 5714  14.503   1.203  10.877 -0.0333 -0.1453  0.1065
  358loPI    C3 5715  14.169   1.319  11.065 -0.0264  0.1839 -0.0774
  358loPI   PO4 5716  14.443   1.495  10.429  0.2964 -0.0919  0.3169
  358loPI   GL1 5717  14.525   1.421   9.987 -0.0926  0.0681  0.3371
  358loPI   GL2 5718  14.827   1.395   9.846  0.1895  0.2959  0.0745
  358loPI   C1A 5719  14.544   1.822   9.690 -0.1510 -0.1796  0.1334
  358loPI   C2A 5720  14.274   2.040   9.563 -0.0801 -0.0379 -0.1837
  358loPI   C3A 5721  14.072   2.258   9.150 -0.0031 -0.0503 -0.0941
  358loPI   C4A 5722  14.004   1.941   8.870  0.2595  0.0315  0.1217
  358loPI   C5A 5723  14.038   2.001   8.474 -0.0490 -0.0148  0.4273
  358loPI   C6A 5724  14.466   2.095   8.266  0.2218 -0.2219 -0.1044
  358loPI   C1B 5725  14.847   1.520   9.350  0.4109  0.0074  0.0289
  358loPI   C2B 5726  15.085   1.870   9.007 -0.1333  0.1621 -0.0803
  358loPI   C3B 5727  15.512   1.942   8.957  0.3581 -0.0905 -0.0290
  358loPI   C4B 5728  15.892   2.048   8.942  0.3465 -0.0014  0.0296
  359loPI    C1 5729   1.561   1.644  11.112  0.1017 -0.0424  0.0683
  359loPI    C2 5730   1.414   1.985  10.964 -0.0204 -0.1547 -0.0717
  359loPI    C3 5731   1.401   1.916  11.357 -0.0378 -0.0184 -0.0481
  359loPI   PO4 5732   1.880   1.690  10.882  0.1974 -0.0407  0.1000
  359loPI   GL1 5733   1.617   1.770  10.525  0.0209  0.1535  0.0971
  359loPI   GL2 5734   1.382   2.002  10.337 -0.2131 -0.1291  0.0765
  359loPI   C1A 5735   1.829   1.645  10.145 -0.2133  0.0065 -0.2238
  359loPI   C2A 5736   2.044   1.750   9.906  0.5517  0.1792  0.0469
  359loPI   C3A 5737   2.326   1.815   9.530  0.2324  0.1442  0.3738
  359loPI   C4A 5738   2.418   1.724   9.114 -0.1351 -0.2629  0.0575
  359loPI   C5A 5739   2.298   1.896   8.755  0.1898 -0.1036  0.3740
  359loPI   C6A 5740   2.068   2.144   8.569 -0.2038 -0.0869  0.0470
  359loPI   C1B 5741   1.480   1.903   9.918 -0.1851  0.2207  0.0973
  359loPI   C2B 5742   1.495   2.099   9.475  0.1448  0.2034  0.0851
  359loPI   C3B 5743   1.573   2.165   9.065 -0.2767  0.1771 -0.2022
  359loPI   C4B 5744   1.598   2.096   8.603  0.0235  0.0008 -0.1527
  360loPI    C1 5745  10.463   9.002  10.746 -0.3569  0.1226 -0.1422
  360loPI    C2 5746  10.484   9.385  10.634  0.0953  0.1844  0.1295
  360loPI    C3 5747  10.462   9.291  11.022  0.0796 -0.0682  0.0690
  360loPI   PO4 5748  10.634   8.911  10.595 -0.2394  0.1592 -0.1654
  360loPI   GL1 5749  10.628   8.671  10.260 -0.2181 -0.3325  0.0968
  360loPI   GL2 5750  10.460   8.431  10.327 -0.0230 -0.2850 -0.1539
  360loPI   C1A 5751  10.912   8.796   9.963 -0.3523 -0.1890 -0.0608
  360loPI   C2A 5752  10.968   8.882   9.581 -0.0171  0.1837 -0.3463
  360loPI   C3A 5753  11.053   8.892   9.178 -0.0302 -0.0112  0.3412
  360loPI   C4A 5754  11.049   8.838   8.781  0.1308  0.2366  0.1181
  360loPI   C5A 5755  10.920   8.759   8.478  0.3173  0.3563 -0.2392
  360loPI   C6A 5756  10.546   8.519   8.316  0.0117  0.0379 -0.0680
  360loPI   C1B 5757  10.265   8.460   9.937  0.1706  0.0865  0.1268
  360loPI   C2B 5758  10.019   8.519   9.527 -0.2135  0.0124 -0.2880
  360loPI   C3B 5759  10.062   8.452   9.045  0.2246  0.0841  0.0992
  360loPI   C4B 5760  10.008   8.399   8.537  0.1126  0.0489  0.0805
  361loPI    C1 5761   6.343  12.711  11.016 -0.0409 -0.2738 -0.2024
  361loPI    C2 5762   6.239  12.530  11.357  0.3984  0.0023  0.0893
  361loPI    C3 5763   5.995  12.516  11.040  0.0133 -0.3158  0.3888
  361loPI   PO4 5764   6.544  12.690  10.884 -0.0824  0.1576  0.0264
  361loPI   GL1 5765   6.794  12.625  10.542 -0.1141 -0.1497 -0.2096
  361loPI   GL2 5766   6.691  12.895  10.417 -0.0494 -0.0189 -0.0312
  361loPI   C1A 5767   6.977  12.540  10.127 -0.0360 -0.1397 -0.0983
  361loPI   C2A 5768   6.968  12.441   9.804 -0.6754  0.2413  0.2681
  361loPI   C3A 5769   6.987  12.538   9.419 -0.2800  0.0765  0.1138
  361loPI   C4A 5770   6.972  12.569   8.950  0.1062 -0.0395  0.0657
  361loPI   C5A 5771   6.925  12.465   8.539 -0.2253 -0.1901 -0.0019
  361loPI   C6A 5772   6.644  12.255   8.218  0.1591 -0.2367 -0.2981
  361loPI   C1B 5773   6.586  12.997  10.028 -0.0435  0.1422 -0.3837
  361loPI   C2B 5774   6.605  12.972   9.591 -0.2081 -0.1189  0.3628
  361loPI   C3B 5775   6.753  12.988   9.245 -0.0962 -0.0436  0.3130
  361loPI   C4B 5776   6.653  12.955   8.765  0.4199 -0.1448 -0.0308
  362loPI    C1 5777  10.251  16.116  11.072  0.1841 -0.0610 -0.0749
  362loPI    C2 5778  10.299  15.737  11.193  0.1420 -0.0685 -0.0817
  362loPI    C3 5779  10.596  16.001  11.239  0.0871 -0.0437  0.1405
  362loPI   PO4 5780  10.111  16.121  10.828  0.0684  0.0248 -0.0961
  362loPI   GL1 5781  10.401  16.047  10.450  0.1259  0.2240 -0.3398
  362loPI   GL2 5782  10.100  15.804  10.288  0.1828 -0.2328  0.2668
  362loPI   C1A 5783  10.565  15.973  10.137 -0.1037 -0.1042 -0.1048
  362loPI   C2A 5784  10.615  16.097   9.703 -0.0631  0.0115  0.0218
  362loPI   C3A 5785  10.600  16.085   9.255  0.1919 -0.3187 -0.2741
  362loPI   C4A 5786  10.541  16.022   8.808  0.0352  0.0230  0.0378
  362loPI   C5A 5787  10.479  16.021   8.326  0.1951 -0.2145 -0.2599
  362loPI   C6A 5788  10.408  15.897   7.866 -0.0020 -0.0890  0.1770
  362loPI   C1B 5789   9.976  15.986   9.877 -0.3456  0.0386  0.0155
  362loPI   C2B 5790  10.138  16.034   9.454 -0.1058 -0.0533  0.0286
  362loPI   C3B 5791  10.035  15.993   9.013 -0.1556  0.0741  0.2746
  362loPI   C4B 5792  10.007  16.110   8.576  0.0463 -0.2361 -0.1334
  363loPI    C1 5793  14.260   3.894  11.056 -0.3806 -0.1775 -0.0879
  363loPI    C2 5794  13.936   3.989  11.269 -0.2558  0.2015 -0.0592
  363loPI    C3 5795  14.300   4.033  11.428 -0.1842 -0.1904 -0.1028
  363loPI   PO4 5796  14.227   3.991  10.888 -0.0645  0.0919 -0.3887
  363loPI   GL1 5797  14.110   3.813  10.535 -0.0809  0.0950 -0.2129
  363loPI   GL2 5798  13.780   3.669  10.531  0.1985  0.0572 -0.0186
  363loPI   C1A 5799  14.249   3.853  10.118 -0.3230  0.0815 -0.2187
  363loPI   C2A 5800  14.161   4.140   9.658 -0.1554 -0.0553  0.1092
  363loPI   C3A 5801  13.961   4.320   9.271  0.0001 -0.1418 -0.0536
  363loPI   C4A 5802  14.005   4.339   8.813 -0.1709 -0.1138  0.0400
  363loPI   C5A 5803  13.973   4.246   8.349  0.0675  0.2272 -0.2373
  363loPI   C6A 5804  14.031   3.783   8.294 -0.0173  0.0980 -0.1135
  363loPI   C1B 5805  13.842   3.511  10.179  0.1008 -0.1949 -0.0377
  363loPI   C2B 5806  13.745   3.359   9.837  0.0412 -0.1919  0.4540
  363loPI   C3B 5807  13.555   3.449   9.456  0.0120  0.1762 -0.2611
  363loPI   C4B 5808  13.473   3.375   9.043  0.4351  0.1091 -0.0236
  364loPI    C1 5809   6.305  14.552  10.933 -0.2157 -0.0113 -0.1616
  364loPI    C2 5810   6.065  14.681  11.226 -0.1660 -0.1726 -0.0483
  364loPI    C3 5811   6.342  14.403  11.303  0.1389  0.0969 -0.1491
  364loPI   PO4 5812   6.138  14.532  10.694 -0.0529  0.0105  0.0233
  364loPI   GL1 5813   6.258  14.322  10.346 -0.1685  0.2210 -0.0403
  364loPI   GL2 5814   6.186  14.648  10.156 -0.2681 -0.1911  0.1052
  364loPI   C1A 5815   6.222  14.285   9.837 -0.0722  0.1952 -0.2309
  364loPI   C2A 5816   6.199  14.219   9.426 -0.1692 -0.1196  0.0814
  364loPI   C3A 5817   6.212  14.254   9.071 -0.1882 -0.0383 -0.2495
  364loPI   C4A 5818   6.353  14.288   8.727  0.3332  0.2001 -0.1463
  364loPI   C5A 5819   6.337  14.138   8.339  0.0734 -0.0344  0.0262
  364loPI   C6A 5820   6.167  14.401   8.066 -0.0851 -0.2151 -0.2207
  364loPI   C1B 5821   5.925  14.703   9.820  0.3151 -0.1306 -0.0558
  364loPI   C2B 5822   5.976  14.669   9.389 -0.1769  0.3817 -0.0002
  364loPI   C3B 5823   6.019  14.719   8.939 -0.2106  0.1526  0.0105
  364loPI   C4B 5824   6.002  14.700   8.477  0.4138  0.0087 -0.2265
  365loPI    C1 5825  14.092   5.237  10.817  0.0035  0.0904  0.0257
  365loPI    C2 5826  14.405   5.253  11.065  0.0710 -0.1287 -0.0428
  365loPI    C3 5827  14.057   5.100  11.191  0.0619 -0.1051 -0.0391
  365loPI   PO4 5828  14.184   5.417  10.583  0.0218  0.0434  0.0219
  365loPI   GL1 5829  14.129   5.532  10.126  0.1265  0.1740  0.0647
  365loPI   GL2 5830  13.888   5.653  10.129  0.0897  0.0503  0.2871
  365loPI   C1A 5831  14.071   5.575   9.686  0.3849 -0.0038 -0.3621
  365loPI   C2A 5832  14.029   5.648   9.292 -0.0536  0.2685 -0.2594
  365loPI   C3A 5833  13.963   5.705   8.898  0.1582  0.1412  0.0008
  365loPI   C4A 5834  14.082   5.618   8.487  0.3447 -0.4384 -0.1339
  365loPI   C5A 5835  14.189   5.558   8.074  0.2438 -0.0632 -0.0302
  365loPI   C6A 5836  14.390   5.724   7.780 -0.2386 -0.1743 -0.0326
  365loPI   C1B 5837  13.644   5.515   9.901  0.1141  0.0345 -0.3858
  365loPI   C2B 5838  13.494   5.582   9.498 -0.0575 -0.0059  0.2750
  365loPI   C3B 5839  13.526   5.624   9.092  0.0407 -0.2040  0.2517
  365loPI   C4B 5840  13.514   5.706   8.633 -0.2196 -0.1822 -0.0720
  366loPI    C1 5841   5.593   4.725  11.469  0.0534  0.1782 -0.1371
  366loPI    C2 5842   5.212   4.661  11.364  0.0434 -0.0035  0.0063
  366loPI    C3 5843   5.329   4.601  11.742  0.2006  0.1155 -0.0222
  366loPI   PO4 5844   5.720   4.627  11.228  0.0981  0.1878 -0.3098
  366loPI   GL1 5845   5.862   4.661  10.776  0.1231 -0.1662 -0.0910
  366loPI   GL2 5846   5.841   4.970  10.649 -0.0336  0.2071  0.1900
  366loPI   C1A 5847   5.957   4.554  10.409 -0.3275 -0.0193 -0.2660
  366loPI   C2A 5848   6.123   4.461  10.014  0.0417 -0.1430 -0.0978
  366loPI   C3A 5849   6.074   4.448   9.553 -0.1109 -0.0833  0.0411
  366loPI   C4A 5850   6.045   4.333   9.173 -0.0683  0.1385  0.2339
  366loPI   C5A 5851   5.984   4.391   8.853  0.0235 -0.0617 -0.2325
  366loPI   C6A 5852   6.172   4.473   8.523 -0.0270  0.0380  0.2946
  366loPI   C1B 5853   5.901   5.279  10.316 -0.1182 -0.3805  0.1874
  366loPI   C2B 5854   6.035   5.315   9.887 -0.1265 -0.0247 -0.0762
  366loPI   C3B 5855   5.983   5.301   9.440  0.0098  0.1267 -0.0256
  366loPI   C4B 5856   6.068   5.289   9.039 -0.1279  0.1931  0.0896
  367loPI    C1 5857  11.026   8.937  10.899  0.0362 -0.1172 -0.1482
  367loPI    C2 5858  11.097   8.926  10.505 -0.1481 -0.1567 -0.1814
  367loPI    C3 5859  11.359   8.764  10.760  0.1634  0.2104 -0.2597
  367loPI   PO4 5860  10.997   9.180  10.924  0.0594 -0.0438  0.0288
  367loPI   GL1 5861  10.929   9.397  10.480  0.0724  0.3638 -0.2647
  367loPI   GL2 5862  10.874   9.745  10.344 -0.1593  0.2499  0.1309
  367loPI   C1A 5863  10.865   9.286  10.051 -0.3118  0.1143 -0.1214
  367loPI   C2A 5864  11.047   9.376   9.671 -0.1301  0.0532 -0.1982
  367loPI   C3A 5865  11.045   9.378   9.258  0.2179  0.0510  0.0994
  367loPI   C4A 5866  11.012   9.394   8.899  0.1564 -0.0101 -0.1749
  367loPI   C5A 5867  11.061   9.229   8.460 -0.1080  0.1597  0.1449
  367loPI   C6A 5868  10.797   9.255   8.178 -0.3984 -0.0587 -0.0125
  367loPI   C1B 5869  10.882   9.845   9.929 -0.0566  0.2218  0.1543
  367loPI   C2B 5870  10.774   9.830   9.510 -0.1790 -0.0706 -0.1375
  367loPI   C3B 5871  10.641   9.821   9.036  0.0753 -0.0173 -0.0860
  367loPI   C4B 5872  10.488  10.007   8.633  0.0114 -0.1257  0.0851
  368loPI    C1 5873   5.147  13.582  11.116  0.1829 -0.1450 -0.0266
  368loPI    C2 5874   5.245  13.577  11.504  0.1520 -0.1236 -0.0183
  368loPI    C3 5875   4.897  13.735  11.388  0.1894 -0.0723 -0.0614
  368loPI   PO4 5876   5.383  13.425  10.974  0.0527 -0.2363 -0.0572
  368loPI   GL1 5877   5.542  13.421  10.613 -0.1179  0.1947 -0.0732
  368loPI   GL2 5878   5.896  13.347  10.455 -0.0772 -0.0903 -0.2606
  368loPI   C1A 5879   5.468  13.627  10.182 -0.0568 -0.0080 -0.0712
  368loPI   C2A 5880   5.506  13.767   9.721 -0.4588  0.1154 -0.0122
  368loPI   C3A 5881   5.501  13.799   9.282  0.0970  0.0328  0.0668
  368loPI   C4A 5882   5.574  13.749   8.888  0.2177 -0.0469 -0.4005
  368loPI   C5A 5883   5.735  13.791   8.488 -0.2600  0.0715 -0.3473
  368loPI   C6A 5884   5.819  14.100   8.261 -0.1882 -0.2815 -0.2090
  368loPI   C1B 5885   5.857  13.358   9.981  0.0260  0.1207 -0.1481
  368loPI   C2B 5886   5.714  13.402   9.485 -0.2028 -0.0388  0.0573
  368loPI   C3B 5887   5.853  13.378   9.129 -0.0410  0.1529 -0.1730
  368loPI   C4B 5888   5.922  13.317   8.663  0.2261  0.0527 -0.2915
  369loPI    C1 5889  16.610  13.706  10.652 -0.0009 -0.1854  0.0230
  369loPI    C2 5890  16.271  13.870  10.786  0.0843  0.1241 -0.1323
  369loPI    C3 5891  16.260  13.606  10.486 -0.0254  0.0826 -0.0922
  369loPI   PO4 5892  16.794  13.932  10.600 -0.0300  0.0805  0.0319
  369loPI   GL1 5893  17.266  13.864  10.374 -0.1605  0.2418 -0.2581
  369loPI   GL2 5894  17.001  14.158  10.230  0.0411  0.1268 -0.0003
  369loPI   C1A 5895  17.064  13.738   9.969 -0.3049  0.3212  0.0908
  369loPI   C2A 5896  16.944  13.738   9.499  0.2025  0.2965  0.0103
  369loPI   C3A 5897  16.918  13.704   9.131  0.2862 -0.0315 -0.2582
  369loPI   C4A 5898  17.044  13.642   8.692  0.0580 -0.4167 -0.3165
  369loPI   C5A 5899  16.926  13.559   8.283  0.3000 -0.2950  0.2244
  369loPI   C6A 5900  16.711  13.373   7.886  0.2374 -0.3450 -0.0737
  369loPI   C1B 5901  16.727  14.132   9.810 -0.0352 -0.0462 -0.1057
  369loPI   C2B 5902  16.507  14.116   9.363 -0.0459 -0.1627 -0.3082
  369loPI   C3B 5903  16.550  14.021   8.919 -0.0070 -0.0394  0.1563
  369loPI   C4B 5904  16.541  13.854   8.501 -0.2257 -0.2539 -0.1061
  370loPI    C1 5905   2.153  13.231  10.955 -0.2456 -0.0693  0.0614
  370loPI    C2 5906   2.285  12.924  11.174  0.1249  0.1092  0.0949
  370loPI    C3 5907   1.973  13.140  11.300 -0.1905 -0.2978  0.0311
  370loPI   PO4 5908   2.039  13.029  10.708 -0.0914 -0.0171 -0.4697
  370loPI   GL1 5909   2.133  12.765  10.418 -0.4173  0.1290 -0.0684
  370loPI   GL2 5910   2.079  12.452  10.441 -0.0459 -0.3539 -0.3065
  370loPI   C1A 5911   2.175  12.631   9.975 -0.1307  0.1709 -0.0290
  370loPI   C2A 5912   2.275  12.786   9.588 -0.0415 -0.2971  0.0769
  370loPI   C3A 5913   2.202  13.112   9.281  0.1892 -0.2557 -0.2201
  370loPI   C4A 5914   2.014  13.380   8.905  0.0583  0.1094  0.2377
  370loPI   C5A 5915   1.777  13.477   8.461  0.1253 -0.0564 -0.3799
  370loPI   C6A 5916   1.572  13.762   8.204 -0.0243 -0.3280  0.0345
  370loPI   C1B 5917   1.987  12.177  10.069 -0.2552 -0.2261  0.0067
  370loPI   C2B 5918   2.152  12.127   9.666  0.0834 -0.1577  0.2057
  370loPI   C3B 5919   2.341  12.373   9.372  0.1597  0.0367  0.0750
  370loPI   C4B 5920   2.547  12.544   9.024 -0.0105 -0.2996  0.4989
  371loPI    C1 5921   2.871   7.937  11.426 -0.1054  0.0347  0.0829
  371loPI    C2 5922   2.912   7.633  11.682 -0.1064 -0.1167 -0.0949
  371loPI    C3 5923   2.750   7.977  11.805  0.1478 -0.0913  0.1795
  371loPI   PO4 5924   2.827   7.856  11.230  0.1512 -0.1239 -0.0228
  371loPI   GL1 5925   2.845   7.867  10.948 -0.0733 -0.0211 -0.1878
  371loPI   GL2 5926   2.734   8.022  10.602  0.1686  0.0710 -0.2018
  371loPI   C1A 5927   3.062   7.704  10.550 -0.0156 -0.3413  0.0793
  371loPI   C2A 5928   3.090   7.763  10.036  0.0970 -0.0678 -0.2722
  371loPI   C3A 5929   3.108   7.763   9.610 -0.4564 -0.3416  0.0150
  371loPI   C4A 5930   3.120   7.573   9.133 -0.2822 -0.1346  0.0874
  371loPI   C5A 5931   3.189   7.584   8.740 -0.1594 -0.0790 -0.2624
  371loPI   C6A 5932   3.195   7.517   8.310  0.1316 -0.3085 -0.0372
  371loPI   C1B 5933   2.695   8.028  10.181 -0.1936  0.1447  0.1401
  371loPI   C2B 5934   2.819   8.225   9.760  0.5027 -0.1345 -0.0021
  371loPI   C3B 5935   2.807   8.141   9.281 -0.1146 -0.2226 -0.0647
  371loPI   C4B 5936   2.819   8.088   8.854  0.0221 -0.0988  0.1007
  372loPI    C1 5937  16.016  13.165  11.434  0.0302  0.2458 -0.1727
  372loPI    C2 5938  15.868  13.000  11.767  0.1106 -0.0186 -0.2656
  372loPI    C3 5939  16.031  13.365  11.780  0.0311  0.0101 -0.0347
  372loPI   PO4 5940  15.966  13.072  11.230 -0.1661  0.1112 -0.2722
  372loPI   GL1 5941  16.100  12.901  10.753 -0.2456  0.1757 -0.0414
  372loPI   GL2 5942  15.964  13.177  10.639  0.0493  0.0300 -0.2765
  372loPI   C1A 5943  16.048  12.755  10.307  0.0230 -0.3854  0.1347
  372loPI   C2A 5944  16.098  12.719   9.855 -0.1802 -0.1394 -0.1709
  372loPI   C3A 5945  16.127  12.763   9.451 -0.3181  0.0300  0.1165
  372loPI   C4A 5946  16.110  12.726   8.959  0.0328  0.0970 -0.1992
  372loPI   C5A 5947  15.975  12.566   8.556  0.0097 -0.1035 -0.1184
  372loPI   C6A 5948  15.653  12.437   8.336 -0.0571 -0.3545 -0.0518
  372loPI   C1B 5949  15.809  13.186  10.287  0.1256  0.0194  0.1916
  372loPI   C2B 5950  15.791  13.167   9.842  0.2363 -0.0757 -0.0606
  372loPI   C3B 5951  15.718  13.107   9.382 -0.0070  0.0331  0.1387
  372loPI   C4B 5952  15.693  13.120   8.888 -0.1202 -0.1080  0.1863
  373loPI    C1 5953  10.859   3.189  10.847  0.0383 -0.0892 -0.1387
  373loPI    C2 5954  10.852   3.271  11.238 -0.0230  0.1687 -0.1918
  373loPI    C3 5955  10.840   2.891  11.113 -0.0866  0.0879  0.0536
  373loPI   PO4 5956  10.677   3.347  10.712  0.3907  0.0962 -0.2142
  373loPI   GL1 5957  10.620   3.390  10.257  0.2749  0.1064 -0.0892
  373loPI   GL2 5958  10.458   3.197  10.293  0.1894  0.3328 -0.0731
  373loPI   C1A 5959  10.634   3.442   9.836 -0.2644 -0.3960  0.2286
  373loPI   C2A 5960  10.594   3.416   9.393 -0.1489 -0.0954  0.0468
  373loPI   C3A 5961  10.569   3.593   8.953  0.0069  0.0983 -0.1617
  373loPI   C4A 5962  10.608   3.383   8.525  0.1045  0.0662 -0.0526
  373loPI   C5A 5963  10.663   3.450   8.193 -0.0466 -0.0758 -0.1153
  373loPI   C6A 5964  10.386   3.645   7.976  0.0196 -0.1904  0.1980
  373loPI   C1B 5965  10.435   2.972   9.891 -0.0566 -0.0692 -0.0032
  373loPI   C2B 5966  10.386   2.980   9.410  0.1167  0.2099 -0.3076
  373loPI   C3B 5967  10.461   3.107   8.960  0.0693  0.0322 -0.0744
  373loPI   C4B 5968  10.437   2.927   8.621 -0.0056 -0.2117 -0.0519
  374loPI    C1 5969   8.987   5.879  11.396 -0.4823 -0.1109  0.0941
  374loPI    C2 5970   9.039   5.733  11.765 -0.1080  0.0297  0.1013
  374loPI    C3 5971   9.097   6.123  11.694 -0.2900  0.0243 -0.0846
  374loPI   PO4 5972   9.203   5.788  11.199  0.1717  0.3067  0.0306
  374loPI   GL1 5973   9.341   5.387  10.865  0.2700  0.1421 -0.2015
  374loPI   GL2 5974   9.237   5.654  10.673 -0.1370 -0.0620  0.0362
  374loPI   C1A 5975   9.298   5.179  10.473 -0.2696 -0.2563 -0.1047
  374loPI   C2A 5976   9.364   5.043  10.104  0.2015  0.0022 -0.1200
  374loPI   C3A 5977   9.429   5.109   9.696  0.1814 -0.0658  0.0063
  374loPI   C4A 5978   9.368   5.092   9.249  0.1160 -0.1465  0.1422
  374loPI   C5A 5979   9.451   5.269   8.888 -0.1516 -0.2623  0.2014
  374loPI   C6A 5980   9.409   5.076   8.631  0.0370 -0.1854 -0.2342
  374loPI   C1B 5981   9.154   5.946  10.353 -0.1389  0.0038  0.1202
  374loPI   C2B 5982   9.334   5.984  10.011  0.0933 -0.0430 -0.1472
  374loPI   C3B 5983   9.248   5.980   9.629  0.0789 -0.0906  0.1748
  374loPI   C4B 5984   9.359   6.076   9.218 -0.1837 -0.0752  0.0599
  375loPI    C1 5985  16.537   1.407  10.452 -0.0284 -0.0249 -0.1546
  375loPI    C2 5986  16.216   1.186  10.542  0.0174 -0.0114  0.0479
  375loPI    C3 5987  16.461   1.311  10.833  0.0699  0.1881 -0.0795
  375loPI   PO4 5988  16.517   1.424  10.163 -0.1145  0.2716 -0.2585
  375loPI   GL1 5989  16.417   1.716   9.878 -0.2407 -0.2365  0.2035
  375loPI   GL2 5990  16.193   1.447   9.755  0.0413 -0.0828  0.1675
  375loPI   C1A 5991  16.670   1.652   9.574 -0.0174 -0.1851 -0.1319
  375loPI   C2A 5992  17.018   1.880   9.429 -0.0888  0.0079  0.0200
  375loPI   C3A 5993  17.236   1.862   9.150  0.0330  0.0697 -0.1031
  375loPI   C4A 5994  17.441   1.870   8.753 -0.1509 -0.1096 -0.2561
  375loPI   C5A 5995  17.684   1.667   8.427 -0.0932  0.1294 -0.0014
  375loPI   C6A 5996  18.142   1.795   8.258 -0.1113 -0.1284 -0.0742
  375loPI   C1B 5997  16.388   1.225   9.435  0.1179  0.0591 -0.2097
  375loPI   C2B 5998  16.239   0.804   9.385  0.0869  0.0775  0.2353
  375loPI   C3B 5999  16.399   0.417   9.096  0.1901 -0.0363  0.1679
  375loPI   C4B 6000  16.442   0.215   8.738 -0.0098 -0.0965 -0.1721
  376loPI    C1 6001   4.650   0.374  10.914 -0.1610 -0.0530  0.0663
  376loPI    C2 6002   4.806   0.722  10.795 -0.1413 -0.1626 -0.2354
  376loPI    C3 6003   4.693   0.674  11.175  0.2686  0.0235 -0.0847
  376loPI   PO4 6004   4.711   0.226  10.714  0.2100 -0.1152 -0.1515
  376loPI   GL1 6005   4.478   0.012  10.285  0.0093 -0.2148  0.1655
  376loPI   GL2 6006   4.769  -0.057  10.201  0.1040 -0.2329 -0.1771
  376loPI   C1A 6007   4.482   0.158   9.840  0.3250  0.3249 -0.1953
  376loPI   C2A 6008   4.576   0.083   9.370 -0.0483  0.1077 -0.3516
  376loPI   C3A 6009   4.591   0.248   8.945  0.0870  0.2301  0.0594
  376loPI   C4A 6010   4.733   0.291   8.631 -0.0700  0.0272 -0.0608
  376loPI   C5A 6011   4.505   0.340   8.247  0.2372 -0.3051  0.0320
  376loPI   C6A 6012   4.154   0.500   8.030  0.1582  0.1900 -0.2051
  376loPI   C1B 6013   4.963   0.049   9.762 -0.1382  0.0599 -0.3117
  376loPI   C2B 6014   5.088   0.136   9.408  0.1352  0.1649  0.0999
  376loPI   C3B 6015   5.145   0.203   8.971  0.1172  0.1360 -0.0991
  376loPI   C4B 6016   5.258   0.256   8.623 -0.0392 -0.2073 -0.1465
  377loPI    C1 6017  15.027  12.860  11.464 -0.0401 -0.2335 -0.1320
  377loPI    C2 6018  15.268  12.726  11.754  0.0499 -0.0065 -0.0991
  377loPI    C3 6019  15.146  13.107  11.756 -0.0838 -0.0469 -0.2698
  377loPI   PO4 6020  15.182  12.854  11.175 -0.0206  0.1895 -0.0981
  377loPI   GL1 6021  15.255  12.780  10.768  0.0457 -0.0493 -0.2278
  377loPI   GL2 6022  15.590  12.865  10.516  0.0388  0.1678 -0.2106
  377loPI   C1A 6023  15.118  12.671  10.273  0.2114 -0.1898  0.2766
  377loPI   C2A 6024  15.094  12.553   9.809 -0.1418  0.0888 -0.0812
  377loPI   C3A 6025  15.085  12.546   9.416 -0.4566  0.0761 -0.2604
  377loPI   C4A 6026  14.940  12.561   9.026  0.0213 -0.2201  0.0011
  377loPI   C5A 6027  14.995  12.494   8.517 -0.0639  0.1565  0.2837
  377loPI   C6A 6028  15.133  12.458   8.064  0.0207  0.2572  0.2241
  377loPI   C1B 6029  15.623  12.707  10.098 -0.1849  0.0954 -0.0774
  377loPI   C2B 6030  15.583  12.642   9.723 -0.2625 -0.1790 -0.1225
  377loPI   C3B 6031  15.566  12.620   9.257  0.1425 -0.2166  0.2096
  377loPI   C4B 6032  15.533  12.661   8.813  0.0048  0.0063 -0.0647
  378loPI    C1 6033   4.776   1.756  11.054  0.1162 -0.0203  0.0193
  378loPI    C2 6034   4.926   1.622  11.400  0.1510 -0.1324 -0.0386
  378loPI    C3 6035   4.530   1.628  11.342  0.1388  0.0155  0.0546
  378loPI   PO4 6036   4.863   1.630  10.881 -0.1644  0.0915  0.0468
  378loPI   GL1 6037   4.633   1.360  10.577 -0.0170  0.0836  0.2619
  378loPI   GL2 6038   4.657   1.022  10.421 -0.0308  0.1394  0.0111
  378loPI   C1A 6039   4.579   1.429  10.142  0.1173  0.0354 -0.0520
  378loPI   C2A 6040   4.669   1.582   9.745 -0.1109  0.0082  0.4417
  378loPI   C3A 6041   4.739   1.597   9.349  0.1557 -0.1691 -0.0320
  378loPI   C4A 6042   4.790   1.544   8.928 -0.3287  0.1303 -0.1753
  378loPI   C5A 6043   4.845   1.666   8.496  0.4086  0.0463  0.0411
  378loPI   C6A 6044   5.057   1.900   8.152  0.0010 -0.0003 -0.1065
  378loPI   C1B 6045   4.332   0.947  10.001  0.2072 -0.1587  0.1280
  378loPI   C2B 6046   4.468   1.188   9.574 -0.1067  0.0363 -0.1556
  378loPI   C3B 6047   4.552   1.093   9.198 -0.1598 -0.2907  0.2175
  378loPI   C4B 6048   4.510   1.082   8.830  0.0745 -0.0135  0.4082
  379loPI    C1 6049   5.238  15.937  10.699 -0.1569  0.0341  0.0538
  379loPI    C2 6050   5.181  16.142  11.037  0.1157  0.1875  0.0100
  379loPI    C3 6051   5.337  15.775  11.050 -0.0063  0.1369  0.0598
  379loPI   PO4 6052   5.092  16.028  10.540 -0.2271  0.0054  0.3810
  379loPI   GL1 6053   5.028  15.940  10.210 -0.1425 -0.2157  0.1006
  379loPI   GL2 6054   4.754  15.968  10.072 -0.1732 -0.0175  0.1589
  379loPI   C1A 6055   4.966  15.552   9.913  0.1236 -0.2115  0.0928
  379loPI   C2A 6056   4.897  15.505   9.492 -0.1090  0.1438 -0.1282
  379loPI   C3A 6057   4.935  15.510   9.048 -0.3551  0.1542 -0.2359
  379loPI   C4A 6058   4.952  15.530   8.680  0.0263 -0.0854  0.1539
  379loPI   C5A 6059   4.907  15.566   8.271  0.0345 -0.0430  0.4919
  379loPI   C6A 6060   5.130  15.772   8.027 -0.1537  0.3128 -0.2285
  379loPI   C1B 6061   4.944  16.124   9.652 -0.0849 -0.0287  0.1674
  379loPI   C2B 6062   4.994  16.069   9.186  0.1173 -0.0045  0.1945
  379loPI   C3B 6063   5.082  16.009   8.782  0.0369 -0.3291  0.1775
  379loPI   C4B 6064   5.127  15.946   8.470 -0.0380 -0.2219 -0.3124
  380loPI    C1 6065   1.883  11.790  10.959  0.0830 -0.0920  0.1592
  380loPI    C2 6066   1.797  11.681  11.334  0.2563 -0.0472  0.2130
  380loPI    C3 6067   1.729  12.056  11.215 -0.0860 -0.1384  0.1076
  380loPI   PO4 6068   2.052  11.578  10.882  0.1322  0.0068  0.1004
  380loPI   GL1 6069   1.917  11.452  10.466 -0.2245 -0.2709 -0.1480
  380loPI   GL2 6070   1.617  11.216  10.430  0.3621  0.0836 -0.0165
  380loPI   C1A 6071   2.079  11.217  10.161 -0.1528  0.1521 -0.0723
  380loPI   C2A 6072   2.119  11.237   9.678  0.1125 -0.2029 -0.3287
  380loPI   C3A 6073   2.274  11.266   9.248  0.1828 -0.2761  0.0046
  380loPI   C4A 6074   2.267  11.209   8.824 -0.2794 -0.2231  0.2767
  380loPI   C5A 6075   2.316  11.217   8.406  0.0896 -0.3584  0.3220
  380loPI   C6A 6076   2.395  11.406   7.993 -0.2263 -0.3852  0.0378
  380loPI   C1B 6077   1.563  11.092  10.030  0.1557 -0.1151 -0.3328
  380loPI   C2B 6078   1.640  11.190   9.528  0.1721  0.0303  0.1688
  380loPI   C3B 6079   1.824  11.179   9.064  0.1591 -0.1130  0.0193
  380loPI   C4B 6080   1.851  11.113   8.624 -0.1637  0.3709  0.1451
  381loPI    C1 6081   4.268   0.808  10.975  0.1005  0.0717 -0.1512
  381loPI    C2 6082   3.998   0.582  10.785  0.0868  0.0117 -0.0612
  381loPI    C3 6083   3.900   0.766  11.127  0.0029  0.3995 -0.2869
  381loPI   PO4 6084   4.369   0.945  10.763 -0.0881  0.1082  0.0476
  381loPI   GL1 6085   4.169   1.251  10.383  0.0549  0.2933 -0.1928
  381loPI   GL2 6086   4.121   1.557  10.340  0.2401 -0.0527 -0.1177
  381loPI   C1A 6087   4.108   1.431   9.859  0.0215 -0.0325 -0.2177
  381loPI   C2A 6088   4.147   1.518   9.419  0.1906  0.0796  0.2873
  381loPI   C3A 6089   4.277   1.474   9.016 -0.1243  0.1102 -0.2811
  381loPI   C4A 6090   4.312   1.505   8.548 -0.0332  0.1598 -0.2982
  381loPI   C5A 6091   4.653   1.275   8.253  0.5185  0.1578  0.0891
  381loPI   C6A 6092   4.954   0.998   7.940 -0.0331 -0.1312 -0.1648
  381loPI   C1B 6093   4.237   1.927  10.053  0.0425 -0.0424  0.0142
  381loPI   C2B 6094   4.344   1.993   9.691  0.1545  0.1269 -0.2416
  381loPI   C3B 6095   4.462   1.923   9.183 -0.0273 -0.4120  0.1813
  381loPI   C4B 6096   4.603   1.991   8.767 -0.0379 -0.0717  0.2519
  382loPI    C1 6097  14.484   0.603  10.457 -0.0878 -0.0237  0.1122
  382loPI    C2 6098  14.649   0.320  10.687  0.3293  0.0233 -0.1190
  382loPI    C3 6099  14.539   0.670  10.848  0.2249 -0.1011  0.0840
  382loPI   PO4 6100  14.526   0.524  10.193  0.4028  0.0589 -0.4271
  382loPI   GL1 6101  14.585   0.695   9.816 -0.3443 -0.2647 -0.0571
  382loPI   GL2 6102  14.315   0.985   9.910 -0.1838 -0.2818 -0.0476
  382loPI   C1A 6103  14.712   0.955   9.491  0.1235 -0.0942 -0.1355
  382loPI   C2A 6104  14.955   1.114   9.166  0.1585  0.0840 -0.0497
  382loPI   C3A 6105  14.909   1.417   8.826  0.2976  0.1792  0.0838
  382loPI   C4A 6106  14.872   1.768   8.514  0.0493  0.0622 -0.0395
  382loPI   C5A 6107  15.039   2.213   8.648 -0.3429  0.1079  0.2701
  382loPI   C6A 6108  15.158   2.651   8.436  0.3228 -0.0847 -0.0581
  382loPI   C1B 6109  14.330   1.279   9.572  0.2166  0.1021 -0.3420
  382loPI   C2B 6110  14.309   1.582   9.258  0.0985  0.2000  0.1537
  382loPI   C3B 6111  14.428   1.662   8.876  0.1448 -0.1426  0.1552
  382loPI   C4B 6112  14.396   1.496   8.541 -0.2071 -0.1121 -0.1119
  383loPI    C1 6113  15.693  16.498  10.634  0.0874 -0.1747 -0.0986
  383loPI    C2 6114  15.349  16.605  10.810  0.1286  0.0451 -0.1490
  383loPI    C3 6115  15.699  16.685  10.988  0.1540 -0.2316 -0.0694
  383loPI   PO4 6116  15.659  16.291  10.460 -0.1171 -0.0728 -0.0369
  383loPI   GL1 6117  15.842  16.058  10.149 -0.4024  0.1264  0.1445
  383loPI   GL2 6118  16.117  16.195  10.058 -0.1092  0.1602  0.1514
  383loPI   C1A 6119  15.846  15.915   9.748  0.1574 -0.2035  0.0193
  383loPI   C2A 6120  15.824  15.870   9.324  0.0249  0.0272  0.0874
  383loPI   C3A 6121  15.851  15.776   8.889  0.1492 -0.0382  0.0850
  383loPI   C4A 6122  16.031  15.965   8.489  0.2644  0.0342  0.1339
  383loPI   C5A 6123  16.063  15.709   8.219  0.1399 -0.1303  0.1389
  383loPI   C6A 6124  16.418  15.391   8.043  0.1258  0.0976  0.1388
  383loPI   C1B 6125  16.315  15.898   9.686  0.0436 -0.0005 -0.0358
  383loPI   C2B 6126  16.350  15.930   9.196  0.2069  0.1418  0.0738
  383loPI   C3B 6127  16.416  15.854   8.828 -0.0002  0.2383 -0.0805
  383loPI   C4B 6128  16.490  15.779   8.391  0.0005  0.0227  0.0110
  384loPI    C1 6129   4.663   2.163  11.380  0.1371  0.2129 -0.0931
  384loPI    C2 6130   4.310   2.342  11.325 -0.0934 -0.1395  0.1928
  384loPI    C3 6131   4.500   2.380  11.674  0.1370  0.0185  0.0523
  384loPI   PO4 6132   4.771   2.201  11.232  0.3480  0.3639  0.2963
  384loPI   GL1 6133   4.923   2.163  10.749 -0.0445 -0.1891  0.0831
  384loPI   GL2 6134   4.924   2.456  10.584  0.0701 -0.1933 -0.1250
  384loPI   C1A 6135   5.026   2.005  10.350 -0.0235 -0.1458  0.1432
  384loPI   C2A 6136   4.868   1.979   9.954 -0.0361  0.0496 -0.2068
  384loPI   C3A 6137   4.893   2.098   9.579  0.2632  0.0290 -0.2108
  384loPI   C4A 6138   4.968   1.999   9.127  0.2441  0.0650  0.0096
  384loPI   C5A 6139   5.171   1.927   8.791 -0.0431 -0.0095 -0.1768
  384loPI   C6A 6140   5.395   1.712   8.482 -0.1065  0.1221 -0.1116
  384loPI   C1B 6141   5.085   2.483  10.109  0.1039  0.1713 -0.3887
  384loPI   C2B 6142   5.237   2.587   9.785 -0.0591  0.1201  0.2452
  384loPI   C3B 6143   5.187   2.531   9.298  0.1997 -0.0193 -0.2476
  384loPI   C4B 6144   5.282   2.356   8.940 -0.1332 -0.0866  0.1716
  385loPI    C1 6145   5.632  15.384  10.867 -0.2126  0.2346 -0.0292
  385loPI    C2 6146   5.830  15.700  11.012 -0.0164  0.2114 -0.2399
  385loPI    C3 6147   5.808  15.362  11.225  0.1166  0.2353 -0.1870
  385loPI   PO4 6148   5.633  15.402  10.664 -0.0989  0.2626 -0.0005
  385loPI   GL1 6149   5.566  15.695  10.442 -0.2118  0.2190  0.4274
  385loPI   GL2 6150   5.397  15.572  10.203  0.3064  0.0397 -0.1422
  385loPI   C1A 6151   5.841  15.625  10.060 -0.0074 -0.2199  0.4853
  385loPI   C2A 6152   5.936  15.573   9.667  0.0961 -0.0709 -0.2729
  385loPI   C3A 6153   5.913  15.607   9.241  0.2090 -0.0445 -0.1788
  385loPI   C4A 6154   6.003  15.612   8.742 -0.0291  0.1127  0.1993
  385loPI   C5A 6155   5.888  15.554   8.342 -0.1013  0.3341 -0.3501
  385loPI   C6A 6156   5.630  15.735   8.015 -0.2698  0.0478  0.2692
  385loPI   C1B 6157   5.440  15.487   9.760 -0.2118  0.1524 -0.0698
  385loPI   C2B 6158   5.391  15.476   9.319 -0.0659 -0.1037 -0.3229
  385loPI   C3B 6159   5.535  15.584   8.937 -0.1177  0.1687  0.2759
  385loPI   C4B 6160   5.406  15.567   8.513  0.0512  0.1894  0.0927
  386loPI    C1 6161   8.402   3.655  10.923 -0.1378 -0.0177 -0.0970
  386loPI    C2 6162   8.449   3.675  11.320 -0.2440  0.1344 -0.0915
  386loPI    C3 6163   8.643   3.932  11.082 -0.1753  0.0391 -0.1387
  386loPI   PO4 6164   8.085   3.759  10.874  0.3386 -0.0833 -0.2523
  386loPI   GL1 6165   7.931   3.677  10.501 -0.0978 -0.1372  0.0264
  386loPI   GL2 6166   7.796   3.966  10.425  0.1331 -0.0491  0.2054
  386loPI   C1A 6167   7.769   3.518  10.203  0.0812 -0.3427  0.2212
  386loPI   C2A 6168   7.667   3.564   9.884 -0.0676  0.2480  0.0779
  386loPI   C3A 6169   7.705   3.571   9.470  0.0108 -0.0615  0.2499
  386loPI   C4A 6170   7.775   3.670   9.070  0.0448  0.0839  0.0727
  386loPI   C5A 6171   7.716   3.721   8.657  0.2622  0.1359  0.3295
  386loPI   C6A 6172   7.905   3.646   8.286 -0.1968 -0.0459 -0.1541
  386loPI   C1B 6173   7.779   4.022  10.013 -0.4183  0.0062  0.2017
  386loPI   C2B 6174   7.946   4.018   9.589  0.0060 -0.4202  0.0518
  386loPI   C3B 6175   8.024   4.099   9.097  0.1319  0.0020  0.1142
  386loPI   C4B 6176   7.793   4.206   8.680  0.1252 -0.0202  0.1070
  387loPI    C1 6177   4.434  11.273  10.892 -0.2827  0.0073 -0.0212
  387loPI    C2 6178   4.068  11.158  11.006 -0.2269 -0.0646  0.0877
  387loPI    C3 6179   4.388  11.050  11.221 -0.1521  0.0993  0.0604
  387loPI   PO4 6180   4.408  11.273  10.621  0.0825  0.2064 -0.4043
  387loPI   GL1 6181   4.081  11.292  10.298 -0.0776 -0.1313 -0.2241
  387loPI   GL2 6182   4.010  10.975  10.094  0.1012 -0.1654 -0.1206
  387loPI   C1A 6183   4.320  11.378   9.985 -0.0043  0.0919 -0.0179
  387loPI   C2A 6184   4.323  11.405   9.579  0.0068  0.1223 -0.0067
  387loPI   C3A 6185   4.463  11.400   9.155 -0.1907 -0.0099  0.0448
  387loPI   C4A 6186   4.483  11.371   8.720  0.3491 -0.1643 -0.0977
  387loPI   C5A 6187   4.571  11.554   8.313  0.0064  0.1438  0.1337
  387loPI   C6A 6188   4.851  11.600   8.000  0.2944 -0.2076 -0.1161
  387loPI   C1B 6189   4.161  10.978   9.668 -0.2609 -0.2350 -0.2816
  387loPI   C2B 6190   4.226  10.919   9.217  0.2632  0.0980  0.0988
  387loPI   C3B 6191   4.200  10.940   8.807 -0.0978 -0.1808 -0.3807
  387loPI   C4B 6192   4.406  11.001   8.360  0.0200  0.0151  0.0094
  388loPI    C1 6193   1.163   1.239  10.730  0.2587 -0.0073  0.1019
  388loPI    C2 6194   1.141   1.350  11.114 -0.2508  0.1578  0.0320
  388loPI    C3 6195   1.043   0.977  11.008  0.1809  0.0215  0.0959
  388loPI   PO4 6196   1.393   1.334  10.665 -0.2357  0.1615 -0.0167
  388loPI   GL1 6197   1.559   1.225  10.379  0.1378  0.0715 -0.0825
  388loPI   GL2 6198   1.870   1.169  10.277 -0.0384 -0.2817  0.1682
  388loPI   C1A 6199   1.525   1.314   9.972 -0.2271 -0.1406 -0.2222
  388loPI   C2A 6200   1.563   1.540   9.612 -0.0299  0.3981  0.0245
  388loPI   C3A 6201   1.830   1.775   9.365  0.2418 -0.1893 -0.1027
  388loPI   C4A 6202   1.896   1.765   8.920 -0.0391 -0.3195  0.0899
  388loPI   C5A 6203   1.865   1.653   8.514 -0.1049 -0.3560 -0.1059
  388loPI   C6A 6204   2.124   1.458   8.192  0.1270  0.0449 -0.1796
  388loPI   C1B 6205   2.071   1.250   9.855 -0.0286  0.1937 -0.0404
  388loPI   C2B 6206   2.104   1.380   9.526 -0.0800  0.1801  0.2657
  388loPI   C3B 6207   2.145   1.253   9.090 -0.0503  0.0131  0.3448
  388loPI   C4B 6208   2.247   1.392   8.729  0.1932  0.0919  0.0481
  389loPI    C1 6209   7.776   1.651  11.102  0.0778  0.1811  0.2128
  389loPI    C2 6210   8.153   1.626  11.233  0.0343 -0.1723  0.2809
  389loPI    C3 6211   7.888   1.342  11.329 -0.2109 -0.0083  0.1043
  389loPI   PO4 6212   7.797   1.770  10.834  0.0423  0.0124 -0.0896
  389loPI   GL1 6213   7.583   1.699  10.540 -0.1260  0.2484  0.0175
  389loPI   GL2 6214   7.765   1.375  10.380 -0.1557  0.2023 -0.2775
  389loPI   C1A 6215   7.388   1.762  10.165  0.1179  0.3989  0.1734
  389loPI   C2A 6216   7.281   1.755   9.721  0.1754  0.2787  0.3042
  389loPI   C3A 6217   7.312   1.638   9.313 -0.1033 -0.2544 -0.5370
  389loPI   C4A 6218   7.334   1.750   8.919 -0.0463  0.1121  0.0372
  389loPI   C5A 6219   7.406   1.999   8.578 -0.0221 -0.1107 -0.1123
  389loPI   C6A 6220   7.667   2.308   8.349 -0.1634 -0.1070  0.2198
  389loPI   C1B 6221   7.706   1.325  10.009 -0.4248  0.2040  0.0215
  389loPI   C2B 6222   7.588   1.314   9.591  0.0060 -0.2145 -0.3307
  389loPI   C3B 6223   7.657   1.369   9.046  0.0804  0.2831 -0.0583
  389loPI   C4B 6224   7.728   1.409   8.560  0.0618  0.0335 -0.0764
  390loPI    C1 6225  10.901   1.501  11.113  0.0393 -0.1254 -0.1095
  390loPI    C2 6226  10.853   1.176  11.341  0.2135 -0.1236 -0.0685
  390loPI    C3 6227  11.049   1.494  11.485 -0.2892  0.1518  0.0319
  390loPI   PO4 6228  11.000   1.321  10.853 -0.2717  0.3535  0.5531
  390loPI   GL1 6229  10.814   1.226  10.391 -0.0027  0.1695  0.2709
  390loPI   GL2 6230  10.449   1.469  10.456 -0.2418  0.2141 -0.2007
  390loPI   C1A 6231  10.621   1.262   9.941  0.0513 -0.0771 -0.2620
  390loPI   C2A 6232  10.452   1.239   9.586 -0.2179 -0.1721  0.0374
  390loPI   C3A 6233  10.492   1.194   9.125  0.4995 -0.0029 -0.0649
  390loPI   C4A 6234  10.493   1.161   8.750 -0.2246  0.0218  0.1600
  390loPI   C5A 6235  10.607   1.392   8.453  0.0794 -0.3697 -0.0035
  390loPI   C6A 6236  10.599   1.495   8.041  0.3216 -0.0344 -0.1885
  390loPI   C1B 6237  10.237   1.660  10.072 -0.0078 -0.2196  0.1638
  390loPI   C2B 6238  10.209   1.609   9.649  0.2165 -0.0802 -0.0267
  390loPI   C3B 6239  10.214   1.640   9.273 -0.1988 -0.0055  0.0738
  390loPI   C4B 6240  10.208   1.628   8.773  0.0095 -0.2100 -0.0857
  391loPI    C1 6241  15.890   6.348  10.828 -0.0579  0.2705  0.1249
  391loPI    C2 6242  16.060   6.446  10.480 -0.1582 -0.0480 -0.0178
  391loPI    C3 6243  16.280   6.279  10.770 -0.1777 -0.2488 -0.1175
  391loPI   PO4 6244  15.643   6.242  10.756 -0.0807  0.0161 -0.0086
  391loPI   GL1 6245  15.541   6.407  10.345  0.3399 -0.0579  0.1142
  391loPI   GL2 6246  15.284   6.187  10.344  0.1193 -0.3197 -0.3403
  391loPI   C1A 6247  15.615   6.607   9.843  0.2097 -0.1302 -0.1963
  391loPI   C2A 6248  15.590   6.692   9.393 -0.2009 -0.0558  0.0983
  391loPI   C3A 6249  15.473   6.809   9.000  0.1031 -0.1879 -0.1202
  391loPI   C4A 6250  15.419   6.794   8.543 -0.0054 -0.2212 -0.0577
  391loPI   C5A 6251  15.259   6.698   8.192  0.1913 -0.2829 -0.1803
  391loPI   C6A 6252  15.134   6.481   7.882  0.0781  0.0540 -0.0840
  391loPI   C1B 6253  15.359   6.123   9.956 -0.2235 -0.0886  0.0533
  391loPI   C2B 6254  15.384   6.222   9.518  0.0148 -0.2346  0.1273
  391loPI   C3B 6255  15.195   6.196   9.128 -0.1690  0.1081 -0.0945
  391loPI   C4B 6256  15.189   6.334   8.698  0.2934 -0.4579 -0.2919
  392loPI    C1 6257  10.115   9.927  11.140  0.0352 -0.0165 -0.3924
  392loPI    C2 6258  10.396   9.794  11.392 -0.0047  0.3012 -0.1751
  392loPI    C3 6259  10.032   9.889  11.530 -0.2552 -0.1921 -0.4677
  392loPI   PO4 6260  10.256   9.734  10.901 -0.1748 -0.2326 -0.0005
  392loPI   GL1 6261  10.266   9.848  10.506  0.0228 -0.0620 -0.2213
  392loPI   GL2 6262  10.035  10.205  10.626 -0.0532  0.0802 -0.2355
  392loPI   C1A 6263  10.006   9.888  10.119 -0.0419 -0.0551  0.1064
  392loPI   C2A 6264  10.051   9.654   9.711  0.0433 -0.1253 -0.0150
  392loPI   C3A 6265  10.197   9.717   9.293 -0.5468  0.1887 -0.2539
  392loPI   C4A 6266  10.217   9.618   8.869 -0.0371 -0.1538 -0.1084
  392loPI   C5A 6267  10.267   9.513   8.482  0.1876 -0.0130 -0.0569
  392loPI   C6A 6268  10.323   9.098   8.275  0.1750 -0.0097  0.2138
  392loPI   C1B 6269  10.024  10.368  10.282  0.1989 -0.0106 -0.0354
  392loPI   C2B 6270  10.218  10.639  10.050 -0.0076 -0.1404  0.3472
  392loPI   C3B 6271  10.131  10.650   9.611 -0.0169  0.1473  0.1309
  392loPI   C4B 6272  10.030  10.636   9.221 -0.0881 -0.1497  0.0258
  393loPI    C1 6273  13.497   2.106  10.834  0.1198 -0.1151 -0.0586
  393loPI    C2 6274  13.496   2.010  11.223 -0.3980  0.0732 -0.0055
  393loPI    C3 6275  13.662   2.354  11.102 -0.3466  0.0732  0.0641
  393loPI   PO4 6276  13.510   1.816  10.687 -0.4112 -0.1323 -0.1507
  393loPI   GL1 6277  13.333   1.457  10.374  0.0494 -0.2355  0.0963
  393loPI   GL2 6278  13.083   1.626  10.394 -0.0534  0.0241 -0.0875
  393loPI   C1A 6279  13.458   1.621   9.984 -0.0112 -0.3580  0.3115
  393loPI   C2A 6280  13.228   1.676   9.584  0.1742  0.3002  0.2557
  393loPI   C3A 6281  13.155   1.649   9.218  0.1153  0.2964  0.0919
  393loPI   C4A 6282  13.032   1.625   8.757 -0.1469  0.0637 -0.1290
  393loPI   C5A 6283  12.738   1.658   8.494  0.3329 -0.0564 -0.1050
  393loPI   C6A 6284  12.392   1.388   8.331  0.2593  0.0504  0.0827
  393loPI   C1B 6285  12.933   1.574   9.966  0.0701  0.0929  0.1902
  393loPI   C2B 6286  12.722   1.552   9.577 -0.0948 -0.1863  0.2433
  393loPI   C3B 6287  12.682   1.431   9.147  0.1347 -0.2483 -0.1812
  393loPI   C4B 6288  12.387   1.619   8.809 -0.2730  0.1074 -0.1419
  394loPI    C1 6289   7.017   4.967  11.538 -0.1169  0.0422 -0.0459
  394loPI    C2 6290   6.647   4.931  11.684 -0.0396 -0.2189  0.0918
  394loPI    C3 6291   6.950   5.023  11.928 -0.0156  0.0180 -0.0246
  394loPI   PO4 6292   6.983   4.808  11.340 -0.0183  0.0671 -0.0123
  394loPI   GL1 6293   6.863   4.809  10.878 -0.1187  0.1990 -0.0862
  394loPI   GL2 6294   6.944   4.587  10.635  0.1216 -0.1331  0.0519
  394loPI   C1A 6295   6.753   4.944  10.427  0.1846 -0.0292 -0.3404
  394loPI   C2A 6296   6.736   4.928  10.027  0.1696  0.0677 -0.2964
  394loPI   C3A 6297   6.843   4.846   9.556  0.2458 -0.1648 -0.0614
  394loPI   C4A 6298   6.881   4.851   9.081 -0.0583 -0.2896 -0.1612
  394loPI   C5A 6299   7.100   4.772   8.693  0.2839  0.1998  0.1362
  394loPI   C6A 6300   7.131   4.265   8.514 -0.0841 -0.1097 -0.2087
  394loPI   C1B 6301   7.062   4.566  10.246 -0.2782  0.1696 -0.2204
  394loPI   C2B 6302   7.060   4.484   9.840 -0.0952 -0.0332  0.2690
  394loPI   C3B 6303   7.131   4.466   9.440  0.0010 -0.1878 -0.0306
  394loPI   C4B 6304   7.081   4.396   9.015  0.1742 -0.1434 -0.1414
  395loPI    C1 6305  13.063   8.421  10.917  0.1547 -0.0602  0.0553
  395loPI    C2 6306  12.895   8.082  11.047  0.0794  0.0657  0.2933
  395loPI    C3 6307  12.666   8.376  10.900  0.1419  0.0267  0.1147
  395loPI   PO4 6308  13.203   8.385  10.743  0.1733  0.0445 -0.0664
  395loPI   GL1 6309  13.145   8.389  10.352  0.0967 -0.0004  0.0427
  395loPI   GL2 6310  13.394   8.080  10.260 -0.2050  0.1131 -0.0828
  395loPI   C1A 6311  12.807   8.131  10.087 -0.0666 -0.0938  0.4528
  395loPI   C2A 6312  12.755   8.188   9.623 -0.0661 -0.3067  0.0435
  395loPI   C3A 6313  12.722   8.174   9.229 -0.0096  0.0732 -0.1041
  395loPI   C4A 6314  12.703   8.271   8.859  0.0090 -0.1213 -0.1465
  395loPI   C5A 6315  12.693   8.254   8.418 -0.0525  0.0306 -0.2593
  395loPI   C6A 6316  12.875   8.411   8.009  0.0595 -0.4202 -0.1743
  395loPI   C1B 6317  13.305   8.240   9.778  0.3878  0.0507 -0.0382
  395loPI   C2B 6318  13.227   8.338   9.294 -0.2879 -0.4712  0.0847
  395loPI   C3B 6319  13.204   8.287   8.844  0.2431  0.1371 -0.1357
  395loPI   C4B 6320  13.265   8.469   8.358  0.1131  0.4572 -0.1102
  396loPI    C1 6321  16.778   1.922  10.493  0.2655 -0.0653 -0.0084
  396loPI    C2 6322  16.587   2.021  10.830 -0.2101 -0.2155 -0.2247
  396loPI    C3 6323  16.822   1.698  10.822  0.0179 -0.0610  0.0296
  396loPI   PO4 6324  16.586   1.983  10.220  0.0845 -0.1037  0.1827
  396loPI   GL1 6325  16.432   2.293   9.840  0.2050  0.1447  0.0121
  396loPI   GL2 6326  16.753   2.244   9.804 -0.1911  0.2026 -0.3352
  396loPI   C1A 6327  16.465   2.127   9.425 -0.1439 -0.2016  0.0066
  396loPI   C2A 6328  16.761   2.146   9.178 -0.0918  0.1616 -0.3453
  396loPI   C3A 6329  16.886   2.141   8.738 -0.0458 -0.0772  0.0099
  396loPI   C4A 6330  16.962   2.334   8.386  0.1970  0.3331  0.5148
  396loPI   C5A 6331  16.869   2.735   8.208 -0.0002  0.1141 -0.1201
  396loPI   C6A 6332  16.506   2.946   8.053  0.3535  0.0059 -0.0161
  396loPI   C1B 6333  17.047   2.357   9.554 -0.0206  0.6196 -0.5354
  396loPI   C2B 6334  17.179   2.377   9.164 -0.2887 -0.3069  0.0392
  396loPI   C3B 6335  17.370   2.344   8.724 -0.0722 -0.0686 -0.0574
  396loPI   C4B 6336  17.419   2.513   8.335 -0.2458 -0.0934 -0.0191
  397loPI    C1 6337   8.366   8.555  11.086 -0.0988 -0.0888 -0.1561
  397loPI    C2 6338   8.754   8.641  11.130 -0.1166 -0.0294 -0.1138
  397loPI    C3 6339   8.502   8.689  11.437 -0.2069  0.1985 -0.2214
  397loPI   PO4 6340   8.292   8.549  10.855 -0.0074  0.3566 -0.0898
  397loPI   GL1 6341   8.048   8.446  10.565 -0.2019 -0.2718 -0.0403
  397loPI   GL2 6342   7.915   8.633  10.377 -0.0910 -0.0920  0.2780
  397loPI   C1A 6343   8.359   8.221  10.306 -0.4067 -0.0202 -0.0987
  397loPI   C2A 6344   8.420   8.170   9.903  0.1007 -0.0236 -0.2299
  397loPI   C3A 6345   8.471   8.301   9.483  0.2953 -0.0911 -0.0825
  397loPI   C4A 6346   8.454   8.246   9.092  0.1460 -0.2288 -0.1370
  397loPI   C5A 6347   8.455   8.046   8.728  0.0571  0.2041 -0.2970
  397loPI   C6A 6348   8.792   7.925   8.536  0.0424 -0.0513  0.3849
  397loPI   C1B 6349   8.042   8.633   9.966 -0.1979 -0.1540  0.2059
  397loPI   C2B 6350   8.165   8.722   9.549 -0.2554  0.1165  0.0543
  397loPI   C3B 6351   8.198   8.708   9.118  0.0811 -0.1088 -0.0705
  397loPI   C4B 6352   8.111   8.655   8.821 -0.0556  0.1046 -0.3224
  398loPI    C1 6353   6.140   9.597  11.432 -0.1619 -0.2172  0.1186
  398loPI    C2 6354   6.505   9.443  11.485  0.0029  0.0726 -0.1405
  398loPI    C3 6355   6.189   9.274  11.662  0.2390 -0.2776 -0.0440
  398loPI   PO4 6356   6.158   9.648  11.167  0.0422  0.3724  0.1254
  398loPI   GL1 6357   6.330   9.663  10.669 -0.0013 -0.0354 -0.1399
  398loPI   GL2 6358   6.112   9.361  10.638  0.0697 -0.0295 -0.0323
  398loPI   C1A 6359   6.516   9.849  10.361  0.0106 -0.0273 -0.2540
  398loPI   C2A 6360   6.605   9.815   9.960 -0.3072  0.0010 -0.1804
  398loPI   C3A 6361   6.686   9.772   9.536  0.2146 -0.0381  0.1036
  398loPI   C4A 6362   6.756   9.833   9.156  0.2379 -0.4114 -0.1156
  398loPI   C5A 6363   6.778   9.812   8.731 -0.2939 -0.1169  0.1314
  398loPI   C6A 6364   6.837  10.066   8.497  0.0125 -0.2184 -0.1960
  398loPI   C1B 6365   6.354   9.337  10.276 -0.0903  0.3743  0.3448
  398loPI   C2B 6366   6.429   9.316   9.800 -0.0391 -0.0888  0.3341
  398loPI   C3B 6367   6.483   9.365   9.334 -0.0445  0.0060  0.0637
  398loPI   C4B 6368   6.587   9.435   8.874  0.0998 -0.0135  0.0605
  399loPI    C1 6369   8.808  14.691  11.069  0.1232 -0.0695 -0.2000
  399loPI    C2 6370   8.870  14.313  11.187  0.0481 -0.0877 -0.2185
  399loPI    C3 6371   8.903  14.613  11.449  0.4711 -0.0714 -0.2834
  399loPI   PO4 6372   8.943  14.623  10.787 -0.1664 -0.1555 -0.1555
  399loPI   GL1 6373   8.760  14.499  10.358 -0.2070 -0.0847  0.2731
  399loPI   GL2 6374   9.054  14.409  10.340  0.0420  0.0200  0.0869
  399loPI   C1A 6375   8.440  14.420   9.924 -0.0024 -0.2213 -0.0519
  399loPI   C2A 6376   8.383  14.420   9.461 -0.2232 -0.4082 -0.0390
  399loPI   C3A 6377   8.354  14.474   9.049 -0.0124  0.1062  0.1388
  399loPI   C4A 6378   8.261  14.583   8.594  0.0950 -0.1115  0.0105
  399loPI   C5A 6379   8.526  14.661   8.197  0.1557 -0.0361 -0.0329
  399loPI   C6A 6380   8.710  14.294   8.089 -0.2692  0.1062 -0.2415
  399loPI   C1B 6381   8.950  14.458   9.860  0.2226 -0.1023  0.0964
  399loPI   C2B 6382   8.871  14.529   9.494  0.0241  0.0570 -0.1741
  399loPI   C3B 6383   8.842  14.496   9.033 -0.0959 -0.2699 -0.0260
  399loPI   C4B 6384   8.760  14.516   8.611  0.0227  0.0882 -0.1071
  400loPI    C1 6385  15.850   5.842  11.010 -0.0588  0.5376  0.2135
  400loPI    C2 6386  16.174   5.993  11.190  0.3915 -0.0483 -0.0707
  400loPI    C3 6387  15.931   5.746  11.390  0.3403  0.0754  0.0216
  400loPI   PO4 6388  15.963   5.847  10.771 -0.0312 -0.0339 -0.0037
  400loPI   GL1 6389  15.849   6.029  10.312  0.2517 -0.1847  0.2363
  400loPI   GL2 6390  15.651   5.777  10.056  0.0523 -0.1198 -0.0443
  400loPI   C1A 6391  15.893   6.214   9.884 -0.1437  0.3261 -0.3340
  400loPI   C2A 6392  15.841   6.228   9.536  0.2091  0.0906  0.3816
  400loPI   C3A 6393  15.696   6.263   9.074  0.0068 -0.0388  0.0630
  400loPI   C4A 6394  15.746   6.467   8.712 -0.0564 -0.0978  0.2150
  400loPI   C5A 6395  15.850   6.691   8.343 -0.0248  0.3071  0.2756
  400loPI   C6A 6396  16.183   6.691   8.065 -0.1725 -0.1324 -0.1038
  400loPI   C1B 6397  15.641   5.813   9.764  0.0099  0.1620 -0.1195
  400loPI   C2B 6398  15.686   5.820   9.285  0.0186 -0.2288 -0.1125
  400loPI   C3B 6399  15.507   5.825   8.919 -0.1982  0.1800 -0.1710
  400loPI   C4B 6400  15.603   6.017   8.637  0.0305 -0.1687  0.1321
  401loPI    C1 6401   1.172   6.039  11.070 -0.1637  0.0358  0.0594
  401loPI    C2 6402   1.511   6.111  11.269 -0.0014 -0.0846 -0.1694
  401loPI    C3 6403   1.249   5.844  11.411  0.0372 -0.0515 -0.0346
  401loPI   PO4 6404   1.218   6.041  10.845 -0.3093  0.0896  0.1968
  401loPI   GL1 6405   1.558   6.057  10.650  0.1096 -0.1022  0.1646
  401loPI   GL2 6406   1.851   6.234  10.488 -0.1558  0.1969 -0.1567
  401loPI   C1A 6407   1.587   5.800  10.246 -0.0212 -0.1185 -0.0095
  401loPI   C2A 6408   1.641   5.733   9.847 -0.0563 -0.1733  0.1834
  401loPI   C3A 6409   1.743   5.797   9.400 -0.1022 -0.0664  0.0303
  401loPI   C4A 6410   1.872   5.678   8.993  0.1391 -0.0244 -0.1139
  401loPI   C5A 6411   1.632   5.323   8.814 -0.2372 -0.2911 -0.4114
  401loPI   C6A 6412   1.221   5.226   8.608 -0.1080 -0.0863  0.0646
  401loPI   C1B 6413   1.878   6.239  10.102 -0.0518  0.0118  0.0868
  401loPI   C2B 6414   1.868   6.213   9.630  0.0864 -0.1896  0.0433
  401loPI   C3B 6415   1.961   6.196   9.101 -0.2826  0.1480 -0.2625
  401loPI   C4B 6416   2.016   6.070   8.643 -0.0898  0.0787 -0.3700
  402loPI    C1 6417   8.893  11.606  11.046 -0.0647  0.2082 -0.3193
  402loPI    C2 6418   8.761  11.823  11.355 -0.0195 -0.1260 -0.0592
  402loPI    C3 6419   8.526  11.544  11.193  0.0898 -0.2019 -0.0882
  402loPI   PO4 6420   8.941  11.840  10.820  0.2192  0.0800  0.4310
  402loPI   GL1 6421   9.165  12.072  10.503  0.2577  0.0115 -0.1439
  402loPI   GL2 6422   9.331  11.855  10.409 -0.0898  0.4246  0.0406
  402loPI   C1A 6423   9.010  12.421  10.283  0.2697  0.2310  0.0748
  402loPI   C2A 6424   8.906  12.286   9.932 -0.0193 -0.0953  0.1925
  402loPI   C3A 6425   8.836  12.360   9.563 -0.3940 -0.1415  0.1370
  402loPI   C4A 6426   8.806  12.302   9.100  0.2132  0.1613 -0.0287
  402loPI   C5A 6427   8.866  12.512   8.736 -0.0831  0.3682 -0.0004
  402loPI   C6A 6428   9.198  12.703   8.389  0.0719 -0.0266 -0.0661
  402loPI   C1B 6429   9.295  11.975   9.979  0.1836 -0.2235  0.1753
  402loPI   C2B 6430   9.108  11.901   9.578 -0.1427  0.0945 -0.0490
  402loPI   C3B 6431   9.129  11.940   9.189  0.1835  0.1078  0.0985
  402loPI   C4B 6432   8.998  11.985   8.711 -0.2476  0.0170 -0.1479
  403loPI    C1 6433   1.393   3.279  11.209  0.0451  0.3386 -0.1101
  403loPI    C2 6434   1.575   3.332  11.562 -0.0052 -0.0588 -0.0197
  403loPI    C3 6435   1.175   3.328  11.541 -0.0031  0.0758 -0.1010
  403loPI   PO4 6436   1.566   3.436  11.070 -0.1409 -0.2190  0.0226
  403loPI   GL1 6437   1.632   3.348  10.652  0.0877 -0.1143 -0.2201
  403loPI   GL2 6438   1.430   3.426  10.394  0.2237 -0.1173  0.0301
  403loPI   C1A 6439   1.859   3.203  10.239  0.0376  0.0913 -0.0047
  403loPI   C2A 6440   1.858   3.094   9.772  0.0263  0.1754  0.0691
  403loPI   C3A 6441   1.885   3.058   9.301  0.0236 -0.3912  0.0531
  403loPI   C4A 6442   2.019   3.069   8.878 -0.0272  0.1284 -0.0006
  403loPI   C5A 6443   2.041   2.887   8.544  0.0944 -0.0655 -0.1849
  403loPI   C6A 6444   1.806   2.647   8.436 -0.1103  0.0214 -0.1165
  403loPI   C1B 6445   1.572   3.564  10.008  0.1488  0.0021 -0.1754
  403loPI   C2B 6446   1.648   3.498   9.583 -0.0453 -0.1120 -0.2428
  403loPI   C3B 6447   1.510   3.399   9.129 -0.2095  0.0547 -0.0872
  403loPI   C4B 6448   1.181   3.416   8.817 -0.1469  0.0840 -0.4667
  404loPI    C1 6449  12.516   7.753  10.992 -0.0529  0.0012  0.0451
  404loPI    C2 6450  12.155   7.751  11.164 -0.0713  0.0546  0.0072
  404loPI    C3 6451  12.452   7.533  11.320 -0.0733  0.1433  0.1375
  404loPI   PO4 6452  12.417   7.899  10.754 -0.3247  0.0073 -0.2556
  404loPI   GL1 6453  12.117   7.952  10.466  0.4900  0.3515  0.2859
  404loPI   GL2 6454  11.844   8.081  10.367  0.1698 -0.0535 -0.0940
  404loPI   C1A 6455  12.127   7.729  10.040  0.2215  0.0762  0.0498
  404loPI   C2A 6456  11.988   7.702   9.627 -0.0774 -0.3459 -0.0634
  404loPI   C3A 6457  11.919   7.630   9.168  0.0372  0.1232 -0.3109
  404loPI   C4A 6458  11.981   7.670   8.873  0.0362  0.0716 -0.1530
  404loPI   C5A 6459  11.886   7.691   8.513  0.0490  0.2094  0.0639
  404loPI   C6A 6460  11.971   8.007   8.330 -0.0657 -0.3421 -0.1283
  404loPI   C1B 6461  11.581   8.135   9.975  0.3229  0.2811  0.0596
  404loPI   C2B 6462  11.735   8.181   9.631 -0.2642  0.2033  0.3866
  404loPI   C3B 6463  11.606   8.060   9.186 -0.0861  0.0637  0.2419
  404loPI   C4B 6464  11.724   8.097   8.771  0.1150  0.2095 -0.0430
  405loPI    C1 6465  16.170   9.362  10.976 -0.0555 -0.1455  0.1223
  405loPI    C2 6466  16.323   9.612  11.249 -0.0615 -0.1189  0.1012
  405loPI    C3 6467  16.360   9.216  11.296 -0.0531 -0.1139  0.1352
  405loPI   PO4 6468  15.993   9.580  10.847  0.0966  0.0903 -0.2272
  405loPI   GL1 6469  15.929   9.639  10.563  0.0721  0.1038  0.1062
  405loPI   GL2 6470  15.863   9.376  10.377 -0.1012  0.0002  0.4917
  405loPI   C1A 6471  15.918   9.933  10.188 -0.0031  0.0797 -0.3440
  405loPI   C2A 6472  15.946   9.959   9.711 -0.2496 -0.0076 -0.4240
  405loPI   C3A 6473  15.885  10.077   9.291 -0.0152  0.0394 -0.3249
  405loPI   C4A 6474  15.928  10.110   8.822 -0.0041 -0.0516 -0.1039
  405loPI   C5A 6475  15.787   9.955   8.418 -0.2875  0.1214 -0.1760
  405loPI   C6A 6476  15.419  10.152   8.277  0.0752  0.0722 -0.1150
  405loPI   C1B 6477  15.742   9.441  10.023 -0.1566  0.3557  0.3848
  405loPI   C2B 6478  15.729   9.435   9.540  0.0748 -0.0972 -0.3140
  405loPI   C3B 6479  15.741   9.576   9.113  0.1146 -0.0254  0.1333
  405loPI   C4B 6480  15.728   9.584   8.715 -0.1174 -0.0271 -0.0389
  406loPI    C1 6481   1.891   2.039  11.256  0.1089 -0.3054 -0.2530
  406loPI    C2 6482   2.199   1.885  11.458  0.1076  0.0635  0.0411
  406loPI    C3 6483   1.836   1.896  11.626  0.0499  0.1316 -0.0874
  406loPI   PO4 6484   1.994   2.257  11.115 -0.0597  0.0776  0.1702
  406loPI   GL1 6485   2.065   2.307  10.635 -0.1273 -0.1659 -0.0314
  406loPI   GL2 6486   1.813   2.209  10.628 -0.3596  0.2481 -0.1573
  406loPI   C1A 6487   2.326   2.585  10.384 -0.0812 -0.0793 -0.0102
  406loPI   C2A 6488   2.541   2.658  10.010  0.0979  0.1957  0.3456
  406loPI   C3A 6489   2.664   2.719   9.595  0.1468 -0.5138 -0.2519
  406loPI   C4A 6490   2.821   2.662   9.211 -0.0926 -0.1211  0.1493
  406loPI   C5A 6491   2.899   2.696   8.722 -0.1826  0.4319 -0.1530
  406loPI   C6A 6492   3.103   2.622   8.315  0.0527  0.1323  0.2693
  406loPI   C1B 6493   1.789   2.212  10.162 -0.0610  0.1598 -0.0584
  406loPI   C2B 6494   1.975   2.176   9.673 -0.0705 -0.2789  0.0580
  406loPI   C3B 6495   2.096   2.243   9.208 -0.0083 -0.2300 -0.1169
  406loPI   C4B 6496   1.979   2.521   8.910 -0.2350 -0.2925  0.0280
  407loPI    C1 6497  11.131   3.962  11.201 -0.1490 -0.0719 -0.0179
  407loPI    C2 6498  11.131   4.328  11.363 -0.0112 -0.1412  0.1419
  407loPI    C3 6499  10.919   4.034  11.532 -0.2582 -0.0957 -0.0824
  407loPI   PO4 6500  11.019   4.046  10.897  0.1391 -0.2761 -0.1244
  407loPI   GL1 6501  10.949   3.707  10.561  0.0005 -0.0248  0.1293
  407loPI   GL2 6502  10.691   3.940  10.484  0.1297 -0.5380 -0.2861
  407loPI   C1A 6503  11.098   3.523  10.201 -0.1325  0.3471 -0.0431
  407loPI   C2A 6504  11.104   3.518   9.821  0.2669 -0.1979  0.2483
  407loPI   C3A 6505  11.199   3.469   9.396  0.1127 -0.0592  0.1378
  407loPI   C4A 6506  11.119   3.466   8.978 -0.1543  0.0081 -0.3462
  407loPI   C5A 6507  11.095   3.538   8.553  0.0909  0.0036  0.0700
  407loPI   C6A 6508  11.186   3.620   8.143 -0.0713 -0.1432  0.0198
  407loPI   C1B 6509  10.800   3.872  10.056 -0.2387  0.0110  0.4460
  407loPI   C2B 6510  10.908   3.907   9.682  0.0922  0.0902 -0.0641
  407loPI   C3B 6511  10.914   3.830   9.263 -0.1031  0.2004 -0.0547
  407loPI   C4B 6512  10.910   3.953   8.830  0.1165  0.2947 -0.2503
  408loPI    C1 6513   2.180  16.606  10.327  0.0887  0.2713  0.4003
  408loPI    C2 6514   1.827  16.709  10.170  0.1346  0.1329  0.2028
  408loPI    C3 6515   1.841  16.517  10.521 -0.0031 -0.1063  0.0806
  408loPI   PO4 6516   2.325  16.522  10.069 -0.0779  0.2679  0.0278
  408loPI   GL1 6517   2.213  16.651   9.776 -0.1957 -0.2983 -0.1157
  408loPI   GL2 6518   1.997  16.371   9.718 -0.0560  0.3291  0.1462
  408loPI   C1A 6519   2.069  16.999   9.538  0.0581  0.1271 -0.0452
  408loPI   C2A 6520   2.019  17.060   9.073  0.1695  0.1196 -0.2764
  408loPI   C3A 6521   2.092  17.429   8.884  0.2556  0.1261  0.2117
  408loPI   C4A 6522   2.228  17.533   8.570  0.0453  0.3547 -0.2221
  408loPI   C5A 6523   2.547  17.708   8.280 -0.2951  0.4186  0.1138
  408loPI   C6A 6524   2.783  17.830   7.951 -0.1772 -0.0887 -0.0974
  408loPI   C1B 6525   1.891  16.586   9.359  0.0520  0.0397  0.4178
  408loPI   C2B 6526   1.810  16.415   8.889 -0.0118 -0.3162 -0.1163
  408loPI   C3B 6527   1.706  16.186   8.650  0.2904  0.0952  0.0367
  408loPI   C4B 6528   1.486  16.078   8.261 -0.0822 -0.0690  0.2193
  409loPI    C1 6529  13.977  12.241  10.615 -0.1353  0.2762  0.1035
  409loPI    C2 6530  13.765  12.020  10.872 -0.1425  0.1814  0.0166
  409loPI    C3 6531  14.164  12.005  10.879 -0.1455 -0.0005 -0.1327
  409loPI   PO4 6532  13.825  12.163  10.375 -0.2354  0.4702 -0.0279
  409loPI   GL1 6533  13.824  11.832  10.070  0.1222 -0.2361 -0.1751
  409loPI   GL2 6534  13.664  11.462  10.049 -0.0508 -0.1073 -0.0223
  409loPI   C1A 6535  13.770  11.957   9.643 -0.0397  0.1626 -0.1035
  409loPI   C2A 6536  13.688  12.006   9.194  0.0015  0.1318  0.0682
  409loPI   C3A 6537  13.642  11.950   8.826  0.0450 -0.1274 -0.0992
  409loPI   C4A 6538  13.439  11.942   8.407 -0.0781 -0.0670 -0.2372
  409loPI   C5A 6539  13.145  11.615   8.295 -0.2948  0.1169  0.2195
  409loPI   C6A 6540  12.789  11.468   8.124 -0.0069  0.3057 -0.0930
  409loPI   C1B 6541  13.532  11.538   9.538  0.0804 -0.1391  0.0566
  409loPI   C2B 6542  13.557  11.457   9.104 -0.0572  0.0303  0.0273
  409loPI   C3B 6543  13.457  11.493   8.735 -0.1903 -0.4026  0.2748
  409loPI   C4B 6544  13.576  11.372   8.339  0.0183  0.1143 -0.5085
  410loPI    C1 6545   5.373   0.944  11.239 -0.0203 -0.0069  0.1850
  410loPI    C2 6546   5.083   1.145  11.428 -0.0675 -0.0204  0.1272
  410loPI    C3 6547   5.415   1.039  11.626 -0.0381  0.1226  0.1555
  410loPI   PO4 6548   5.248   0.762  10.994  0.2211  0.2225  0.2837
  410loPI   GL1 6549   5.288   0.766  10.541 -0.1597 -0.0125  0.2990
  410loPI   GL2 6550   5.486   0.978  10.485 -0.0203 -0.0031 -0.6345
  410loPI   C1A 6551   5.100   0.877  10.144  0.2730 -0.0842  0.1603
  410loPI   C2A 6552   4.976   1.071   9.750  0.2708  0.0660  0.0889
  410loPI   C3A 6553   5.126   1.118   9.380 -0.1590 -0.0097 -0.0049
  410loPI   C4A 6554   5.074   1.115   8.976 -0.5046  0.0018 -0.1728
  410loPI   C5A 6555   5.111   1.232   8.591  0.1358  0.2342 -0.1759
  410loPI   C6A 6556   5.191   1.361   8.232  0.1543 -0.0484  0.1189
  410loPI   C1B 6557   5.562   1.171  10.023  0.1612 -0.0268 -0.1238
  410loPI   C2B 6558   5.620   1.207   9.607  0.0818 -0.0763 -0.2148
  410loPI   C3B 6559   5.592   1.117   9.199  0.0648  0.0244 -0.0019
  410loPI   C4B 6560   5.583   1.129   8.715 -0.1601  0.2907  0.0209
  411loPI    C1 6561  17.469   2.748  10.487 -0.0105  0.0218  0.0278
  411loPI    C2 6562  17.548   2.812  10.874 -0.1275  0.2093  0.0217
  411loPI    C3 6563  17.359   2.478  10.761  0.0457  0.0801  0.1083
  411loPI   PO4 6564  17.642   2.862  10.370 -0.0716 -0.2171 -0.0632
  411loPI   GL1 6565  17.828   2.659  10.030 -0.1771  0.3628  0.3536
  411loPI   GL2 6566  17.501   2.397   9.896  0.0272  0.0844  0.2013
  411loPI   C1A 6567  18.089   2.609   9.613 -0.2706 -0.4839 -0.0727
  411loPI   C2A 6568  18.115   2.608   9.154  0.2779  0.0249 -0.3762
  411loPI   C3A 6569  18.228   2.565   8.752  0.0411  0.2524 -0.0710
  411loPI   C4A 6570  18.373   2.331   8.350  0.0700  0.0169  0.0332
  411loPI   C5A 6571  18.424   2.149   8.061 -0.1144 -0.0137  0.4142
  411loPI   C6A 6572  18.394   1.919   7.620  0.0511 -0.3291  0.2462
  411loPI   C1B 6573  17.668   2.360   9.414 -0.3472  0.1967 -0.1047
  411loPI   C2B 6574  17.711   2.234   9.031 -0.3221  0.0727  0.2319
  411loPI   C3B 6575  17.869   2.170   8.691 -0.0813  0.1718 -0.0538
  411loPI   C4B 6576  17.885   2.231   8.245 -0.3396 -0.1603 -0.0766
  412loPI    C1 6577  10.504   7.518  11.000 -0.0736 -0.0485  0.0174
  412loPI    C2 6578  10.208   7.302  10.839  0.0251 -0.1393 -0.0434
  412loPI    C3 6579  10.187   7.416  11.222 -0.1891  0.0385 -0.1064
  412loPI   PO4 6580  10.597   7.684  10.861 -0.1709 -0.1138  0.3987
  412loPI   GL1 6581  10.736   7.649  10.480 -0.0025 -0.1229  0.1945
  412loPI   GL2 6582  10.736   7.979  10.457  0.3572  0.3689  0.3785
  412loPI   C1A 6583  10.536   7.397  10.197  0.4586 -0.0524  0.1580
  412loPI   C2A 6584  10.490   7.516   9.802  0.0725 -0.0199  0.0671
  412loPI   C3A 6585  10.484   7.551   9.313 -0.3692 -0.3073 -0.0940
  412loPI   C4A 6586  10.442   7.470   8.914  0.1436 -0.0011 -0.1797
  412loPI   C5A 6587  10.439   7.644   8.514  0.0567 -0.2642 -0.1542
  412loPI   C6A 6588  10.249   7.913   8.304  0.0053 -0.2074  0.1018
  412loPI   C1B 6589  10.568   7.998  10.038  0.4518 -0.2683 -0.2165
  412loPI   C2B 6590  10.699   8.224   9.643 -0.0054 -0.1424 -0.0656
  412loPI   C3B 6591  10.789   8.383   9.283 -0.0084  0.1052 -0.1555
  412loPI   C4B 6592  10.633   8.579   8.908  0.2114  0.0808 -0.2858
  413loPI    C1 6593   2.052  17.465  10.803  0.2438 -0.2531  0.1192
  413loPI    C2 6594   1.932  17.457  11.185  0.0520 -0.1609  0.0621
  413loPI    C3 6595   1.678  17.354  10.893  0.1536 -0.0932 -0.0510
  413loPI   PO4 6596   2.100  17.685  10.746 -0.2482 -0.2333 -0.0441
  413loPI   GL1 6597   2.108  17.874  10.336  0.3664 -0.2826 -0.1099
  413loPI   GL2 6598   2.183  18.188  10.337  0.0053  0.1421  0.1881
  413loPI   C1A 6599   1.905  17.813   9.976  0.0279 -0.0360 -0.1195
  413loPI   C2A 6600   1.886  17.956   9.539 -0.2218  0.1233 -0.0685
  413loPI   C3A 6601   1.901  18.090   9.225 -0.3731 -0.2508 -0.0938
  413loPI   C4A 6602   2.017  17.950   8.830 -0.0199  0.2556  0.0167
  413loPI   C5A 6603   2.110  18.070   8.445  0.1456 -0.1766  0.1658
  413loPI   C6A 6604   2.395  18.134   8.113  0.1362 -0.2403 -0.3374
  413loPI   C1B 6605   2.011  18.284   9.932 -0.0440 -0.1098 -0.1140
  413loPI   C2B 6606   2.155  18.441   9.552  0.2335 -0.0716  0.0191
  413loPI   C3B 6607   2.270  18.454   9.158 -0.1704  0.0326  0.0424
  413loPI   C4B 6608   2.266  18.437   8.798  0.0945  0.1186 -0.2386
  414loPI    C1 6609   2.080   7.187  11.405 -0.0541 -0.2782 -0.5008
  414loPI    C2 6610   1.701   7.086  11.484  0.0037 -0.1658 -0.0520
  414loPI    C3 6611   2.002   6.862  11.625  0.1091 -0.1479 -0.2451
  414loPI   PO4 6612   2.043   7.255  11.158  0.0431 -0.0426 -0.0139
  414loPI   GL1 6613   2.047   7.349  10.758 -0.1692  0.0743  0.2007
  414loPI   GL2 6614   2.228   7.128  10.694 -0.0311 -0.0329  0.1600
  414loPI   C1A 6615   2.040   7.580  10.317  0.3165 -0.0568 -0.2240
  414loPI   C2A 6616   2.062   7.642   9.915 -0.2959 -0.1232 -0.2188
  414loPI   C3A 6617   2.108   7.579   9.516  0.0848 -0.4994  0.1769
  414loPI   C4A 6618   2.103   7.511   9.084  0.2008 -0.1906 -0.1055
  414loPI   C5A 6619   2.113   7.363   8.595  0.1955  0.0707 -0.4323
  414loPI   C6A 6620   2.410   7.247   8.330  0.0798 -0.1436  0.0747
  414loPI   C1B 6621   2.235   7.112  10.325 -0.1744  0.2276 -0.0648
  414loPI   C2B 6622   2.334   7.238   9.863 -0.0466  0.0909 -0.1850
  414loPI   C3B 6623   2.367   7.163   9.377 -0.0911 -0.0276 -0.0589
  414loPI   C4B 6624   2.411   7.056   8.962 -0.2276 -0.0709  0.3798
  415loPI    C1 6625   0.971   6.633  11.065 -0.1200 -0.1264  0.1659
  415loPI    C2 6626   1.166   6.453  11.364  0.0569 -0.0379  0.1055
  415loPI    C3 6627   0.924   6.761  11.441  0.1402  0.0161  0.1531
  415loPI   PO4 6628   1.035   6.509  10.879  0.1160 -0.0981 -0.0599
  415loPI   GL1 6629   1.155   6.482  10.495 -0.0847  0.0424  0.1244
  415loPI   GL2 6630   1.353   6.680  10.409  0.1426 -0.1322 -0.1025
  415loPI   C1A 6631   1.248   6.222  10.216 -0.1136 -0.0670  0.1790
  415loPI   C2A 6632   1.396   6.122   9.724 -0.1520  0.0624  0.1436
  415loPI   C3A 6633   1.428   6.182   9.268 -0.1194 -0.0343  0.0253
  415loPI   C4A 6634   1.525   6.073   8.756 -0.0040  0.0500 -0.2264
  415loPI   C5A 6635   1.508   5.879   8.430 -0.2844 -0.2395 -0.2550
  415loPI   C6A 6636   1.226   5.622   8.213 -0.0267 -0.0348 -0.1325
  415loPI   C1B 6637   1.547   6.578   9.964  0.1483 -0.0323 -0.3377
  415loPI   C2B 6638   1.580   6.643   9.561 -0.1435  0.0028 -0.2054
  415loPI   C3B 6639   1.769   6.666   9.200 -0.2345  0.0548  0.0604
  415loPI   C4B 6640   1.782   6.533   8.783  0.1491  0.0133  0.0416
  416loPI    C1 6641   4.110  13.769  11.184  0.3794  0.1261  0.0116
  416loPI    C2 6642   3.996  14.060  11.433  0.4933  0.0705  0.1299
  416loPI    C3 6643   4.165  13.728  11.578  0.1647 -0.1520  0.0162
  416loPI   PO4 6644   4.241  13.872  10.879 -0.2031 -0.2790  0.1800
  416loPI   GL1 6645   4.354  13.562  10.514 -0.2486 -0.0330 -0.1449
  416loPI   GL2 6646   4.119  13.641  10.407 -0.1145  0.1208 -0.0864
  416loPI   C1A 6647   4.470  13.603  10.062  0.0737 -0.1208  0.0786
  416loPI   C2A 6648   4.486  13.671   9.588  0.0120  0.2260 -0.3112
  416loPI   C3A 6649   4.485  13.590   9.140 -0.1136  0.2684 -0.1404
  416loPI   C4A 6650   4.606  13.718   8.758  0.1948  0.1011 -0.2055
  416loPI   C5A 6651   4.951  13.594   8.511  0.3152 -0.0518 -0.0163
  416loPI   C6A 6652   5.253  13.905   8.334  0.1929 -0.2038 -0.0298
  416loPI   C1B 6653   4.190  14.007  10.184 -0.0768 -0.2028 -0.0519
  416loPI   C2B 6654   4.234  14.050   9.737 -0.0804  0.2469 -0.2496
  416loPI   C3B 6655   4.183  14.051   9.258  0.2358  0.1300  0.1131
  416loPI   C4B 6656   4.233  14.051   8.792 -0.2645 -0.0593  0.0292
  417loPI    C1 6657   6.730   7.692  11.540 -0.0567  0.2266 -0.1687
  417loPI    C2 6658   6.676   7.298  11.579  0.0407  0.2388  0.1159
  417loPI    C3 6659   7.040   7.456  11.629  0.0054  0.3641 -0.0140
  417loPI   PO4 6660   6.575   7.842  11.286  0.0088  0.0788  0.2853
  417loPI   GL1 6661   6.583   7.786  10.813  0.0884  0.0744  0.1583
  417loPI   GL2 6662   6.399   7.912  10.712  0.0302  0.1726 -0.0188
  417loPI   C1A 6663   6.636   7.624  10.386 -0.1073  0.0859  0.1025
  417loPI   C2A 6664   6.560   7.598   9.955  0.1192  0.2283 -0.3796
  417loPI   C3A 6665   6.565   7.570   9.560 -0.0014  0.1654 -0.2306
  417loPI   C4A 6666   6.704   7.505   9.145  0.0392  0.2275  0.0819
  417loPI   C5A 6667   6.654   7.586   8.797  0.1789  0.1381  0.2773
  417loPI   C6A 6668   6.545   7.946   8.636 -0.1408 -0.1183  0.0705
  417loPI   C1B 6669   6.269   8.042  10.397 -0.1164 -0.0067  0.0057
  417loPI   C2B 6670   6.156   8.019   9.952  0.1519  0.1443 -0.2718
  417loPI   C3B 6671   6.235   8.031   9.500  0.3154  0.1415  0.3125
  417loPI   C4B 6672   6.290   7.990   9.049  0.2777  0.1143  0.1872
  418loPI    C1 6673  14.443  10.384  11.062  0.0398 -0.1053  0.2097
  418loPI    C2 6674  14.578  10.485  11.425  0.1138 -0.0536  0.1682
  418loPI    C3 6675  14.228  10.294  11.387  0.0026  0.1306  0.2518
  418loPI   PO4 6676  14.652  10.259  10.930  0.1557  0.0532  0.2799
  418loPI   GL1 6677  14.632  10.348  10.556 -0.0213 -0.0498  0.0091
  418loPI   GL2 6678  14.346  10.550  10.583  0.0005 -0.2886  0.1061
  418loPI   C1A 6679  14.551  10.225  10.174  0.1286 -0.0008 -0.4389
  418loPI   C2A 6680  14.457  10.136   9.740  0.1548  0.0538  0.0268
  418loPI   C3A 6681  14.608  10.339   9.336 -0.1234 -0.2703  0.0719
  418loPI   C4A 6682  14.604  10.296   8.837  0.0354 -0.2193 -0.0377
  418loPI   C5A 6683  14.415  10.321   8.505 -0.1046  0.0637 -0.0599
  418loPI   C6A 6684  13.962  10.377   8.325  0.0281  0.1249 -0.1986
  418loPI   C1B 6685  14.279  10.664  10.136 -0.0675 -0.0476 -0.2695
  418loPI   C2B 6686  14.280  10.631   9.673 -0.0518  0.2635 -0.0285
  418loPI   C3B 6687  14.295  10.659   9.219  0.1091  0.0158  0.1357
  418loPI   C4B 6688  14.214  10.679   8.770  0.3024  0.1571 -0.2761
  419loPI    C1 6689  11.161   9.922  10.715  0.1265 -0.0112 -0.2065
  419loPI    C2 6690  11.259   9.673  11.012 -0.1338 -0.1477 -0.2317
  419loPI    C3 6691  11.171  10.055  11.092  0.1480 -0.0921 -0.1782
  419loPI   PO4 6692  11.337   9.821  10.532 -0.0061 -0.1788  0.0576
  419loPI   GL1 6693  11.394   9.921  10.099  0.4104  0.0059 -0.1464
  419loPI   GL2 6694  11.294   9.539  10.115  0.0147 -0.2882 -0.2862
  419loPI   C1A 6695  11.415   9.802   9.708 -0.0732 -0.3967 -0.2251
  419loPI   C2A 6696  11.251   9.864   9.345  0.1324  0.1962 -0.3186
  419loPI   C3A 6697  11.139   9.939   8.853  0.1500 -0.0519  0.1065
  419loPI   C4A 6698  10.920   9.756   8.487 -0.0460 -0.1957  0.0502
  419loPI   C5A 6699  10.612   9.732   8.141  0.1449  0.2694  0.0429
  419loPI   C6A 6700  10.182   9.570   7.927  0.0173 -0.0569 -0.2965
  419loPI   C1B 6701  11.458   9.160   9.870 -0.1626 -0.4326  0.2074
  419loPI   C2B 6702  11.491   8.948   9.501  0.1380  0.0876  0.1839
  419loPI   C3B 6703  11.544   9.007   9.091 -0.0934  0.2401 -0.2416
  419loPI   C4B 6704  11.455   9.067   8.668  0.0953 -0.2028 -0.3781
  420loPI    C1 6705   4.995   6.123  11.337  0.1014 -0.0261  0.1010
  420loPI    C2 6706   5.187   5.867  11.577  0.0640 -0.0019  0.1567
  420loPI    C3 6707   4.821   5.996  11.673 -0.0079 -0.0998  0.0173
  420loPI   PO4 6708   4.957   6.086  11.160 -0.2660  0.0549 -0.0432
  420loPI   GL1 6709   5.185   6.014  10.763  0.3034  0.3382 -0.0053
  420loPI   GL2 6710   4.959   6.088  10.690  0.3713  0.1586 -0.5702
  420loPI   C1A 6711   5.293   6.125  10.230 -0.2529  0.0377  0.1001
  420loPI   C2A 6712   5.469   6.148   9.923 -0.1912  0.0438 -0.4089
  420loPI   C3A 6713   5.387   6.135   9.589 -0.0779 -0.2484  0.0343
  420loPI   C4A 6714   5.407   6.158   9.169 -0.0744  0.2768  0.1325
  420loPI   C5A 6715   5.397   5.988   8.810  0.0216  0.2918 -0.4007
  420loPI   C6A 6716   5.234   5.652   8.641 -0.2177  0.1594 -0.1123
  420loPI   C1B 6717   4.749   6.088  10.240 -0.0818  0.0154 -0.0144
  420loPI   C2B 6718   4.934   6.088   9.758 -0.0627  0.0081  0.2865
  420loPI   C3B 6719   4.933   6.004   9.397  0.1919  0.1911 -0.1045
  420loPI   C4B 6720   4.949   6.047   8.994 -0.1556  0.0052 -0.2102
  421loPI    C1 6721   0.675   0.550  10.887 -0.0729 -0.0550 -0.1587
  421loPI    C2 6722   0.681   0.211  11.099  0.2426 -0.0067 -0.0856
  421loPI    C3 6723   0.976   0.478  11.141 -0.2495  0.5072  0.2279
  421loPI   PO4 6724   0.560   0.510  10.640  0.0031  0.0970 -0.2799
  421loPI   GL1 6725   0.467   0.629  10.256 -0.0974  0.0911 -0.2562
  421loPI   GL2 6726   0.487   0.503  10.013  0.0786 -0.1711 -0.0237
  421loPI   C1A 6727   0.966   0.651  10.116  0.3960 -0.2704 -0.1433
  421loPI   C2A 6728   1.296   0.894   9.929  0.1511 -0.1493  0.3230
  421loPI   C3A 6729   1.441   1.027   9.582 -0.0716  0.0377  0.2214
  421loPI   C4A 6730   1.635   1.357   9.198 -0.1208  0.3871  0.0105
  421loPI   C5A 6731   1.725   1.274   8.795  0.3048  0.0599  0.1260
  421loPI   C6A 6732   1.886   1.083   8.418  0.0405 -0.1821  0.3420
  421loPI   C1B 6733   0.219   0.390   9.690 -0.1175 -0.1362  0.3319
  421loPI   C2B 6734   0.109   0.324   9.337 -0.3796 -0.0863  0.0419
  421loPI   C3B 6735  -0.114   0.195   8.965 -0.0479  0.0318 -0.2234
  421loPI   C4B 6736  -0.167   0.138   8.583 -0.0912 -0.1503 -0.1302
  422loPI    C1 6737   7.977   1.287  10.822  0.2400  0.0183  0.1544
  422loPI    C2 6738   7.888   0.938  10.647  0.1770  0.0454  0.1320
  422loPI    C3 6739   7.895   0.966  11.046 -0.0677  0.0809  0.1351
  422loPI   PO4 6740   8.187   1.383  10.747 -0.1953  0.1446  0.3366
  422loPI   GL1 6741   8.203   1.567  10.425  0.1068  0.2914  0.2815
  422loPI   GL2 6742   8.436   1.836  10.304  0.1875 -0.2141 -0.2262
  422loPI   C1A 6743   8.203   1.369  10.086  0.3458  0.1435  0.1243
  422loPI   C2A 6744   8.095   1.324   9.667 -0.0621  0.2077 -0.0306
  422loPI   C3A 6745   8.101   1.480   9.231  0.0752 -0.1153  0.0172
  422loPI   C4A 6746   8.202   1.421   8.782  0.1343  0.0881  0.1549
  422loPI   C5A 6747   8.231   1.573   8.343 -0.0400  0.2177 -0.1547
  422loPI   C6A 6748   8.366   1.243   8.039  0.1744  0.0355  0.1850
  422loPI   C1B 6749   8.379   1.856   9.938 -0.0794  0.1353  0.2537
  422loPI   C2B 6750   8.329   1.845   9.472  0.0894 -0.3283  0.0268
  422loPI   C3B 6751   8.383   1.937   8.983 -0.1665  0.0481  0.1835
  422loPI   C4B 6752   8.421   1.903   8.635 -0.0925  0.1015 -0.1471
  423loPI    C1 6753   7.654   9.321  10.984  0.0979 -0.0540 -0.2167
  423loPI    C2 6754   7.984   9.466  11.158  0.0944 -0.0382 -0.2233
  423loPI    C3 6755   7.844   9.107  11.264  0.1123 -0.0437 -0.2185
  423loPI   PO4 6756   7.806   9.365  10.698 -0.0236 -0.0487  0.1133
  423loPI   GL1 6757   7.841   9.442  10.383  0.2661  0.3244  0.1083
  423loPI   GL2 6758   8.083   9.120  10.343 -0.1832 -0.0253  0.0021
  423loPI   C1A 6759   7.931   9.426   9.961  0.1201  0.0229  0.1122
  423loPI   C2A 6760   8.085   9.534   9.515  0.1167 -0.2026 -0.0660
  423loPI   C3A 6761   8.027   9.526   9.005  0.2491  0.1137 -0.0063
  423loPI   C4A 6762   7.955   9.675   8.495 -0.0976  0.0073  0.0507
  423loPI   C5A 6763   8.053   9.879   8.153  0.1983 -0.1893  0.2768
  423loPI   C6A 6764   8.154  10.027   7.746 -0.0151  0.0222  0.1273
  423loPI   C1B 6765   8.241   9.077   9.870  0.3090  0.2406  0.2555
  423loPI   C2B 6766   8.393   9.162   9.493  0.2676  0.4134 -0.3036
  423loPI   C3B 6767   8.356   9.140   9.061 -0.0891  0.2590 -0.1749
  423loPI   C4B 6768   8.455   9.033   8.701  0.2231  0.4238 -0.3448
  424loPI    C1 6769  10.218   6.664  11.080 -0.1552 -0.1508  0.0996
  424loPI    C2 6770   9.988   6.868  10.824  0.0001  0.0807  0.1417
  424loPI    C3 6771   9.969   6.945  11.216 -0.0498 -0.0928  0.1742
  424loPI   PO4 6772  10.469   6.701  10.918  0.2813  0.3266  0.1543
  424loPI   GL1 6773  10.393   6.718  10.561 -0.4139  0.1905 -0.0056
  424loPI   GL2 6774  10.586   6.549  10.441 -0.1006  0.2417 -0.1802
  424loPI   C1A 6775  10.270   6.884  10.221 -0.1887  0.1042 -0.0152
  424loPI   C2A 6776  10.201   7.024   9.821  0.0427 -0.5114  0.0282
  424loPI   C3A 6777  10.291   7.090   9.335  0.1349  0.1253  0.1644
  424loPI   C4A 6778  10.231   7.039   8.904 -0.4133  0.1500  0.2604
  424loPI   C5A 6779  10.137   7.144   8.487 -0.1029  0.1011 -0.1118
  424loPI   C6A 6780   9.986   7.455   8.241 -0.1790  0.2135  0.0934
  424loPI   C1B 6781  10.523   6.557   9.958  0.0096  0.1615 -0.3486
  424loPI   C2B 6782  10.498   6.649   9.544  0.0511 -0.1815 -0.1065
  424loPI   C3B 6783  10.475   6.630   9.071 -0.2327 -0.0418 -0.2603
  424loPI   C4B 6784  10.516   6.727   8.621 -0.2012 -0.3189 -0.1353
  425loPI    C1 6785  14.799  17.697  10.483  0.1236  0.0005 -0.1854
  425loPI    C2 6786  14.854  17.900  10.823  0.2144  0.2309 -0.3359
  425loPI    C3 6787  15.083  17.583  10.741 -0.1889 -0.1842  0.0853
  425loPI   PO4 6788  14.588  17.911  10.416 -0.0700 -0.0266  0.0791
  425loPI   GL1 6789  14.389  17.863  10.079 -0.5686 -0.1801 -0.3284
  425loPI   GL2 6790  14.577  17.622  10.042 -0.3463  0.1672 -0.1885
  425loPI   C1A 6791  14.149  17.924   9.687 -0.3094  0.2003 -0.0575
  425loPI   C2A 6792  14.199  18.024   9.282 -0.1706 -0.0564  0.1995
  425loPI   C3A 6793  14.194  17.945   8.845  0.0166 -0.1129  0.1185
  425loPI   C4A 6794  14.316  18.332   8.503 -0.1663 -0.0198  0.1545
  425loPI   C5A 6795  14.516  18.766   8.321  0.0753  0.1371  0.0284
  425loPI   C6A 6796  14.662  19.143   8.353 -0.0483 -0.0531 -0.1859
  425loPI   C1B 6797  14.579  17.624   9.589  0.2349  0.0926 -0.2016
  425loPI   C2B 6798  14.476  17.504   9.278  0.0500 -0.0914 -0.3893
  425loPI   C3B 6799  14.521  17.596   8.819  0.2746 -0.1929 -0.1769
  425loPI   C4B 6800  14.458  17.564   8.414  0.1877  0.1337  0.0263
  426loPI    C1 6801   1.917  16.913  10.821  0.0879 -0.2628 -0.0649
  426loPI    C2 6802   2.268  16.722  10.810  0.0554 -0.3202 -0.1158
  426loPI    C3 6803   2.044  16.711  11.142  0.2235 -0.0621  0.0104
  426loPI   PO4 6804   1.941  17.030  10.526 -0.0062 -0.1536  0.2624
  426loPI   GL1 6805   2.008  17.381  10.193 -0.0955  0.4467  0.0932
  426loPI   GL2 6806   1.848  17.156  10.016  0.0470  0.1873 -0.2141
  426loPI   C1A 6807   2.231  17.527   9.757  0.1282 -0.1853 -0.0489
  426loPI   C2A 6808   2.233  17.558   9.327 -0.0430  0.1377  0.3653
  426loPI   C3A 6809   2.424  17.202   9.179 -0.1029 -0.0431 -0.1177
  426loPI   C4A 6810   2.553  17.118   8.813 -0.3891 -0.0013 -0.0444
  426loPI   C5A 6811   2.422  16.966   8.374 -0.2471 -0.1816  0.2132
  426loPI   C6A 6812   2.238  17.194   8.130  0.2061  0.1689  0.1183
  426loPI   C1B 6813   1.655  17.492   9.703  0.0611 -0.0213 -0.0505
  426loPI   C2B 6814   1.732  17.593   9.192 -0.0260 -0.1617 -0.2780
  426loPI   C3B 6815   1.397  17.459   8.947 -0.1595  0.3758  0.1314
  426loPI   C4B 6816   1.289  17.199   8.511  0.2040  0.2417  0.0939
  427loPI    C1 6817   7.213   3.980  11.166 -0.1444 -0.1040  0.0086
  427loPI    C2 6818   7.194   3.582  11.204  0.2388 -0.1308 -0.0446
  427loPI    C3 6819   7.332   3.805  11.506 -0.1399 -0.0191  0.0510
  427loPI   PO4 6820   7.131   4.049  10.902 -0.0230  0.1411 -0.3644
  427loPI   GL1 6821   7.393   4.280  10.629 -0.0115  0.0465  0.1797
  427loPI   GL2 6822   7.597   4.467  10.440 -0.1204  0.3276 -0.1135
  427loPI   C1A 6823   7.341   4.078  10.189  0.0644  0.1924 -0.0814
  427loPI   C2A 6824   7.426   3.993   9.754 -0.0296  0.1951  0.0509
  427loPI   C3A 6825   7.473   4.028   9.330  0.0254 -0.1583 -0.0332
  427loPI   C4A 6826   7.369   4.009   8.899  0.1068 -0.2376  0.1412
  427loPI   C5A 6827   7.141   3.685   8.627  0.0739 -0.0465 -0.2408
  427loPI   C6A 6828   6.903   3.351   8.353 -0.1090 -0.1267  0.2322
  427loPI   C1B 6829   7.537   4.517  10.049  0.2454  0.1581 -0.1165
  427loPI   C2B 6830   7.647   4.440   9.633 -0.0597 -0.1868  0.2436
  427loPI   C3B 6831   7.632   4.453   9.151 -0.0377 -0.1917  0.2704
  427loPI   C4B 6832   7.595   4.619   8.723  0.1869  0.1216 -0.1099
  428loPI    C1 6833   8.539  13.110  10.935  0.1539  0.0210 -0.1042
  428loPI    C2 6834   8.749  12.800  11.077  0.0606 -0.0288 -0.0739
  428loPI    C3 6835   8.669  13.113  11.313 -0.0761 -0.1020 -0.0221
  428loPI   PO4 6836   8.483  13.061  10.782  0.2261  0.2117  0.1269
  428loPI   GL1 6837   8.327  12.873  10.497 -0.1873 -0.0403 -0.1561
  428loPI   GL2 6838   8.074  13.040  10.431 -0.3781 -0.0527 -0.0555
  428loPI   C1A 6839   8.207  12.783   9.993 -0.0340  0.1739  0.0248
  428loPI   C2A 6840   7.927  12.658   9.649  0.0944 -0.0062 -0.1710
  428loPI   C3A 6841   8.001  12.631   9.176 -0.1499 -0.0410 -0.1365
  428loPI   C4A 6842   7.806  12.602   8.705 -0.0987  0.1280  0.0637
  428loPI   C5A 6843   7.784  12.986   8.408  0.1481  0.0345 -0.1249
  428loPI   C6A 6844   7.746  13.256   8.082 -0.1260  0.0771  0.0974
  428loPI   C1B 6845   8.135  13.289  10.007  0.2073  0.1504  0.0148
  428loPI   C2B 6846   8.162  13.122   9.553 -0.1293  0.1670  0.0083
  428loPI   C3B 6847   8.115  13.152   9.120  0.2622  0.1045 -0.0349
  428loPI   C4B 6848   8.116  13.000   8.742  0.2468  0.2682  0.0805
  429loPI    C1 6849  12.995  10.956  10.992  0.0513 -0.2601 -0.1721
  429loPI    C2 6850  13.360  11.103  10.924  0.0311 -0.2011 -0.1535
  429loPI    C3 6851  13.318  10.750  11.107  0.0763 -0.1373 -0.0183
  429loPI   PO4 6852  12.891  11.016  10.736 -0.2204 -0.1627 -0.0559
  429loPI   GL1 6853  12.606  11.223  10.491 -0.0878  0.3429 -0.0138
  429loPI   GL2 6854  12.557  11.545  10.474  0.2946  0.0827  0.1510
  429loPI   C1A 6855  12.668  11.318   9.993 -0.1340  0.0579  0.1942
  429loPI   C2A 6856  12.465  11.289   9.604 -0.0828 -0.1744  0.2152
  429loPI   C3A 6857  12.357  11.319   9.128 -0.0617 -0.0040 -0.0304
  429loPI   C4A 6858  12.413  11.371   8.752 -0.0613  0.2898 -0.0175
  429loPI   C5A 6859  12.328  11.289   8.379 -0.0007  0.0767 -0.0071
  429loPI   C6A 6860  12.221  11.417   8.034  0.2274 -0.3359 -0.2291
  429loPI   C1B 6861  12.326  11.695  10.151 -0.1494 -0.0659  0.2533
  429loPI   C2B 6862  12.203  11.793   9.726  0.0030  0.0964 -0.0729
  429loPI   C3B 6863  12.030  11.686   9.323  0.3068 -0.2323  0.2951
  429loPI   C4B 6864  12.045  11.648   8.919 -0.3013  0.4493  0.2086
  430loPI    C1 6865   7.425  13.352  10.982 -0.1435  0.0704  0.0046
  430loPI    C2 6866   7.301  13.605  11.266  0.0750 -0.0631  0.2229
  430loPI    C3 6867   7.418  13.235  11.364  0.2672 -0.0716 -0.0264
  430loPI   PO4 6868   7.263  13.478  10.727  0.3599  0.2350 -0.0069
  430loPI   GL1 6869   7.298  13.702  10.397  0.2230 -0.1589  0.1870
  430loPI   GL2 6870   7.520  13.989  10.273  0.0597 -0.0153  0.1759
  430loPI   C1A 6871   7.059  13.791   9.981  0.2945 -0.0241 -0.0586
  430loPI   C2A 6872   7.016  13.928   9.609 -0.2101  0.2872 -0.0826
  430loPI   C3A 6873   7.095  13.866   9.208  0.1574 -0.1275  0.0377
  430loPI   C4A 6874   7.183  13.825   8.762  0.0351  0.0622 -0.0160
  430loPI   C5A 6875   7.178  13.842   8.358 -0.1068 -0.0189 -0.1366
  430loPI   C6A 6876   7.076  14.083   7.972  0.0397  0.0351 -0.1118
  430loPI   C1B 6877   7.727  13.913   9.874 -0.1298 -0.2312  0.1733
  430loPI   C2B 6878   7.610  13.972   9.386  0.3121  0.3203  0.0376
  430loPI   C3B 6879   7.693  13.938   8.924 -0.1597  0.2124 -0.1213
  430loPI   C4B 6880   7.634  13.917   8.554  0.1436 -0.1417  0.1620
  431loPI    C1 6881  14.929   1.431  10.398 -0.0057  0.1208 -0.1843
  431loPI    C2 6882  15.183   1.696  10.558 -0.1576  0.0851  0.1223
  431loPI    C3 6883  14.885   1.545  10.779 -0.2144 -0.1648 -0.1198
  431loPI   PO4 6884  15.153   1.289  10.275 -0.0325 -0.0581 -0.5384
  431loPI   GL1 6885  15.353   1.332  10.018  0.0268  0.1996  0.0747
  431loPI   GL2 6886  15.596   1.404   9.926 -0.1611 -0.0383  0.3942
  431loPI   C1A 6887  15.279   1.387   9.501  0.1175  0.0362 -0.0633
  431loPI   C2A 6888  15.344   1.355   9.043  0.2219 -0.1426  0.0420
  431loPI   C3A 6889  15.439   1.523   8.694 -0.2493  0.0657  0.0136
  431loPI   C4A 6890  15.697   1.897   8.409 -0.0752 -0.0233  0.1175
  431loPI   C5A 6891  16.133   2.168   8.395 -0.1499  0.2346 -0.2275
  431loPI   C6A 6892  16.124   2.632   8.280 -0.4887 -0.1473 -0.2001
  431loPI   C1B 6893  15.569   1.751   9.611 -0.2947 -0.1887  0.0480
  431loPI   C2B 6894  15.604   2.165   9.405 -0.3560 -0.1663  0.0283
  431loPI   C3B 6895  15.598   2.485   9.174 -0.2840 -0.0877  0.2894
  431loPI   C4B 6896  15.342   2.775   9.029  0.0948  0.2192  0.0120
  432loPI    C1 6897  11.231   4.465  10.900 -0.2175  0.0652  0.1877
  432loPI    C2 6898  11.406   4.777  11.079  0.0155  0.0531 -0.0140
  432loPI    C3 6899  11.007   4.750  11.069 -0.0078  0.3539 -0.0108
  432loPI   PO4 6900  11.419   4.500  10.648  0.2362 -0.1202 -0.1849
  432loPI   GL1 6901  11.483   4.211  10.377 -0.1628 -0.0821 -0.0402
  432loPI   GL2 6902  11.159   4.114  10.328 -0.2703 -0.3424 -0.1605
  432loPI   C1A 6903  11.583   4.442   9.900  0.4364  0.1436  0.0588
  432loPI   C2A 6904  11.681   4.415   9.451  0.2565  0.0642 -0.2518
  432loPI   C3A 6905  11.634   4.524   9.008 -0.2209 -0.1615  0.1099
  432loPI   C4A 6906  11.598   4.472   8.606  0.0623  0.2490  0.2358
  432loPI   C5A 6907  11.433   4.600   8.231  0.0546 -0.1322  0.0852
  432loPI   C6A 6908  11.243   4.900   8.146  0.0267 -0.1638  0.0615
  432loPI   C1B 6909  11.332   3.943   9.975  0.1617 -0.2013 -0.0115
  432loPI   C2B 6910  11.436   3.963   9.598 -0.2872  0.1560 -0.2064
  432loPI   C3B 6911  11.407   3.957   9.082 -0.1525 -0.1499  0.0599
  432loPI   C4B 6912  11.369   4.018   8.662 -0.0889  0.1266 -0.1934
  433loPI    C1 6913  15.063   5.819  10.900  0.0634 -0.0080 -0.0549
  433loPI    C2 6914  15.181   6.201  10.904 -0.0819  0.0364  0.2082
  433loPI    C3 6915  15.386   5.926  11.110  0.0350 -0.0338  0.0021
  433loPI   PO4 6916  14.972   5.882  10.611 -0.0496  0.1403 -0.1175
  433loPI   GL1 6917  14.897   6.013  10.081 -0.0761  0.0422 -0.3700
  433loPI   GL2 6918  15.060   5.703  10.116  0.2047 -0.1952 -0.0552
  433loPI   C1A 6919  14.915   6.109   9.676  0.0414 -0.0864  0.1474
  433loPI   C2A 6920  14.772   6.132   9.342  0.1464  0.0983 -0.0252
  433loPI   C3A 6921  14.676   6.180   8.934 -0.4875 -0.0209 -0.2130
  433loPI   C4A 6922  14.764   6.159   8.483  0.0824 -0.2185  0.0009
  433loPI   C5A 6923  15.172   6.104   8.171  0.0559  0.2274  0.4882
  433loPI   C6A 6924  15.529   6.303   8.204  0.2013 -0.3093 -0.1466
  433loPI   C1B 6925  15.103   5.598   9.750 -0.0984  0.1322  0.4800
  433loPI   C2B 6926  15.131   5.678   9.341  0.1513  0.1964  0.1731
  433loPI   C3B 6927  14.993   5.799   8.873  0.1881 -0.2922  0.1394
  433loPI   C4B 6928  15.157   5.815   8.518  0.2166 -0.1516  0.0229
  434loPI    C1 6929   8.382   0.802  11.200  0.1289 -0.0261 -0.1002
  434loPI    C2 6930   8.357   1.196  11.138 -0.0843 -0.0321 -0.0582
  434loPI    C3 6931   8.609   1.053  11.413  0.2476  0.0499 -0.3123
  434loPI   PO4 6932   8.353   0.708  10.890  0.0232 -0.0524 -0.0341
  434loPI   GL1 6933   8.342   0.744  10.466  0.0880 -0.0070 -0.1191
  434loPI   GL2 6934   8.378   1.060  10.398  0.1009 -0.2091 -0.0647
  434loPI   C1A 6935   7.981   0.873  10.160 -0.1196 -0.1251 -0.0436
  434loPI   C2A 6936   7.901   0.875   9.731 -0.5302  0.6006 -0.2424
  434loPI   C3A 6937   8.000   0.967   9.314  0.1175 -0.2123  0.0102
  434loPI   C4A 6938   7.963   0.981   8.878  0.3284 -0.1618  0.2285
  434loPI   C5A 6939   8.022   1.049   8.446  0.1373  0.1830  0.1610
  434loPI   C6A 6940   7.897   0.772   8.116 -0.0428 -0.0919  0.1689
  434loPI   C1B 6941   8.393   0.949   9.923  0.0189  0.1762 -0.0931
  434loPI   C2B 6942   8.415   0.951   9.541 -0.1532 -0.0719  0.4075
  434loPI   C3B 6943   8.402   1.049   9.050 -0.0527 -0.1317  0.0431
  434loPI   C4B 6944   8.554   0.977   8.595 -0.0807  0.0209  0.0508
  435loPI    C1 6945   7.056   8.005  11.269  0.2974 -0.2043 -0.1316
  435loPI    C2 6946   7.368   7.891  11.492  0.2826  0.0556  0.0256
  435loPI    C3 6947   7.252   8.274  11.490 -0.0370 -0.0383 -0.0301
  435loPI   PO4 6948   7.040   7.920  11.048 -0.1768 -0.0987 -0.0384
  435loPI   GL1 6949   7.224   7.989  10.700  0.1338 -0.1456  0.1706
  435loPI   GL2 6950   7.124   7.736  10.529 -0.1035  0.1046 -0.2112
  435loPI   C1A 6951   7.305   8.115  10.311  0.2877 -0.2049 -0.0703
  435loPI   C2A 6952   7.409   8.123   9.865  0.1867  0.2037 -0.2229
  435loPI   C3A 6953   7.506   8.125   9.423  0.1881 -0.1860 -0.0548
  435loPI   C4A 6954   7.366   8.213   8.967  0.0069 -0.1240  0.0212
  435loPI   C5A 6955   7.440   8.235   8.518 -0.0959 -0.3506  0.1423
  435loPI   C6A 6956   7.529   8.339   8.175 -0.2150 -0.0256  0.4069
  435loPI   C1B 6957   7.110   7.692  10.051  0.1194  0.1969  0.0412
  435loPI   C2B 6958   7.197   7.627   9.478  0.0434  0.0708 -0.0298
  435loPI   C3B 6959   7.167   7.681   9.008  0.1811  0.0581 -0.0395
  435loPI   C4B 6960   7.043   7.928   8.658 -0.0415  0.1364 -0.1381
  436loPI    C1 6961   8.673   4.409  11.218 -0.2145 -0.3297  0.1084
  436loPI    C2 6962   8.429   4.571  11.491 -0.0709 -0.0616  0.0818
  436loPI    C3 6963   8.630   4.236  11.576 -0.3254 -0.1970  0.1604
  436loPI   PO4 6964   8.545   4.408  10.946 -0.0265 -0.0609 -0.4940
  436loPI   GL1 6965   8.397   4.631  10.503 -0.0846 -0.0629 -0.1133
  436loPI   GL2 6966   8.618   4.426  10.471  0.2618 -0.2146 -0.3474
  436loPI   C1A 6967   8.253   4.966  10.113  0.1852  0.1059  0.1637
  436loPI   C2A 6968   8.350   5.056   9.624 -0.1617  0.0411  0.2442
  436loPI   C3A 6969   8.331   5.001   9.217 -0.0201 -0.2602  0.1548
  436loPI   C4A 6970   8.450   5.003   8.800  0.0983  0.0109 -0.0580
  436loPI   C5A 6971   8.379   4.781   8.410  0.0273 -0.4118 -0.3556
  436loPI   C6A 6972   8.029   4.585   8.260 -0.1062 -0.0309 -0.0159
  436loPI   C1B 6973   8.576   4.421  10.108  0.2015 -0.2141  0.0674
  436loPI   C2B 6974   8.599   4.602   9.725  0.0674 -0.1035 -0.3525
  436loPI   C3B 6975   8.592   4.592   9.266  0.1386  0.2160  0.2149
  436loPI   C4B 6976   8.687   4.618   8.814 -0.0811 -0.0047 -0.1255
  437loPI    C1 6977  12.917   6.550  10.736  0.0144  0.0009 -0.0006
  437loPI    C2 6978  12.812   6.914  10.608 -0.2654 -0.1168 -0.1153
  437loPI    C3 6979  13.012   6.872  10.953 -0.1849  0.1469 -0.1276
  437loPI   PO4 6980  13.072   6.473  10.579  0.1446 -0.0435  0.0499
  437loPI   GL1 6981  13.237   6.486  10.289 -0.0512 -0.0595  0.0039
  437loPI   GL2 6982  13.108   6.863  10.231  0.0567  0.0486  0.1817
  437loPI   C1A 6983  13.079   6.362   9.908  0.0718  0.0048  0.0949
  437loPI   C2A 6984  12.873   6.415   9.412 -0.0602  0.1362  0.1671
  437loPI   C3A 6985  12.838   6.381   9.003 -0.1996  0.1365 -0.1785
  437loPI   C4A 6986  12.805   6.379   8.616 -0.0895 -0.1476  0.0151
  437loPI   C5A 6987  12.680   6.131   8.314 -0.1842  0.0482 -0.0049
  437loPI   C6A 6988  12.665   6.097   7.935  0.0426 -0.0050 -0.0169
  437loPI   C1B 6989  13.216   6.869   9.818 -0.1002  0.1039  0.0825
  437loPI   C2B 6990  13.120   6.931   9.433  0.3706  0.1117 -0.0758
  437loPI   C3B 6991  13.020   6.963   8.978  0.2724  0.0815  0.2759
  437loPI   C4B 6992  12.986   6.884   8.509 -0.3264  0.1032  0.2290
  438loPI    C1 6993  17.740   7.522  10.957 -0.1994 -0.0245 -0.1064
  438loPI    C2 6994  17.634   7.232  11.212 -0.2740  0.1331  0.0436
  438loPI    C3 6995  17.689   7.605  11.345  0.1531  0.1220 -0.0874
  438loPI   PO4 6996  17.583   7.528  10.750 -0.1849 -0.3589  0.1978
  438loPI   GL1 6997  17.696   7.419  10.310 -0.1543  0.1181 -0.1011
  438loPI   GL2 6998  17.623   7.089  10.194  0.3126 -0.0478  0.1182
  438loPI   C1A 6999  17.728   7.393   9.850  0.4151 -0.0682 -0.1979
  438loPI   C2A 7000  17.817   7.649   9.573 -0.1926  0.1424 -0.0769
  438loPI   C3A 7001  18.029   7.806   9.308  0.1282  0.0915 -0.1869
  438loPI   C4A 7002  18.152   7.581   8.909  0.1309  0.1839 -0.3778
  438loPI   C5A 7003  18.187   7.629   8.516  0.1636  0.0121 -0.1542
  438loPI   C6A 7004  18.147   7.730   8.057  0.1586 -0.1297 -0.1256
  438loPI   C1B 7005  17.663   6.904   9.757 -0.1538  0.4406 -0.1550
  438loPI   C2B 7006  17.813   7.097   9.416 -0.0453 -0.3351 -0.2516
  438loPI   C3B 7007  17.659   7.521   9.098  0.0816  0.1164  0.0094
  438loPI   C4B 7008  17.349   7.540   8.702 -0.0817 -0.1049 -0.2373
  439loPI    C1 7009  15.439   7.529  10.964  0.0436 -0.0637  0.0290
  439loPI    C2 7010  15.188   7.401  11.248 -0.0232  0.1771  0.0804
  439loPI    C3 7011  15.567   7.491  11.341  0.0774 -0.1573  0.0084
  439loPI   PO4 7012  15.216   7.620  10.815 -0.2182 -0.0451  0.1558
  439loPI   GL1 7013  15.039   7.715  10.363  0.2579 -0.1278 -0.1011
  439loPI   GL2 7014  15.258   7.504  10.270 -0.0375 -0.1980  0.0237
  439loPI   C1A 7015  14.875   7.960  10.074  0.0459  0.0127  0.3222
  439loPI   C2A 7016  14.703   7.910   9.663  0.2975  0.1245 -0.0913
  439loPI   C3A 7017  14.518   8.033   9.206 -0.1120  0.0004  0.2686
  439loPI   C4A 7018  14.458   8.077   8.782  0.0843  0.1607  0.0513
  439loPI   C5A 7019  14.343   8.081   8.359 -0.0590 -0.1770 -0.2430
  439loPI   C6A 7020  14.271   7.954   8.009  0.0688  0.0402  0.1420
  439loPI   C1B 7021  15.104   7.400   9.993  0.3487  0.1919 -0.1851
  439loPI   C2B 7022  15.049   7.562   9.569  0.0362 -0.2690  0.0618
  439loPI   C3B 7023  14.903   7.574   9.154  0.1039 -0.0082  0.0941
  439loPI   C4B 7024  14.733   7.609   8.706  0.0637  0.0937  0.2522
  440loPI    C1 7025   3.659  14.652  10.996  0.1651 -0.1025 -0.0003
  440loPI    C2 7026   3.682  14.259  11.071  0.2312 -0.1451 -0.2341
  440loPI    C3 7027   3.340  14.417  10.936  0.1532 -0.0915  0.0204
  440loPI   PO4 7028   3.800  14.713  10.786 -0.1476 -0.1629 -0.1574
  440loPI   GL1 7029   3.815  14.632  10.323 -0.2080 -0.1329  0.2651
  440loPI   GL2 7030   3.526  14.722  10.144  0.0395  0.0701  0.0698
  440loPI   C1A 7031   3.927  14.519   9.891  0.0877 -0.1016 -0.2258
  440loPI   C2A 7032   3.911  14.497   9.358  0.0531 -0.0381 -0.3493
  440loPI   C3A 7033   3.966  14.479   9.004  0.3405  0.1734 -0.2389
  440loPI   C4A 7034   4.108  14.537   8.643 -0.0737 -0.0372  0.2501
  440loPI   C5A 7035   3.991  14.631   8.184  0.0240  0.1909 -0.1654
  440loPI   C6A 7036   3.888  15.047   7.966 -0.1668  0.0153 -0.0542
  440loPI   C1B 7037   3.459  14.577   9.726  0.2353 -0.2089  0.2813
  440loPI   C2B 7038   3.408  14.540   9.259  0.2330 -0.0344  0.0846
  440loPI   C3B 7039   3.498  14.507   8.843 -0.1747  0.0898 -0.1927
  440loPI   C4B 7040   3.588  14.354   8.483  0.2813 -0.4158 -0.0524
  441loPI    C1 7041   3.569   2.078  10.982 -0.0399 -0.0945  0.0509
  441loPI    C2 7042   3.487   2.466  11.033 -0.1779 -0.1399  0.1802
  441loPI    C3 7043   3.772   2.292  11.253 -0.1487 -0.1228  0.1558
  441loPI   PO4 7044   3.544   2.019  10.650  0.4225  0.0715 -0.0179
  441loPI   GL1 7045   3.750   2.151  10.211 -0.0932 -0.1690  0.0547
  441loPI   GL2 7046   3.743   1.833  10.213 -0.1163 -0.3919  0.1538
  441loPI   C1A 7047   3.448   2.382   9.944  0.0948  0.2751 -0.0044
  441loPI   C2A 7048   3.555   2.387   9.560 -0.3467  0.0085 -0.0364
  441loPI   C3A 7049   3.682   2.363   9.078  0.3623 -0.0742 -0.1132
  441loPI   C4A 7050   3.804   2.313   8.640 -0.0196 -0.0265  0.1670
  441loPI   C5A 7051   3.852   2.344   8.189 -0.0374 -0.1205  0.0589
  441loPI   C6A 7052   4.216   2.600   8.121  0.2122  0.2999 -0.3870
  441loPI   C1B 7053   3.802   1.928   9.720 -0.3387 -0.0020  0.1862
  441loPI   C2B 7054   3.941   1.939   9.251  0.1577  0.1024  0.1984
  441loPI   C3B 7055   3.985   1.901   8.878 -0.3836 -0.0240 -0.1593
  441loPI   C4B 7056   4.193   1.989   8.480  0.2194  0.0212 -0.3550
  442loPI    C1 7057   5.698   7.493  11.535 -0.0674 -0.0530  0.0919
  442loPI    C2 7058   5.394   7.288  11.695 -0.2254  0.0519 -0.0709
  442loPI    C3 7059   5.385   7.688  11.690 -0.0358  0.0581  0.0169
  442loPI   PO4 7060   5.786   7.438  11.292  0.0934 -0.0822  0.0480
  442loPI   GL1 7061   5.607   7.214  10.905 -0.1820 -0.0281 -0.2563
  442loPI   GL2 7062   5.470   6.884  10.874 -0.1874  0.1650 -0.3660
  442loPI   C1A 7063   5.781   7.156  10.501 -0.0340  0.4533  0.0204
  442loPI   C2A 7064   5.837   7.068  10.065  0.0083  0.2427  0.2168
  442loPI   C3A 7065   5.872   7.065   9.585  0.0088 -0.0571  0.1727
  442loPI   C4A 7066   5.974   7.021   9.168  0.2898 -0.1877 -0.0005
  442loPI   C5A 7067   5.876   6.908   8.771  0.0473  0.1533  0.1296
  442loPI   C6A 7068   6.037   6.558   8.512  0.1963 -0.1355  0.4413
  442loPI   C1B 7069   5.315   6.988  10.452 -0.0611 -0.1971 -0.4518
  442loPI   C2B 7070   5.340   6.997  10.033  0.1001  0.1542  0.1132
  442loPI   C3B 7071   5.376   6.943   9.585 -0.0816 -0.2104 -0.3250
  442loPI   C4B 7072   5.406   6.893   9.092  0.1203 -0.2517  0.0826
  443loPI    C1 7073   0.335  12.339  10.900  0.2956  0.1238 -0.0781
  443loPI    C2 7074   0.543  12.514  11.194  0.1028  0.0950  0.0776
  443loPI    C3 7075   0.478  12.119  11.202 -0.1632  0.1385  0.1585
  443loPI   PO4 7076   0.284  12.695  10.713  0.2079  0.1232 -0.0647
  443loPI   GL1 7077   0.389  13.088  10.279 -0.1790 -0.0844  0.0600
  443loPI   GL2 7078   0.621  12.897  10.260 -0.2418 -0.3205 -0.1668
  443loPI   C1A 7079   0.098  13.023   9.911 -0.2121  0.2587  0.0457
  443loPI   C2A 7080  -0.337  13.006   9.628 -0.3431  0.0981 -0.0951
  443loPI   C3A 7081  -0.439  12.804   9.240 -0.1587  0.1922 -0.1574
  443loPI   C4A 7082  -0.453  12.612   8.907 -0.2261 -0.4735 -0.1051
  443loPI   C5A 7083  -0.669  12.381   8.642 -0.0296 -0.1836  0.0985
  443loPI   C6A 7084  -0.526  12.053   8.399 -0.2194 -0.1149  0.0376
  443loPI   C1B 7085   0.644  12.872   9.824  0.0806 -0.1894 -0.0650
  443loPI   C2B 7086   0.605  12.988   9.363 -0.1592 -0.2212 -0.0652
  443loPI   C3B 7087   0.581  12.911   8.993 -0.1964  0.1459  0.3655
  443loPI   C4B 7088   0.691  12.878   8.558 -0.2346  0.1044  0.1178
  444loPI    C1 7089   8.336  16.094  10.896 -0.3212  0.2126  0.0166
  444loPI    C2 7090   8.592  15.855  11.089 -0.2014  0.1446 -0.2221
  444loPI    C3 7091   8.226  15.919  11.238 -0.2650 -0.2558 -0.1975
  444loPI   PO4 7092   8.350  16.023  10.663  0.0254 -0.0415  0.1887
  444loPI   GL1 7093   8.122  16.176  10.379 -0.3636 -0.1516  0.1840
  444loPI   GL2 7094   7.882  15.908  10.342 -0.1270 -0.4410 -0.1910
  444loPI   C1A 7095   8.205  16.223  10.020 -0.1647  0.1445 -0.0223
  444loPI   C2A 7096   8.154  16.213   9.590 -0.2050 -0.1196 -0.0150
  444loPI   C3A 7097   8.165  16.214   9.177  0.0502  0.1657 -0.1674
  444loPI   C4A 7098   8.240  16.285   8.781 -0.1238  0.1701 -0.2187
  444loPI   C5A 7099   8.207  16.358   8.419 -0.1201  0.2163  0.0167
  444loPI   C6A 7100   8.042  16.671   8.185  0.3861 -0.0628 -0.1689
  444loPI   C1B 7101   7.893  15.779   9.815 -0.2403 -0.3456 -0.0762
  444loPI   C2B 7102   7.875  15.744   9.389  0.0240  0.0710 -0.1072
  444loPI   C3B 7103   8.032  15.767   8.924  0.0990 -0.1198  0.1403
  444loPI   C4B 7104   7.999  15.879   8.404  0.1892  0.0060 -0.4512
  445loPI    C1 7105  14.144   8.473  11.085  0.1402  0.1646  0.0102
  445loPI    C2 7106  14.344   8.810  11.003  0.2039  0.1395  0.0619
  445loPI    C3 7107  14.150   8.772  11.351  0.3248  0.0638  0.1219
  445loPI   PO4 7108  14.105   8.404  10.814  0.2068 -0.0827  0.0409
  445loPI   GL1 7109  14.045   8.329  10.448  0.0112 -0.0155 -0.2494
  445loPI   GL2 7110  13.956   8.003  10.370  0.1804 -0.0314 -0.1065
  445loPI   C1A 7111  14.315   8.319  10.112  0.0874  0.0572 -0.2491
  445loPI   C2A 7112  14.242   8.431   9.624 -0.0131 -0.1011  0.2256
  445loPI   C3A 7113  14.206   8.497   9.145  0.1902  0.0462  0.2286
  445loPI   C4A 7114  14.205   8.436   8.657  0.0639 -0.2516 -0.0189
  445loPI   C5A 7115  14.029   8.545   8.250  0.3502 -0.1740  0.2676
  445loPI   C6A 7116  14.153   8.486   7.814 -0.2537 -0.0132  0.0601
  445loPI   C1B 7117  13.860   8.220   9.946  0.0206 -0.1372  0.3166
  445loPI   C2B 7118  13.728   8.382   9.516  0.1170  0.1723  0.1031
  445loPI   C3B 7119  13.756   8.389   9.010 -0.0830 -0.0491  0.0209
  445loPI   C4B 7120  13.638   8.377   8.604 -0.1427 -0.1830  0.2202
  446loPI    C1 7121   8.632  17.854  11.029 -0.0435  0.0967  0.2346
  446loPI    C2 7122   8.361  17.590  10.898  0.2669 -0.1137  0.0020
  446loPI    C3 7123   8.477  17.585  11.281 -0.1654  0.0789  0.1414
  446loPI   PO4 7124   8.790  17.801  10.825 -0.0352 -0.0603 -0.0146
  446loPI   GL1 7125   9.064  17.680  10.537 -0.1460 -0.0941  0.2969
  446loPI   GL2 7126   9.290  17.568  10.386 -0.2138  0.5602  0.2937
  446loPI   C1A 7127   8.700  17.612  10.242 -0.0222 -0.1775 -0.1052
  446loPI   C2A 7128   8.759  17.645   9.816 -0.1568  0.0971  0.3321
  446loPI   C3A 7129   8.829  17.650   9.313 -0.0220  0.0303 -0.3143
  446loPI   C4A 7130   8.891  17.704   8.976 -0.2669 -0.0751  0.0106
  446loPI   C5A 7131   8.783  17.815   8.529 -0.3471  0.0840  0.2392
  446loPI   C6A 7132   9.074  17.584   8.223 -0.1494  0.1483 -0.1536
  446loPI   C1B 7133   9.294  17.766   9.944 -0.0374  0.2703  0.2450
  446loPI   C2B 7134   9.309  17.697   9.531  0.1404 -0.3069  0.1769
  446loPI   C3B 7135   9.388  17.695   9.119 -0.1608 -0.3600 -0.0527
  446loPI   C4B 7136   9.317  17.697   8.676 -0.1605 -0.2354 -0.0437
  447loPI    C1 7137   2.607   4.707  11.185 -0.3214  0.1136 -0.0102
  447loPI    C2 7138   2.462   4.929  11.485  0.0739 -0.1118  0.3603
  447loPI    C3 7139   2.310   4.566  11.412 -0.0961 -0.0127  0.2112
  447loPI   PO4 7140   2.554   4.779  10.992  0.6030 -0.1617  0.0159
  447loPI   GL1 7141   2.530   4.606  10.617  0.1296  0.1990  0.0336
  447loPI   GL2 7142   2.777   4.832  10.558  0.0037 -0.0130 -0.2629
  447loPI   C1A 7143   2.380   4.497  10.257  0.1556  0.0459 -0.1601
  447loPI   C2A 7144   2.566   4.467   9.860  0.0986 -0.1616 -0.1240
  447loPI   C3A 7145   2.689   4.395   9.427 -0.2392 -0.2661  0.2172
  447loPI   C4A 7146   2.670   4.538   9.026  0.1929  0.2631  0.0520
  447loPI   C5A 7147   2.837   4.351   8.751 -0.0701 -0.0382  0.0753
  447loPI   C6A 7148   3.097   4.048   8.613  0.3462  0.0886 -0.0535
  447loPI   C1B 7149   2.696   4.928  10.136 -0.0863 -0.1037 -0.0613
  447loPI   C2B 7150   2.802   4.849   9.693 -0.3161 -0.4827  0.2580
  447loPI   C3B 7151   2.919   4.851   9.282 -0.1262 -0.0311 -0.0911
  447loPI   C4B 7152   2.981   4.945   8.798 -0.0930  0.2235 -0.2305
  448loPI    C1 7153   6.008   3.113  10.984 -0.1714  0.0999 -0.3022
  448loPI    C2 7154   6.203   3.173  10.640 -0.2564  0.1451 -0.3429
  448loPI    C3 7155   6.317   3.366  10.972 -0.2983  0.2528 -0.3904
  448loPI   PO4 7156   5.953   2.777  10.853 -0.1265 -0.0950  0.1747
  448loPI   GL1 7157   6.060   2.625  10.387 -0.0988  0.0026 -0.0690
  448loPI   GL2 7158   6.313   2.758  10.478  0.0940  0.2065 -0.0238
  448loPI   C1A 7159   6.180   2.560  10.039 -0.0980  0.2492  0.0391
  448loPI   C2A 7160   6.191   2.524   9.606  0.2314 -0.3454 -0.0753
  448loPI   C3A 7161   6.197   2.568   9.178 -0.1017  0.2019 -0.0707
  448loPI   C4A 7162   6.239   2.508   8.643 -0.1322  0.1313  0.4188
  448loPI   C5A 7163   6.049   2.280   8.367 -0.3896  0.0176 -0.2400
  448loPI   C6A 7164   6.225   2.022   8.108 -0.1519 -0.0861  0.0116
  448loPI   C1B 7165   6.324   3.049  10.152  0.0358 -0.1179 -0.1535
  448loPI   C2B 7166   6.433   3.016   9.691 -0.2240 -0.0265  0.1094
  448loPI   C3B 7167   6.470   3.095   9.209 -0.0145  0.2310  0.2160
  448loPI   C4B 7168   6.403   2.951   8.776  0.1165 -0.1521  0.0902
  449loPI    C1 7169   8.559  12.118  10.971 -0.1918 -0.0361 -0.1662
  449loPI    C2 7170   8.827  12.325  10.758 -0.1102  0.0432  0.0112
  449loPI    C3 7171   8.887  12.263  11.149 -0.2526 -0.1114  0.0099
  449loPI   PO4 7172   8.371  12.018  10.830  0.2445 -0.3374  0.2353
  449loPI   GL1 7173   8.559  12.010  10.390 -0.4844  0.1594  0.2024
  449loPI   GL2 7174   8.497  12.380  10.347  0.1842 -0.1630  0.1275
  449loPI   C1A 7175   8.814  11.859  10.105  0.1041 -0.0370 -0.2062
  449loPI   C2A 7176   8.645  11.787   9.694  0.0293  0.1740 -0.0773
  449loPI   C3A 7177   8.616  11.825   9.264  0.3405 -0.5031  0.1159
  449loPI   C4A 7178   8.552  11.779   8.791 -0.0174 -0.0948 -0.1514
  449loPI   C5A 7179   8.239  11.491   8.562  0.0487 -0.0618 -0.2273
  449loPI   C6A 7180   8.120  11.233   8.274 -0.3552 -0.0964  0.3905
  449loPI   C1B 7181   8.358  12.216   9.940  0.0159 -0.0667 -0.2916
  449loPI   C2B 7182   8.321  12.245   9.503 -0.0128 -0.0854  0.1588
  449loPI   C3B 7183   8.344  12.299   9.003 -0.1056 -0.0562 -0.1611
  449loPI   C4B 7184   8.448  12.352   8.565 -0.1138  0.1783 -0.0055
  450loPI    C1 7185   7.816  16.211  11.036 -0.0281  0.0173  0.1013
  450loPI    C2 7186   7.584  15.900  11.133 -0.0807  0.0365  0.0378
  450loPI    C3 7187   7.647  16.193  11.398 -0.0362 -0.0251  0.0954
  450loPI   PO4 7188   7.779  16.174  10.771 -0.1799 -0.0799  0.2541
  450loPI   GL1 7189   7.723  16.421  10.370  0.2612 -0.2494 -0.0408
  450loPI   GL2 7190   7.866  16.658  10.334  0.0119 -0.0346  0.0152
  450loPI   C1A 7191   7.605  16.193   9.960 -0.1572 -0.0974  0.0479
  450loPI   C2A 7192   7.632  16.125   9.447  0.2726 -0.0854  0.0261
  450loPI   C3A 7193   7.685  16.224   9.031 -0.2039  0.1109  0.1027
  450loPI   C4A 7194   7.684  16.215   8.550 -0.2107  0.2206 -0.0222
  450loPI   C5A 7195   7.679  16.148   8.130  0.2934 -0.0819 -0.3107
  450loPI   C6A 7196   7.358  15.980   7.901  0.1466 -0.0098  0.1705
  450loPI   C1B 7197   7.820  16.631   9.873  0.0572 -0.0943 -0.0926
  450loPI   C2B 7198   7.738  16.585   9.443  0.1803 -0.1625 -0.3014
  450loPI   C3B 7199   7.759  16.738   9.101  0.1819  0.0260  0.1156
  450loPI   C4B 7200   8.021  16.760   8.751  0.0826 -0.3235  0.1276
  451loPI    C1 7201  17.735   1.119  10.564 -0.1231 -0.0949 -0.0104
  451loPI    C2 7202  17.694   1.455  10.778 -0.2182 -0.0517 -0.0956
  451loPI    C3 7203  17.925   1.158  10.914  0.0792  0.1523 -0.1445
  451loPI   PO4 7204  17.885   1.184  10.381  0.2365  0.0907 -0.0637
  451loPI   GL1 7205  18.293   1.256  10.171  0.0578 -0.3052 -0.0184
  451loPI   GL2 7206  18.122   1.519  10.049  0.0194  0.0208 -0.3697
  451loPI   C1A 7207  18.658   1.034   9.989  0.0426 -0.1701  0.0705
  451loPI   C2A 7208  18.766   0.786   9.698 -0.3090 -0.0021  0.0312
  451loPI   C3A 7209  19.087   0.642   9.576 -0.0442 -0.1879  0.0271
  451loPI   C4A 7210  19.041   0.311   9.278 -0.1326 -0.0812 -0.5147
  451loPI   C5A 7211  18.929   0.166   8.835 -0.0973  0.1714 -0.0408
  451loPI   C6A 7212  19.079   0.309   8.422  0.1010 -0.0774 -0.0027
  451loPI   C1B 7213  18.227   1.636   9.687 -0.0296 -0.0994  0.0457
  451loPI   C2B 7214  18.277   1.662   9.270 -0.0965 -0.0981  0.0858
  451loPI   C3B 7215  18.436   1.300   9.012 -0.1568  0.0953 -0.3306
  451loPI   C4B 7216  18.650   1.069   8.687 -0.1277 -0.2034 -0.3864
  452loPI    C1 7217   1.429  10.840  10.891  0.0930  0.1075  0.1767
  452loPI    C2 7218   1.508  10.509  11.102 -0.1110  0.3092  0.5808
  452loPI    C3 7219   1.142  10.568  10.953  0.0452  0.1432  0.1130
  452loPI   PO4 7220   1.596  10.830  10.684  0.2224  0.4275 -0.3632
  452loPI   GL1 7221   1.716  10.608  10.300 -0.2148  0.3933 -0.3695
  452loPI   GL2 7222   1.890  10.355  10.329  0.0841  0.0856  0.1311
  452loPI   C1A 7223   1.959  10.718  10.044  0.1027 -0.4386  0.4733
  452loPI   C2A 7224   2.023  10.690   9.652 -0.0692 -0.0906 -0.1772
  452loPI   C3A 7225   2.060  10.718   9.242 -0.1051 -0.1062 -0.1356
  452loPI   C4A 7226   2.162  10.668   8.796 -0.0893 -0.1925 -0.0102
  452loPI   C5A 7227   2.288  10.686   8.345  0.0791 -0.0003 -0.2175
  452loPI   C6A 7228   2.643  10.762   8.173  0.0740  0.0074  0.0886
  452loPI   C1B 7229   1.773  10.233   9.834 -0.1921  0.1071  0.0046
  452loPI   C2B 7230   1.904  10.224   9.388  0.1047 -0.0643  0.1840
  452loPI   C3B 7231   1.924  10.255   8.962 -0.0812  0.1436  0.1139
  452loPI   C4B 7232   2.025  10.318   8.521  0.0597  0.3898  0.1187
  453loPI    C1 7233   9.149   2.593  10.996  0.1326  0.2263 -0.0764
  453loPI    C2 7234   9.124   2.760  11.358  0.1428 -0.1632  0.1093
  453loPI    C3 7235   8.795   2.617  11.180  0.1520 -0.0526  0.0021
  453loPI   PO4 7236   9.262   2.772  10.848  0.2448 -0.1978  0.0235
  453loPI   GL1 7237   9.230   2.868  10.437  0.2436  0.0476 -0.1698
  453loPI   GL2 7238   8.971   2.764  10.218 -0.4221 -0.2671 -0.0278
  453loPI   C1A 7239   9.372   2.875  10.045 -0.1925  0.2378 -0.0058
  453loPI   C2A 7240   9.293   2.805   9.577  0.3131 -0.1600 -0.1393
  453loPI   C3A 7241   9.355   2.890   9.225 -0.0311  0.3054 -0.1981
  453loPI   C4A 7242   9.363   2.828   8.697 -0.0509 -0.0467  0.1919
  453loPI   C5A 7243   9.506   2.821   8.210 -0.4453  0.2159  0.1980
  453loPI   C6A 7244   9.297   2.854   7.801 -0.3478  0.3164 -0.0400
  453loPI   C1B 7245   8.869   2.742   9.844  0.4938 -0.2846 -0.0996
  453loPI   C2B 7246   8.869   2.831   9.429  0.0340  0.0708 -0.2759
  453loPI   C3B 7247   8.846   2.787   8.992 -0.1754 -0.1463  0.0094
  453loPI   C4B 7248   8.872   2.834   8.569 -0.2072  0.0997 -0.1702
  454loPI    C1 7249   4.001   5.787  11.435 -0.0668 -0.1103 -0.0605
  454loPI    C2 7250   3.963   6.014  11.107  0.1420  0.0463  0.0216
  454loPI    C3 7251   3.956   6.183  11.470 -0.3762 -0.1580  0.1155
  454loPI   PO4 7252   4.242   5.605  11.361  0.1316 -0.1480  0.1921
  454loPI   GL1 7253   4.406   5.387  11.091 -0.0247 -0.0141 -0.3500
  454loPI   GL2 7254   4.434   5.273  10.862 -0.1234 -0.1261  0.0389
  454loPI   C1A 7255   4.062   5.556  10.719 -0.1350  0.0835  0.1066
  454loPI   C2A 7256   4.076   5.576  10.292 -0.0150  0.0624 -0.1779
  454loPI   C3A 7257   4.081   5.667   9.882  0.0778  0.0519  0.0221
  454loPI   C4A 7258   4.162   5.602   9.520  0.0944  0.1755 -0.2999
  454loPI   C5A 7259   4.280   5.563   9.044  0.1968  0.1109  0.0083
  454loPI   C6A 7260   4.272   5.965   8.729  0.1167 -0.2578  0.0007
  454loPI   C1B 7261   4.345   5.135  10.481 -0.3078 -0.0268 -0.3362
  454loPI   C2B 7262   4.253   5.229   9.986  0.1254 -0.2192  0.0920
  454loPI   C3B 7263   4.426   5.097   9.556  0.0787  0.0997 -0.2875
  454loPI   C4B 7264   4.446   5.001   9.143 -0.2218 -0.2626  0.3403
  455loPI    C1 7265  13.279   7.287  10.970 -0.0725 -0.0847 -0.1167
  455loPI    C2 7266  13.510   6.994  11.112 -0.0052  0.0788  0.1160
  455loPI    C3 7267  13.384   7.286  11.356 -0.0813  0.2374 -0.1101
  455loPI   PO4 7268  13.334   7.332  10.726  0.2917 -0.2410  0.1521
  455loPI   GL1 7269  13.099   7.315  10.425  0.1056  0.0256  0.3403
  455loPI   GL2 7270  13.130   7.628  10.349 -0.0491 -0.0667  0.0897
  455loPI   C1A 7271  12.908   7.316   9.985 -0.1154  0.0702  0.0406
  455loPI   C2A 7272  12.902   7.365   9.600  0.2832  0.0439  0.1797
  455loPI   C3A 7273  12.745   7.356   9.144 -0.0208 -0.1880  0.0925
  455loPI   C4A 7274  12.709   7.312   8.836  0.1889 -0.2256  0.3329
  455loPI   C5A 7275  12.624   7.195   8.402  0.2388  0.0248 -0.2015
  455loPI   C6A 7276  12.590   7.318   7.968 -0.0479 -0.0364  0.1754
  455loPI   C1B 7277  13.122   7.772   9.950  0.0377  0.2254 -0.0862
  455loPI   C2B 7278  13.121   7.801   9.458 -0.1809 -0.2477 -0.1990
  455loPI   C3B 7279  13.047   7.780   8.967  0.1190 -0.0357 -0.1331
  455loPI   C4B 7280  12.931   7.858   8.636  0.1852  0.2216  0.1104
  456loPI    C1 7281  17.862  14.364  10.725  0.1650 -0.0866 -0.1872
  456loPI    C2 7282  18.075  14.530  11.021 -0.0662 -0.1625  0.0255
  456loPI    C3 7283  17.953  14.151  11.051 -0.3136 -0.0913 -0.0489
  456loPI   PO4 7284  18.083  14.483  10.459  0.0152  0.2259 -0.0075
  456loPI   GL1 7285  18.006  14.567  10.091 -0.1162 -0.0339 -0.0811
  456loPI   GL2 7286  17.913  14.750  10.102  0.1494 -0.2181 -0.1022
  456loPI   C1A 7287  17.769  14.373   9.772 -0.0701  0.0210  0.1473
  456loPI   C2A 7288  17.644  14.281   9.337 -0.1975  0.3479 -0.0177
  456loPI   C3A 7289  17.616  14.286   8.966  0.1114  0.0974 -0.0110
  456loPI   C4A 7290  17.488  14.326   8.576 -0.0214  0.2920 -0.1057
  456loPI   C5A 7291  17.527  14.332   8.175  0.2159  0.1176 -0.3241
  456loPI   C6A 7292  17.578  14.784   8.084  0.1354 -0.3749 -0.1730
  456loPI   C1B 7293  18.105  14.766   9.636  0.1675 -0.3865  0.0835
  456loPI   C2B 7294  18.005  14.636   9.144 -0.0159 -0.0667  0.0177
  456loPI   C3B 7295  18.048  14.688   8.748  0.0951 -0.1429  0.2175
  456loPI   C4B 7296  17.944  14.526   8.356 -0.1673  0.1448  0.2029
  457loPI    C1 7297  14.021   0.714  10.470 -0.0052  0.0422  0.0128
  457loPI    C2 7298  14.201   1.067  10.420  0.2055 -0.0385  0.1873
  457loPI    C3 7299  14.049   0.969  10.776 -0.2609  0.0616  0.0220
  457loPI   PO4 7300  14.018   0.648  10.229 -0.1043 -0.1245 -0.0847
  457loPI   GL1 7301  14.136   0.398   9.843 -0.0526 -0.0048 -0.0056
  457loPI   GL2 7302  13.765   0.298   9.966 -0.1323 -0.1042  0.0124
  457loPI   C1A 7303  13.937   0.713   9.576  0.1717  0.1020  0.0900
  457loPI   C2A 7304  14.051   0.972   9.319 -0.2081 -0.0858  0.0839
  457loPI   C3A 7305  14.366   1.048   9.035 -0.0378 -0.2554 -0.1799
  457loPI   C4A 7306  14.785   0.858   8.735  0.0706 -0.1363  0.1755
  457loPI   C5A 7307  14.959   0.556   8.349  0.2507 -0.0471  0.1500
  457loPI   C6A 7308  14.811   0.442   8.023 -0.1440  0.0404 -0.0060
  457loPI   C1B 7309  13.777   0.230   9.505  0.0311  0.2033  0.2171
  457loPI   C2B 7310  13.666  -0.102   9.228  0.0279 -0.2248  0.3532
  457loPI   C3B 7311  13.758  -0.230   8.846 -0.1743 -0.0661 -0.3495
  457loPI   C4B 7312  13.620  -0.280   8.523 -0.1332 -0.0560  0.0962
  458loPI    C1 7313   0.190   4.608  10.953  0.0479  0.0266  0.0215
  458loPI    C2 7314  -0.133   4.711  11.164  0.1337 -0.0285  0.1818
  458loPI    C3 7315   0.229   4.726  11.334  0.2119 -0.0014  0.0144
  458loPI   PO4 7316   0.097   4.780  10.697  0.2121  0.3960 -0.1940
  458loPI   GL1 7317   0.242   4.810  10.331 -0.1158 -0.1823  0.0730
  458loPI   GL2 7318   0.359   5.004  10.163 -0.1507  0.0906 -0.0677
  458loPI   C1A 7319   0.087   4.710   9.860  0.0953 -0.0685  0.0656
  458loPI   C2A 7320  -0.177   4.926   9.561 -0.3668 -0.1117 -0.0607
  458loPI   C3A 7321  -0.075   5.066   9.093  0.4057  0.1312 -0.0018
  458loPI   C4A 7322  -0.005   5.380   8.775 -0.1478  0.1702  0.1767
  458loPI   C5A 7323  -0.074   5.297   8.337  0.1493 -0.2301 -0.0163
  458loPI   C6A 7324  -0.404   5.252   7.938 -0.2900 -0.0104 -0.0403
  458loPI   C1B 7325   0.512   5.102   9.815 -0.0469 -0.1273  0.0981
  458loPI   C2B 7326   0.401   5.113   9.398 -0.0473  0.1052  0.1662
  458loPI   C3B 7327   0.386   5.261   9.106 -0.0514 -0.0249  0.0214
  458loPI   C4B 7328   0.438   5.277   8.672 -0.4739  0.2091 -0.0453
  459loPI    C1 7329  12.362   6.033  10.797 -0.0346 -0.1261  0.0849
  459loPI    C2 7330  12.509   5.860  10.468 -0.0605  0.2136 -0.1107
  459loPI    C3 7331  12.746   6.087  10.697 -0.0291 -0.0644  0.1391
  459loPI   PO4 7332  12.196   6.151  10.681  0.1986 -0.0903 -0.2785
  459loPI   GL1 7333  12.155   6.107  10.175  0.2193  0.2786 -0.1487
  459loPI   GL2 7334  12.128   6.415  10.080  0.3540  0.0718  0.0179
  459loPI   C1A 7335  12.234   5.937   9.753 -0.1232 -0.0096  0.0098
  459loPI   C2A 7336  12.192   5.864   9.368  0.0480  0.0975 -0.0945
  459loPI   C3A 7337  12.147   5.945   8.944  0.0115  0.0011 -0.2715
  459loPI   C4A 7338  12.008   5.915   8.443 -0.1098  0.2731 -0.0206
  459loPI   C5A 7339  11.682   5.929   8.161  0.2121 -0.0857 -0.0081
  459loPI   C6A 7340  11.250   6.025   8.049  0.0233  0.1240  0.0663
  459loPI   C1B 7341  11.928   6.363   9.654  0.1485 -0.1852 -0.3069
  459loPI   C2B 7342  11.875   6.366   9.275 -0.0742 -0.1066  0.0835
  459loPI   C3B 7343  11.790   6.320   8.821 -0.1564 -0.0016  0.1028
  459loPI   C4B 7344  11.787   6.394   8.341  0.1014  0.1907  0.2204
  460loPI    C1 7345   6.391  17.319  11.028  0.1430 -0.0751  0.0686
  460loPI    C2 7346   6.642  17.164  11.298  0.0288 -0.3352  0.0282
  460loPI    C3 7347   6.249  17.164  11.369  0.0515  0.3220  0.2171
  460loPI   PO4 7348   6.466  17.220  10.736 -0.0018  0.3203  0.4039
  460loPI   GL1 7349   6.247  17.222  10.375 -0.3766 -0.2317 -0.0142
  460loPI   GL2 7350   6.422  17.511  10.260 -0.2243  0.1021 -0.2581
  460loPI   C1A 7351   6.421  16.994  10.056 -0.3929  0.1711  0.1828
  460loPI   C2A 7352   6.590  16.968   9.633 -0.1619 -0.0294 -0.2062
  460loPI   C3A 7353   6.581  17.049   9.190 -0.0037  0.1894 -0.4912
  460loPI   C4A 7354   6.558  16.944   8.757  0.0673 -0.1203 -0.0870
  460loPI   C5A 7355   6.604  16.934   8.391 -0.3533  0.0527  0.1594
  460loPI   C6A 7356   6.758  17.093   8.090  0.2302  0.1278 -0.0401
  460loPI   C1B 7357   6.754  17.431   9.845  0.1292  0.0036 -0.1271
  460loPI   C2B 7358   6.737  17.471   9.463 -0.0676 -0.3020  0.3529
  460loPI   C3B 7359   6.727  17.498   8.960 -0.2186  0.0395 -0.0632
  460loPI   C4B 7360   6.810  17.359   8.557  0.3187  0.2137 -0.0333
  461loPI    C1 7361  11.582   7.288  10.750 -0.2947  0.0279 -0.0618
  461loPI    C2 7362  11.431   7.073  11.051 -0.1957 -0.0422 -0.0617
  461loPI    C3 7363  11.675   7.380  11.128 -0.4491  0.1619 -0.0548
  461loPI   PO4 7364  11.777   7.052  10.597 -0.4137 -0.3096 -0.1735
  461loPI   GL1 7365  11.981   7.167  10.284  0.2624 -0.0382  0.2339
  461loPI   GL2 7366  12.173   6.911  10.297  0.2122  0.1155  0.2270
  461loPI   C1A 7367  11.900   7.304   9.855 -0.0449  0.0038 -0.1196
  461loPI   C2A 7368  11.699   7.248   9.416 -0.0755 -0.0697  0.0779
  461loPI   C3A 7369  11.678   7.184   8.985  0.3622  0.0301  0.0602
  461loPI   C4A 7370  11.627   7.308   8.655  0.2087 -0.1905  0.1719
  461loPI   C5A 7371  11.675   7.195   8.200 -0.2535 -0.0826 -0.0474
  461loPI   C6A 7372  11.705   7.259   7.759  0.0307  0.1784 -0.0723
  461loPI   C1B 7373  12.103   6.827   9.833 -0.0195 -0.1879  0.2630
  461loPI   C2B 7374  12.099   6.780   9.430  0.0380 -0.3278  0.0728
  461loPI   C3B 7375  12.034   6.799   8.992  0.1636  0.1237 -0.3816
  461loPI   C4B 7376  11.922   6.837   8.491 -0.1020 -0.1173 -0.1319
  462loPI    C1 7377  17.151  12.574  10.810 -0.0750 -0.0424  0.0051
  462loPI    C2 7378  16.983  12.750  11.127 -0.0226 -0.0994  0.0650
  462loPI    C3 7379  17.366  12.636  11.142 -0.0032 -0.0494 -0.0398
  462loPI   PO4 7380  16.953  12.409  10.715  0.0831 -0.2121  0.2109
  462loPI   GL1 7381  16.815  12.339  10.380 -0.0669 -0.1598 -0.2200
  462loPI   GL2 7382  17.002  12.176  10.093  0.1666  0.0028  0.2638
  462loPI   C1A 7383  16.434  12.235  10.135  0.2333  0.0127 -0.0979
  462loPI   C2A 7384  16.345  12.315   9.672  0.0580  0.0818 -0.1085
  462loPI   C3A 7385  16.486  12.360   9.176 -0.1920 -0.0555 -0.1667
  462loPI   C4A 7386  16.348  12.248   8.754  0.1794 -0.0418  0.3771
  462loPI   C5A 7387  16.590  12.216   8.347  0.1615 -0.2129  0.4314
  462loPI   C6A 7388  16.507  12.159   7.851 -0.0377  0.0486 -0.3702
  462loPI   C1B 7389  16.993  12.324   9.650  0.0044 -0.1075 -0.2197
  462loPI   C2B 7390  16.972  12.348   9.226  0.1101  0.0384  0.0134
  462loPI   C3B 7391  16.823  12.371   8.781  0.1380  0.1952 -0.5309
  462loPI   C4B 7392  16.976  12.480   8.309  0.0849 -0.1053 -0.1268
  463loPI    C1 7393   5.693  13.003  11.031 -0.0554  0.0202  0.1600
  463loPI    C2 7394   5.988  13.011  11.300  0.1794 -0.0803 -0.0898
  463loPI    C3 7395   5.649  12.815  11.381  0.2707 -0.1594  0.1083
  463loPI   PO4 7396   5.767  12.909  10.821  0.0458 -0.1866 -0.0155
  463loPI   GL1 7397   5.995  12.761  10.558 -0.0145 -0.3044 -0.0705
  463loPI   GL2 7398   6.298  12.568  10.484  0.3060 -0.0187 -0.4127
  463loPI   C1A 7399   6.097  12.960  10.175 -0.0301  0.2074 -0.1583
  463loPI   C2A 7400   6.102  13.000   9.727  0.1623 -0.0398  0.0167
  463loPI   C3A 7401   6.129  12.920   9.347 -0.2042  0.2289 -0.4349
  463loPI   C4A 7402   6.142  12.901   8.826  0.0502  0.2184 -0.1267
  463loPI   C5A 7403   6.233  13.006   8.392  0.1147 -0.1699  0.0723
  463loPI   C6A 7404   6.000  12.802   8.070  0.0985  0.0573 -0.1572
  463loPI   C1B 7405   6.433  12.505  10.067  0.0734 -0.0613 -0.2084
  463loPI   C2B 7406   6.458  12.457   9.548 -0.2159 -0.2157 -0.1504
  463loPI   C3B 7407   6.487  12.520   9.154  0.3165 -0.2436  0.2140
  463loPI   C4B 7408   6.449  12.501   8.681  0.0257 -0.2557 -0.0104
  464loPI    C1 7409  13.888  15.059  10.836 -0.1722  0.0412  0.0411
  464loPI    C2 7410  14.151  15.047  11.137 -0.1123  0.0567 -0.0102
  464loPI    C3 7411  13.925  14.727  11.055 -0.1021  0.0398  0.0274
  464loPI   PO4 7412  13.996  15.110  10.626  0.1176 -0.0141 -0.0773
  464loPI   GL1 7413  14.166  14.890  10.289  0.0810  0.2876 -0.0980
  464loPI   GL2 7414  14.038  14.696  10.113 -0.1316 -0.0227  0.2577
  464loPI   C1A 7415  14.148  15.211   9.940 -0.2020 -0.1677  0.1094
  464loPI   C2A 7416  14.192  15.216   9.563 -0.1726 -0.0151  0.4282
  464loPI   C3A 7417  14.094  15.087   9.121  0.0914  0.2080  0.1493
  464loPI   C4A 7418  13.986  15.140   8.617 -0.0276 -0.0240  0.1644
  464loPI   C5A 7419  14.120  14.944   8.225  0.0041  0.0802  0.3314
  464loPI   C6A 7420  14.216  15.063   7.838  0.2782  0.2521  0.1059
  464loPI   C1B 7421  13.996  14.747   9.733 -0.0441 -0.1518 -0.1795
  464loPI   C2B 7422  13.906  14.630   9.225 -0.2049  0.2726  0.2519
  464loPI   C3B 7423  13.826  14.550   8.833  0.2365  0.2176 -0.3208
  464loPI   C4B 7424  13.788  14.580   8.406  0.2059  0.1849 -0.1709
  465loPI    C1 7425  10.048  17.483  10.968 -0.0536  0.2756 -0.2138
  465loPI    C2 7426   9.918  17.349  11.321  0.0124 -0.0338 -0.3040
  465loPI    C3 7427   9.656  17.437  11.031 -0.0219 -0.2011 -0.3251
  465loPI   PO4 7428  10.308  17.397  10.915 -0.1158  0.0951  0.0015
  465loPI   GL1 7429  10.482  17.336  10.524  0.2482 -0.1323  0.1659
  465loPI   GL2 7430  10.269  16.985  10.633  0.1539 -0.0046 -0.2404
  465loPI   C1A 7431  10.582  17.290  10.192 -0.1957 -0.0503 -0.0277
  465loPI   C2A 7432  10.627  17.377   9.803 -0.0767 -0.0244  0.0966
  465loPI   C3A 7433  10.655  17.368   9.358 -0.0160  0.3087  0.0799
  465loPI   C4A 7434  10.651  17.543   8.956  0.0814  0.0870  0.2201
  465loPI   C5A 7435  10.626  17.434   8.538  0.2911 -0.1345  0.5687
  465loPI   C6A 7436  10.550  17.053   8.216 -0.1334  0.0102  0.2053
  465loPI   C1B 7437  10.119  16.869  10.164 -0.1031  0.1966 -0.3809
  465loPI   C2B 7438   9.951  16.862   9.802 -0.1757  0.3256 -0.0834
  465loPI   C3B 7439   9.838  16.864   9.442  0.0562 -0.0328 -0.0049
  465loPI   C4B 7440   9.947  16.837   9.057  0.0272  0.1330  0.0635
  466loPI    C1 7441   2.553   7.280  11.448 -0.0554  0.0557  0.1684
  466loPI    C2 7442   2.424   7.574  11.687 -0.1626  0.1281  0.0226
  466loPI    C3 7443   2.453   7.200  11.827  0.1966  0.2466  0.2783
  466loPI   PO4 7444   2.731   7.362  11.294  0.0507  0.1607  0.1397
  466loPI   GL1 7445   2.922   7.376  10.864  0.2741  0.0243  0.3355
  466loPI   GL2 7446   2.579   7.453  10.827 -0.1690  0.0474  0.1424
  466loPI   C1A 7447   2.806   7.167  10.547  0.0328  0.0541  0.2433
  466loPI   C2A 7448   2.823   7.252  10.064 -0.1421 -0.2215 -0.0180
  466loPI   C3A 7449   2.861   7.273   9.650 -0.0326 -0.0547 -0.0160
  466loPI   C4A 7450   2.849   7.149   9.181 -0.0518 -0.1899 -0.1731
  466loPI   C5A 7451   2.815   6.695   8.935  0.2145 -0.0369 -0.2314
  466loPI   C6A 7452   2.673   6.719   8.474 -0.0526  0.0995 -0.0456
  466loPI   C1B 7453   2.526   7.539  10.325  0.1095  0.0761 -0.0299
  466loPI   C2B 7454   2.570   7.670   9.855 -0.3299 -0.0576 -0.1060
  466loPI   C3B 7455   2.600   7.606   9.385  0.1611 -0.2894 -0.1846
  466loPI   C4B 7456   2.595   7.552   8.964  0.2076 -0.2378 -0.3038
  467loPI    C1 7457   5.512  17.331  10.947  0.1932 -0.2637 -0.1227
  467loPI    C2 7458   5.462  16.955  10.822  0.0251 -0.2658 -0.0518
  467loPI    C3 7459   5.259  17.089  11.140  0.0743 -0.1109 -0.0850
  467loPI   PO4 7460   5.482  17.432  10.776  0.0668 -0.0242  0.3277
  467loPI   GL1 7461   5.535  17.357  10.339  0.1930  0.1370 -0.1646
  467loPI   GL2 7462   5.271  17.259  10.396  0.1773 -0.0354  0.4356
  467loPI   C1A 7463   5.573  17.365   9.915 -0.0395  0.0342  0.1234
  467loPI   C2A 7464   5.715  17.285   9.535  0.0981 -0.0140 -0.5055
  467loPI   C3A 7465   5.739  17.429   9.107 -0.0755  0.0701  0.1222
  467loPI   C4A 7466   5.717  17.384   8.775  0.0628 -0.3005 -0.0983
  467loPI   C5A 7467   5.891  17.452   8.272  0.4121  0.2471  0.2744
  467loPI   C6A 7468   5.805  17.235   7.901  0.0603 -0.0253 -0.1139
  467loPI   C1B 7469   5.105  17.127  10.039 -0.0608  0.0658  0.3154
  467loPI   C2B 7470   5.184  17.307   9.599  0.0607  0.2963  0.2770
  467loPI   C3B 7471   5.281  17.326   9.174  0.2133 -0.2993 -0.2612
  467loPI   C4B 7472   5.193  17.446   8.748  0.1221 -0.0008  0.0339
  468loPI    C1 7473   3.920   9.806  10.824  0.0348 -0.0698 -0.0567
  468loPI    C2 7474   4.304   9.869  10.913  0.0567 -0.2439 -0.0244
  468loPI    C3 7475   4.042   9.788  11.205 -0.0134 -0.0839 -0.0417
  468loPI   PO4 7476   3.990   9.669  10.519  0.0644  0.3517  0.0172
  468loPI   GL1 7477   3.899   9.579  10.136 -0.0778  0.1305  0.1410
  468loPI   GL2 7478   3.796   9.940  10.182  0.3497 -0.0159  0.0325
  468loPI   C1A 7479   3.978   9.655   9.687  0.3256  0.0922  0.1315
  468loPI   C2A 7480   3.978   9.600   9.327  0.3418  0.0816  0.0161
  468loPI   C3A 7481   4.185   9.615   8.900  0.3296  0.2077 -0.1196
  468loPI   C4A 7482   4.380   9.669   8.522 -0.1150 -0.2950 -0.0301
  468loPI   C5A 7483   4.530  10.037   8.257  0.0676  0.1183  0.1990
  468loPI   C6A 7484   4.957  10.183   8.091  0.3431 -0.0700  0.0333
  468loPI   C1B 7485   3.713  10.085   9.782  0.4168 -0.0127  0.2935
  468loPI   C2B 7486   3.820  10.422   9.686 -0.0490  0.0612 -0.0904
  468loPI   C3B 7487   3.963  10.504   9.307 -0.0912 -0.1204  0.0789
  468loPI   C4B 7488   3.968  10.445   8.874 -0.1603 -0.0119 -0.3317
  469loPI    C1 7489  12.869   4.986  11.168  0.0961 -0.1428 -0.1015
  469loPI    C2 7490  13.197   5.191  11.065 -0.0941 -0.0019 -0.4440
  469loPI    C3 7491  12.868   5.386  11.182 -0.1355 -0.1321 -0.3416
  469loPI   PO4 7492  12.850   4.839  10.941 -0.3523  0.1436 -0.0360
  469loPI   GL1 7493  12.761   4.775  10.473 -0.1012  0.2332  0.1213
  469loPI   GL2 7494  12.638   4.612  10.268 -0.1392 -0.1906 -0.1461
  469loPI   C1A 7495  12.872   4.985  10.040  0.1500 -0.2828  0.0017
  469loPI   C2A 7496  12.803   5.049   9.673  0.0929 -0.0948 -0.2570
  469loPI   C3A 7497  12.788   5.137   9.235 -0.0345  0.2006  0.1915
  469loPI   C4A 7498  12.685   5.128   8.846 -0.0910 -0.0164  0.2730
  469loPI   C5A 7499  12.899   5.057   8.480  0.0134  0.0248 -0.0900
  469loPI   C6A 7500  12.888   4.810   8.158  0.1590  0.1570 -0.1081
  469loPI   C1B 7501  12.586   4.560   9.871  0.0596  0.0668  0.0099
  469loPI   C2B 7502  12.561   4.590   9.500  0.1240 -0.1219  0.0876
  469loPI   C3B 7503  12.605   4.619   9.013  0.0646 -0.1264  0.1782
  469loPI   C4B 7504  12.727   4.538   8.601  0.0991 -0.2406 -0.1938
  470loPI    C1 7505  12.320  17.088  10.975 -0.1916  0.0307  0.0828
  470loPI    C2 7506  12.111  17.282  11.255  0.0574  0.0319  0.2713
  470loPI    C3 7507  12.292  16.936  11.343  0.0662 -0.0114  0.0873
  470loPI   PO4 7508  12.241  17.074  10.727  0.2401  0.0888 -0.0918
  470loPI   GL1 7509  12.003  17.034  10.387  0.1358  0.1349  0.2151
  470loPI   GL2 7510  12.250  16.818  10.137  0.1172 -0.0441 -0.0386
  470loPI   C1A 7511  11.941  17.165   9.937 -0.3831 -0.1354  0.0375
  470loPI   C2A 7512  12.025  17.049   9.512 -0.1908 -0.1690  0.2533
  470loPI   C3A 7513  11.961  17.091   9.093  0.1623 -0.1324  0.1713
  470loPI   C4A 7514  11.980  17.062   8.596  0.1512  0.1531  0.2636
  470loPI   C5A 7515  12.113  17.252   8.203  0.1963 -0.4003 -0.0725
  470loPI   C6A 7516  11.853  17.632   8.049 -0.0530  0.1571  0.0169
  470loPI   C1B 7517  12.329  16.737   9.772 -0.0640  0.1286 -0.0782
  470loPI   C2B 7518  12.273  16.673   9.334  0.0566  0.0180 -0.0584
  470loPI   C3B 7519  12.328  16.685   8.918  0.1957  0.1567 -0.0581
  470loPI   C4B 7520  12.295  16.718   8.433  0.0789 -0.1204  0.3147
  471loPI    C1 7521   6.262  13.420  11.355  0.1427 -0.1069 -0.0905
  471loPI    C2 7522   6.020  13.739  11.360  0.1246 -0.1170 -0.2549
  471loPI    C3 7523   6.065  13.516  11.689 -0.1530 -0.1624 -0.2457
  471loPI   PO4 7524   6.404  13.523  11.090  0.0714  0.0660 -0.0880
  471loPI   GL1 7525   6.237  13.695  10.649  0.0247 -0.2021  0.1605
  471loPI   GL2 7526   6.377  13.522  10.387 -0.1384 -0.1681 -0.2292
  471loPI   C1A 7527   6.062  13.843  10.154 -0.0065  0.2435  0.1180
  471loPI   C2A 7528   6.011  13.834   9.705  0.1877 -0.1976 -0.1519
  471loPI   C3A 7529   5.981  13.806   9.252 -0.1745 -0.2753 -0.2117
  471loPI   C4A 7530   6.121  13.807   8.780 -0.0778 -0.1342  0.0054
  471loPI   C5A 7531   6.184  13.618   8.330 -0.0670 -0.1023  0.0670
  471loPI   C6A 7532   6.062  13.315   7.905 -0.1917  0.2465 -0.2119
  471loPI   C1B 7533   6.361  13.494   9.994  0.2189  0.0484 -0.1547
  471loPI   C2B 7534   6.296  13.425   9.522 -0.1296  0.1199 -0.1554
  471loPI   C3B 7535   6.363  13.381   9.126 -0.0773 -0.0169  0.0190
  471loPI   C4B 7536   6.388  13.393   8.704  0.2703 -0.0214 -0.0896
  472loPI    C1 7537  11.442  10.915  11.342 -0.0352  0.0274 -0.0395
  472loPI    C2 7538  11.266  11.155  11.609 -0.0161 -0.0680  0.0593
  472loPI    C3 7539  11.287  10.761  11.677 -0.2210 -0.1249 -0.1930
  472loPI   PO4 7540  11.267  10.998  11.057 -0.1426  0.3349  0.3063
  472loPI   GL1 7541  11.317  11.065  10.633 -0.0219 -0.1535  0.3765
  472loPI   GL2 7542  11.562  11.332  10.559 -0.1995  0.0688 -0.2617
  472loPI   C1A 7543  11.297  10.823  10.250 -0.0352 -0.1943 -0.1882
  472loPI   C2A 7544  11.264  10.731   9.866 -0.1390  0.0217  0.5336
  472loPI   C3A 7545  11.150  10.777   9.426 -0.1645  0.0325 -0.1333
  472loPI   C4A 7546  11.028  10.817   8.930  0.0639 -0.1317 -0.2709
  472loPI   C5A 7547  11.181  10.953   8.538 -0.0463 -0.2426  0.2956
  472loPI   C6A 7548  11.360  11.332   8.384 -0.0609  0.0732 -0.0529
  472loPI   C1B 7549  11.528  11.275  10.228 -0.2357  0.1495  0.1547
  472loPI   C2B 7550  11.413  11.197   9.850 -0.0272  0.3829  0.1549
  472loPI   C3B 7551  11.312  11.223   9.392  0.2281  0.0916  0.0282
  472loPI   C4B 7552  11.323  11.221   8.944  0.2574 -0.0141 -0.0805
  473loPI    C1 7553   9.749  12.099  11.152  0.0742 -0.0304  0.0689
  473loPI    C2 7554   9.903  12.402  11.364 -0.0078  0.1256 -0.0910
  473loPI    C3 7555   9.708  12.106  11.549  0.1178  0.1431  0.0714
  473loPI   PO4 7556   9.935  12.036  10.984 -0.1668  0.0899 -0.2647
  473loPI   GL1 7557  10.126  12.342  10.583 -0.0424 -0.1382 -0.2756
  473loPI   GL2 7558  10.369  12.182  10.589 -0.0657  0.2316 -0.1464
  473loPI   C1A 7559  10.006  12.389  10.208 -0.1141  0.0860  0.1488
  473loPI   C2A 7560  10.024  12.334   9.777  0.2169 -0.1788 -0.0190
  473loPI   C3A 7561   9.961  12.394   9.352 -0.0344  0.1676 -0.2504
  473loPI   C4A 7562   9.832  12.565   8.938 -0.0347  0.3497 -0.0942
  473loPI   C5A 7563   9.631  12.453   8.545 -0.0250 -0.1903  0.1179
  473loPI   C6A 7564   9.602  12.207   8.156  0.2534  0.2484  0.0016
  473loPI   C1B 7565  10.286  11.960  10.225 -0.0227 -0.1328  0.1146
  473loPI   C2B 7566  10.295  11.942   9.868  0.3252 -0.0331  0.1422
  473loPI   C3B 7567  10.208  11.937   9.435 -0.1087  0.2870 -0.2718
  473loPI   C4B 7568  10.159  12.041   9.091 -0.0855 -0.1822 -0.0248
  474loPI    C1 7569   1.488  12.685  10.752 -0.2493 -0.0692  0.0957
  474loPI    C2 7570   1.627  12.979  10.985 -0.0860  0.1212 -0.2342
  474loPI    C3 7571   1.236  12.956  10.904 -0.1233  0.1408 -0.0642
  474loPI   PO4 7572   1.668  12.667  10.480  0.1640  0.0650 -0.1814
  474loPI   GL1 7573   1.558  12.634  10.112 -0.1063  0.0862  0.0441
  474loPI   GL2 7574   1.702  12.916  10.014  0.1114 -0.1814  0.2768
  474loPI   C1A 7575   1.792  12.493   9.710  0.1893 -0.2528  0.0823
  474loPI   C2A 7576   1.866  12.653   9.313  0.1264  0.0473  0.0764
  474loPI   C3A 7577   2.091  12.577   8.984  0.1489 -0.0790  0.1169
  474loPI   C4A 7578   2.141  12.451   8.620 -0.3661  0.1665  0.1560
  474loPI   C5A 7579   2.202  12.355   8.234  0.1872  0.3748  0.3344
  474loPI   C6A 7580   2.606  12.375   7.927 -0.0041 -0.2663  0.3505
  474loPI   C1B 7581   1.680  12.988   9.626  0.0743  0.1347  0.0719
  474loPI   C2B 7582   1.539  12.972   9.189 -0.0138 -0.4296 -0.1736
  474loPI   C3B 7583   1.709  12.940   8.746  0.1434  0.1712 -0.2545
  474loPI   C4B 7584   2.143  12.967   8.643 -0.0064 -0.1389  0.4663
  475loPI    C1 7585   6.240  11.871  11.192 -0.1286  0.2056 -0.3021
  475loPI    C2 7586   6.200  12.055  11.545 -0.1946 -0.2054 -0.0893
  475loPI    C3 7587   6.541  12.090  11.339 -0.0371 -0.2149  0.1649
  475loPI   PO4 7588   6.021  12.012  11.057  0.3040  0.3233  0.1595
  475loPI   GL1 7589   6.014  12.116  10.697  0.0668 -0.1608 -0.4276
  475loPI   GL2 7590   6.147  11.876  10.599 -0.1582  0.2290  0.2053
  475loPI   C1A 7591   5.855  12.351  10.298 -0.2722 -0.2254 -0.1108
  475loPI   C2A 7592   5.856  12.395   9.910 -0.0325  0.1101  0.0932
  475loPI   C3A 7593   5.996  12.393   9.437 -0.1375 -0.1518 -0.0300
  475loPI   C4A 7594   5.963  12.444   9.020 -0.2699 -0.1259 -0.0014
  475loPI   C5A 7595   5.926  12.499   8.527 -0.0338 -0.1976 -0.0093
  475loPI   C6A 7596   6.158  12.246   8.214  0.0676 -0.1975  0.3574
  475loPI   C1B 7597   6.212  12.066  10.209 -0.0702  0.0522  0.2378
  475loPI   C2B 7598   6.208  12.014   9.801 -0.2772 -0.1334  0.1152
  475loPI   C3B 7599   6.277  11.980   9.312 -0.0460 -0.0394 -0.3309
  475loPI   C4B 7600   6.248  11.986   8.878  0.1507 -0.0355  0.0665
  476loPI    C1 7601  15.492   3.367  10.891 -0.1171 -0.2531  0.0559
  476loPI    C2 7602  15.712   3.044  10.978  0.1776 -0.0634  0.0315
  476loPI    C3 7603  15.502   3.227  11.265 -0.1649 -0.3990  0.0033
  476loPI   PO4 7604  15.426   3.422  10.696  0.1299  0.1655 -0.0518
  476loPI   GL1 7605  15.462   3.594  10.305  0.2353 -0.3519 -0.0872
  476loPI   GL2 7606  15.803   3.582  10.224 -0.1689  0.1327 -0.3243
  476loPI   C1A 7607  15.202   3.511   9.879  0.0931  0.0306 -0.1998
  476loPI   C2A 7608  15.096   3.471   9.537 -0.0235  0.0954 -0.2484
  476loPI   C3A 7609  14.995   3.504   9.168 -0.2156  0.1953  0.0393
  476loPI   C4A 7610  15.133   3.713   8.841  0.0973  0.0439 -0.2070
  476loPI   C5A 7611  15.107   3.776   8.424 -0.0364  0.1966 -0.1694
  476loPI   C6A 7612  14.893   3.705   8.014  0.1853 -0.0209  0.3678
  476loPI   C1B 7613  15.756   3.835   9.900  0.0330  0.1821 -0.0544
  476loPI   C2B 7614  15.769   4.007   9.521  0.5475  0.0438  0.0668
  476loPI   C3B 7615  15.912   4.170   9.144  0.2914  0.2095  0.1090
  476loPI   C4B 7616  15.966   4.079   8.740  0.0582 -0.1558 -0.0673
  477loPI    C1 7617   6.395  15.003  10.763  0.1186  0.0614 -0.1240
  477loPI    C2 7618   6.159  15.326  10.765 -0.1349 -0.1199 -0.1010
  477loPI    C3 7619   6.238  15.133  11.107 -0.1849 -0.2249 -0.1483
  477loPI   PO4 7620   6.421  14.996  10.419 -0.0915 -0.1955 -0.2250
  477loPI   GL1 7621   6.432  15.267  10.191 -0.3774 -0.0980  0.0329
  477loPI   GL2 7622   6.783  15.255  10.182  0.0592 -0.2214 -0.3482
  477loPI   C1A 7623   6.171  15.183   9.877 -0.0655 -0.3310  0.1202
  477loPI   C2A 7624   6.212  15.085   9.423 -0.0105 -0.0025 -0.0058
  477loPI   C3A 7625   6.269  15.157   8.943  0.1639  0.2443  0.0483
  477loPI   C4A 7626   6.200  15.130   8.522  0.0917  0.1309 -0.0140
  477loPI   C5A 7627   6.246  14.938   8.053  0.1131  0.1788  0.0563
  477loPI   C6A 7628   6.513  14.784   7.825 -0.2787  0.2033 -0.2388
  477loPI   C1B 7629   6.698  15.161   9.674  0.2837 -0.3538 -0.0517
  477loPI   C2B 7630   6.705  15.207   9.220  0.4283  0.0618  0.1433
  477loPI   C3B 7631   6.708  15.230   8.768 -0.0797  0.0032 -0.3003
  477loPI   C4B 7632   6.670  15.126   8.280  0.1048  0.0197  0.0352
  478loPI    C1 7633   0.271   5.501  11.042 -0.0732 -0.0428 -0.0339
  478loPI    C2 7634   0.097   5.141  11.034  0.0288 -0.0914 -0.0909
  478loPI    C3 7635   0.402   5.210  11.284  0.0158 -0.0475 -0.0872
  478loPI   PO4 7636   0.323   5.539  10.850 -0.2348  0.0140  0.0740
  478loPI   GL1 7637   0.453   5.559  10.470 -0.1238 -0.1301  0.3062
  478loPI   GL2 7638   0.270   5.739  10.326  0.1855  0.1493 -0.0265
  478loPI   C1A 7639   0.776   5.390  10.148 -0.0639 -0.1758  0.0188
  478loPI   C2A 7640   0.910   5.380   9.713 -0.1031  0.1384 -0.1942
  478loPI   C3A 7641   0.925   5.021   9.473  0.0406  0.0786 -0.1831
  478loPI   C4A 7642   0.830   4.840   9.083  0.1357 -0.0618 -0.2687
  478loPI   C5A 7643   0.778   4.901   8.647 -0.2358  0.4686 -0.1056
  478loPI   C6A 7644   0.850   5.063   8.252 -0.2364 -0.0795  0.2400
  478loPI   C1B 7645   0.401   5.584   9.944 -0.1717  0.1796  0.1235
  478loPI   C2B 7646   0.604   5.707   9.630 -0.4506  0.1335  0.1533
  478loPI   C3B 7647   0.633   5.623   9.286  0.0679 -0.0908  0.2137
  478loPI   C4B 7648   0.922   5.339   9.019 -0.2785 -0.4838 -0.0746
  479loPI    C1 7649   7.467   1.212  10.963  0.0398  0.1673 -0.0006
  479loPI    C2 7650   7.199   1.313  11.243  0.2406  0.4606  0.0913
  479loPI    C3 7651   7.505   1.073  11.337  0.0066  0.1103 -0.0182
  479loPI   PO4 7652   7.414   1.239  10.763  0.2655 -0.1044 -0.2953
  479loPI   GL1 7653   7.339   1.097  10.321 -0.0848  0.2673  0.1028
  479loPI   GL2 7654   7.501   0.858  10.370 -0.1029  0.0415  0.2214
  479loPI   C1A 7655   7.134   1.332   9.975 -0.0496  0.1093 -0.1910
  479loPI   C2A 7656   7.090   1.253   9.566 -0.2230 -0.0613 -0.0380
  479loPI   C3A 7657   7.104   1.271   9.057  0.0191  0.4318 -0.0184
  479loPI   C4A 7658   7.206   1.278   8.628  0.2856  0.0038 -0.1038
  479loPI   C5A 7659   7.333   1.350   8.229 -0.1171 -0.1366  0.1980
  479loPI   C6A 7660   7.066   1.253   7.970 -0.0968 -0.0318  0.0382
  479loPI   C1B 7661   7.458   0.809   9.925 -0.0220  0.1606  0.1869
  479loPI   C2B 7662   7.396   0.883   9.451  0.1903  0.1136  0.3220
  479loPI   C3B 7663   7.470   0.911   8.914 -0.3936 -0.1638  0.0989
  479loPI   C4B 7664   7.485   0.888   8.354 -0.3324 -0.0671 -0.2023
  480loPI    C1 7665  12.240  11.069  10.889  0.1682  0.4097 -0.2415
  480loPI    C2 7666  12.556  11.275  11.021  0.1155  0.1294  0.3550
  480loPI    C3 7667  12.220  11.264  11.238 -0.1044 -0.0558  0.0138
  480loPI   PO4 7668  12.309  10.840  10.801 -0.1362  0.0019  0.0943
  480loPI   GL1 7669  12.457  10.633  10.455  0.0089 -0.0530 -0.1401
  480loPI   GL2 7670  12.387  10.809  10.260 -0.1354 -0.3565  0.1162
  480loPI   C1A 7671  12.141  10.441  10.189  0.3200 -0.0663  0.0354
  480loPI   C2A 7672  12.076  10.407   9.738 -0.1784 -0.1530 -0.1415
  480loPI   C3A 7673  11.968  10.430   9.367  0.7065 -0.1471  0.0365
  480loPI   C4A 7674  12.081  10.421   8.878  0.0506  0.2183 -0.0034
  480loPI   C5A 7675  12.035  10.472   8.549 -0.0704  0.1460 -0.2244
  480loPI   C6A 7676  11.596  10.456   8.366  0.2376 -0.0931 -0.2529
  480loPI   C1B 7677  12.225  10.874   9.846  0.1140 -0.0128  0.0719
  480loPI   C2B 7678  12.265  10.795   9.456  0.0576  0.0814  0.2657
  480loPI   C3B 7679  12.129  10.858   9.099  0.1850 -0.1251 -0.3228
  480loPI   C4B 7680  12.244  10.883   8.685 -0.0889  0.0740 -0.2554
  481loPI    C1 7681  12.128   2.938  11.186 -0.0047 -0.0108  0.1666
  481loPI    C2 7682  12.441   3.024  10.951 -0.1662  0.0006 -0.0477
  481loPI    C3 7683  12.386   3.224  11.293  0.0155  0.0540 -0.0489
  481loPI   PO4 7684  11.895   3.012  11.005 -0.4238  0.0961 -0.0804
  481loPI   GL1 7685  11.958   3.082  10.527 -0.3072 -0.0625  0.1730
  481loPI   GL2 7686  12.046   2.731  10.622 -0.0850 -0.0511  0.1375
  481loPI   C1A 7687  11.684   2.846  10.286  0.0540 -0.1249  0.1408
  481loPI   C2A 7688  11.672   2.753   9.857 -0.0184  0.0277  0.0977
  481loPI   C3A 7689  11.509   3.010   9.476  0.0048 -0.1342  0.2451
  481loPI   C4A 7690  11.424   3.066   9.054 -0.0214 -0.2368  0.1645
  481loPI   C5A 7691  11.434   3.083   8.644 -0.2053  0.1003  0.1412
  481loPI   C6A 7692  11.263   2.717   8.424  0.1144  0.3197 -0.0268
  481loPI   C1B 7693  12.144   2.813  10.110  0.0350  0.1713 -0.1311
  481loPI   C2B 7694  12.246   2.840   9.719 -0.1007  0.2401 -0.0470
  481loPI   C3B 7695  12.293   2.691   9.265  0.1738 -0.0473  0.1219
  481loPI   C4B 7696  12.311   2.761   8.911 -0.2609 -0.0625  0.0534
  482loPI    C1 7697   2.885  16.380  10.394  0.1891  0.1237  0.0208
  482loPI    C2 7698   2.656  16.700  10.468 -0.2407 -0.1124 -0.2444
  482loPI    C3 7699   2.649  16.387  10.717  0.0094 -0.0108 -0.1056
  482loPI   PO4 7700   2.741  16.233  10.159  0.3680  0.1906 -0.2293
  482loPI   GL1 7701   2.524  16.310   9.662  0.2081 -0.2148  0.0790
  482loPI   GL2 7702   2.729  16.000   9.607  0.1895 -0.2818 -0.0099
  482loPI   C1A 7703   2.331  16.323   9.227  0.0364 -0.2597 -0.0269
  482loPI   C2A 7704   2.372  16.642   8.950  0.0693 -0.0044 -0.1443
  482loPI   C3A 7705   2.025  16.816   8.584  0.1054 -0.0085  0.1745
  482loPI   C4A 7706   1.813  17.149   8.441 -0.0096 -0.0627 -0.1541
  482loPI   C5A 7707   1.723  17.612   8.575 -0.1305 -0.1321  0.0998
  482loPI   C6A 7708   1.458  17.921   8.488 -0.3451 -0.1599 -0.4703
  482loPI   C1B 7709   2.667  15.975   9.208 -0.0217  0.2353 -0.2449
  482loPI   C2B 7710   2.578  16.051   8.822  0.0267  0.1243  0.2360
  482loPI   C3B 7711   2.665  16.179   8.476  0.0687 -0.3134 -0.2649
  482loPI   C4B 7712   2.850  16.138   8.080 -0.0436  0.2299  0.4094
  483loPI    C1 7713  15.592   5.199  10.568 -0.0942 -0.1495  0.1461
  483loPI    C2 7714  15.393   5.363  10.874  0.1152  0.4154 -0.0075
  483loPI    C3 7715  15.791   5.394  10.855  0.1445  0.0192 -0.1286
  483loPI   PO4 7716  15.440   5.393  10.326 -0.0558 -0.1902  0.0885
  483loPI   GL1 7717  15.241   5.226   9.996 -0.0227  0.1712  0.1492
  483loPI   GL2 7718  15.004   5.014   9.914  0.1928  0.1121  0.2377
  483loPI   C1A 7719  15.488   5.337   9.632 -0.2078  0.0288  0.2547
  483loPI   C2A 7720  15.524   5.359   9.216 -0.0706 -0.0590 -0.3230
  483loPI   C3A 7721  15.322   5.370   8.819  0.0308  0.0950  0.1508
  483loPI   C4A 7722  15.304   5.371   8.414 -0.0092  0.0117 -0.0726
  483loPI   C5A 7723  15.182   5.066   8.096  0.4366 -0.3188 -0.1592
  483loPI   C6A 7724  15.019   4.760   8.043  0.1806 -0.2978 -0.1613
  483loPI   C1B 7725  14.874   5.175   9.591 -0.1839  0.1388  0.1725
  483loPI   C2B 7726  14.836   5.368   9.145 -0.4141 -0.1021 -0.0859
  483loPI   C3B 7727  14.885   5.250   8.713  0.2700 -0.1882 -0.1497
  483loPI   C4B 7728  14.784   5.300   8.373 -0.1890 -0.0998  0.3688
  484loPI    C1 7729   7.084   2.189  11.209  0.1201  0.0509 -0.0165
  484loPI    C2 7730   7.219   2.530  11.369  0.3152  0.0655 -0.2074
  484loPI    C3 7731   7.196   2.198  11.592  0.1340  0.1991 -0.0235
  484loPI   PO4 7732   7.114   2.169  11.002 -0.0537 -0.2271 -0.2873
  484loPI   GL1 7733   7.149   2.212  10.596  0.1506 -0.0551  0.1792
  484loPI   GL2 7734   7.479   2.175  10.660  0.2093  0.1842 -0.0930
  484loPI   C1A 7735   7.042   2.159  10.177  0.0066 -0.1734  0.3230
  484loPI   C2A 7736   7.085   2.185   9.720  0.1651 -0.0791 -0.2379
  484loPI   C3A 7737   7.039   2.191   9.281  0.2054 -0.2153 -0.2230
  484loPI   C4A 7738   6.970   2.238   8.867  0.0754 -0.0451  0.0937
  484loPI   C5A 7739   6.971   2.307   8.422 -0.0126  0.2527 -0.0767
  484loPI   C6A 7740   6.634   2.328   8.233 -0.1527  0.0314 -0.2307
  484loPI   C1B 7741   7.511   2.216  10.224  0.0246  0.2079 -0.1156
  484loPI   C2B 7742   7.570   2.147   9.841  0.1660  0.2922 -0.1413
  484loPI   C3B 7743   7.541   2.241   9.460  0.0854  0.1026 -0.1593
  484loPI   C4B 7744   7.599   2.311   9.056  0.0732 -0.1046 -0.0246
  485loPI    C1 7745   9.703   1.582  11.107 -0.0329 -0.0688  0.1892
  485loPI    C2 7746  10.011   1.774  11.275  0.0579  0.1303 -0.1917
  485loPI    C3 7747   9.995   1.375  11.285  0.1155  0.1334  0.1855
  485loPI   PO4 7748   9.665   1.782  10.882 -0.2599 -0.0504  0.1048
  485loPI   GL1 7749   9.486   1.581  10.485  0.0528  0.0303  0.0937
  485loPI   GL2 7750   9.835   1.463  10.383 -0.1432 -0.1242 -0.0558
  485loPI   C1A 7751   9.263   1.512  10.206  0.4069  0.1745 -0.0543
  485loPI   C2A 7752   9.159   1.466   9.792  0.0350  0.0936 -0.2094
  485loPI   C3A 7753   9.123   1.472   9.369 -0.1202 -0.0650  0.2553
  485loPI   C4A 7754   9.151   1.474   8.906 -0.1064  0.0393 -0.0682
  485loPI   C5A 7755   9.300   1.663   8.441 -0.0331  0.0238  0.0228
  485loPI   C6A 7756   9.616   1.469   8.187  0.1886 -0.1926 -0.0398
  485loPI   C1B 7757   9.718   1.591  10.029 -0.1424  0.0095  0.0479
  485loPI   C2B 7758   9.696   1.559   9.532  0.0855  0.0124 -0.1241
  485loPI   C3B 7759   9.683   1.540   9.103  0.0178 -0.4015 -0.0282
  485loPI   C4B 7760   9.688   1.608   8.718 -0.0999 -0.2563  0.0051
  486loPI    C1 7761   8.509   9.075  11.032  0.1185  0.0467  0.0202
  486loPI    C2 7762   8.499   9.471  11.089 -0.0549  0.0542 -0.0554
  486loPI    C3 7763   8.759   9.246  11.293  0.0142  0.2013  0.0204
  486loPI   PO4 7764   8.472   9.081  10.742 -0.0120  0.0398  0.1061
  486loPI   GL1 7765   8.544   9.062  10.314  0.0508  0.5841 -0.1044
  486loPI   GL2 7766   8.394   8.733  10.301  0.1164  0.2051 -0.2574
  486loPI   C1A 7767   8.821   9.157   9.967  0.0351  0.0672 -0.1953
  486loPI   C2A 7768   8.913   9.200   9.545  0.0017 -0.0841  0.3073
  486loPI   C3A 7769   8.906   9.150   9.106 -0.2500 -0.2158 -0.0612
  486loPI   C4A 7770   8.919   9.129   8.644 -0.0707 -0.0273  0.0552
  486loPI   C5A 7771   9.399   9.203   8.391 -0.1337  0.0821 -0.3381
  486loPI   C6A 7772   9.836   9.268   8.238  0.0766  0.1720  0.0671
  486loPI   C1B 7773   8.623   8.730   9.841 -0.0321 -0.1124 -0.0642
  486loPI   C2B 7774   8.666   8.755   9.357  0.0483 -0.1244  0.0261
  486loPI   C3B 7775   8.682   8.636   8.905 -0.0325 -0.4128 -0.3855
  486loPI   C4B 7776   8.676   8.518   8.512 -0.1730 -0.1651  0.1605
  487loPI    C1 7777  11.190   2.471  11.117 -0.2111 -0.2238  0.2824
  487loPI    C2 7778  11.430   2.151  11.103 -0.1913 -0.2088  0.2787
  487loPI    C3 7779  11.572   2.501  11.232 -0.0867 -0.0874 -0.1479
  487loPI   PO4 7780  11.081   2.485  10.862  0.2540 -0.0832 -0.0711
  487loPI   GL1 7781  11.122   2.831  10.551 -0.1877 -0.0892  0.0169
  487loPI   GL2 7782  11.082   3.062  10.400 -0.3300 -0.0300  0.0066
  487loPI   C1A 7783  11.253   2.612  10.132 -0.0268 -0.1323 -0.0653
  487loPI   C2A 7784  11.178   2.660   9.768 -0.1285  0.1469  0.0251
  487loPI   C3A 7785  11.144   2.664   9.356 -0.2009 -0.2113 -0.1544
  487loPI   C4A 7786  11.197   2.515   8.907 -0.1333 -0.2089  0.1843
  487loPI   C5A 7787  11.448   2.253   8.603 -0.1346  0.0145 -0.1287
  487loPI   C6A 7788  11.271   2.057   8.271  0.1775  0.0365 -0.0339
  487loPI   C1B 7789  10.894   3.041  10.047 -0.0374  0.0921 -0.2022
  487loPI   C2B 7790  10.964   3.043   9.603 -0.1749  0.0132  0.1383
  487loPI   C3B 7791  10.906   3.101   9.193 -0.1248  0.2520  0.1450
  487loPI   C4B 7792  10.933   3.023   8.741 -0.1204 -0.1738  0.2581
  488loPI    C1 7793   3.302  13.737  10.952 -0.2068  0.0597  0.3257
  488loPI    C2 7794   3.608  13.783  11.206 -0.0013  0.0765  0.0795
  488loPI    C3 7795   3.441  13.423  11.157  0.0968  0.0303  0.0829
  488loPI   PO4 7796   3.403  13.780  10.703 -0.1360 -0.0363 -0.2113
  488loPI   GL1 7797   3.157  13.869  10.324  0.1616 -0.2363  0.0518
  488loPI   GL2 7798   3.092  13.577  10.283 -0.1327 -0.2320  0.1183
  488loPI   C1A 7799   3.259  14.052   9.853 -0.1221 -0.2353 -0.0207
  488loPI   C2A 7800   3.251  14.089   9.479 -0.1524 -0.1499 -0.0546
  488loPI   C3A 7801   3.241  14.065   9.070  0.0362  0.1344 -0.1001
  488loPI   C4A 7802   3.196  13.979   8.667 -0.1594 -0.0153 -0.1084
  488loPI   C5A 7803   3.049  13.642   8.452  0.1563 -0.1565  0.0350
  488loPI   C6A 7804   2.830  13.259   8.406  0.1083 -0.1031  0.0146
  488loPI   C1B 7805   3.320  13.409   9.980 -0.0754 -0.0350  0.0950
  488loPI   C2B 7806   3.511  13.586   9.680 -0.1222  0.2512 -0.2579
  488loPI   C3B 7807   3.448  13.571   9.210  0.0443 -0.5237 -0.0498
  488loPI   C4B 7808   3.474  13.608   8.804 -0.0709  0.1419 -0.0919
  489loPI    C1 7809  13.238  13.425  10.893 -0.0194 -0.3279 -0.0180
  489loPI    C2 7810  13.499  13.227  11.122  0.1011 -0.0217  0.1147
  489loPI    C3 7811  13.260  13.504  11.284  0.0100  0.0192 -0.0863
  489loPI   PO4 7812  13.447  13.494  10.638  0.0672  0.1224 -0.2640
  489loPI   GL1 7813  13.383  13.731  10.307  0.2039  0.2571  0.0835
  489loPI   GL2 7814  13.103  13.623  10.135 -0.4981  0.0761  0.1045
  489loPI   C1A 7815  13.609  13.751   9.887  0.1295  0.0004 -0.1465
  489loPI   C2A 7816  13.650  13.712   9.466 -0.0515  0.1640  0.1191
  489loPI   C3A 7817  13.481  13.677   9.087  0.1499  0.2362  0.2110
  489loPI   C4A 7818  13.261  13.629   8.618  0.1327 -0.2119 -0.3593
  489loPI   C5A 7819  13.375  13.886   8.248  0.1040  0.0593 -0.1026
  489loPI   C6A 7820  13.472  14.210   7.973  0.3715 -0.1551  0.0360
  489loPI   C1B 7821  13.126  13.666   9.727 -0.0131 -0.1783  0.3348
  489loPI   C2B 7822  13.022  13.601   9.300  0.2441  0.1682  0.0496
  489loPI   C3B 7823  12.834  13.594   8.870  0.0121 -0.0887  0.0495
  489loPI   C4B 7824  12.820  13.677   8.330  0.0180 -0.0451  0.1035
  490loPI    C1 7825  16.980   9.995  10.798  0.1546  0.0546  0.0129
  490loPI    C2 7826  16.781   9.958  11.144  0.0059  0.2981 -0.0444
  490loPI    C3 7827  17.137   9.781  11.097 -0.1860 -0.1273  0.0665
  490loPI   PO4 7828  16.821   9.956  10.562 -0.0229 -0.4149 -0.0467
  490loPI   GL1 7829  16.792   9.632  10.325 -0.1219 -0.2100  0.2369
  490loPI   GL2 7830  16.427   9.579  10.427  0.1293 -0.1542 -0.2551
  490loPI   C1A 7831  16.642   9.814   9.977 -0.0450 -0.0214 -0.0238
  490loPI   C2A 7832  16.739   9.983   9.548 -0.0203 -0.2418  0.2211
  490loPI   C3A 7833  17.054   9.843   9.317  0.1464 -0.3671  0.0611
  490loPI   C4A 7834  17.114   9.648   8.971  0.0771 -0.1547 -0.2456
  490loPI   C5A 7835  17.304   9.549   8.663  0.0152 -0.0002  0.0053
  490loPI   C6A 7836  17.303   9.521   8.151 -0.1823 -0.4901  0.1868
  490loPI   C1B 7837  16.241   9.492  10.052  0.0581 -0.4102  0.0781
  490loPI   C2B 7838  16.397   9.634   9.554  0.2139  0.0109  0.2650
  490loPI   C3B 7839  16.174   9.707   9.096 -0.2017 -0.2170 -0.1943
  490loPI   C4B 7840  16.196   9.734   8.637 -0.0513 -0.2610  0.2612
  491loPI    C1 7841  11.824  12.425  11.135  0.0269  0.0922  0.0844
  491loPI    C2 7842  11.851  12.451  11.533  0.0524  0.0394  0.0862
  491loPI    C3 7843  11.736  12.768  11.319  0.0930  0.0843  0.1310
  491loPI   PO4 7844  11.846  12.126  11.074  0.1365 -0.1715 -0.1661
  491loPI   GL1 7845  11.823  11.974  10.615 -0.2633 -0.2310 -0.1901
  491loPI   GL2 7846  11.857  11.731  10.374 -0.0476 -0.0275 -0.0713
  491loPI   C1A 7847  12.086  12.154  10.193  0.0846 -0.1035 -0.0097
  491loPI   C2A 7848  11.905  12.241   9.764 -0.0715  0.0124  0.0512
  491loPI   C3A 7849  11.741  12.153   9.439  0.1912  0.3303 -0.2855
  491loPI   C4A 7850  11.758  11.998   9.005 -0.0147  0.0762 -0.3401
  491loPI   C5A 7851  11.610  12.084   8.582 -0.0057  0.3134 -0.1041
  491loPI   C6A 7852  11.935  12.280   8.269 -0.1982  0.2534  0.0632
  491loPI   C1B 7853  11.724  11.777  10.048  0.0753  0.0342  0.0313
  491loPI   C2B 7854  11.624  11.648   9.604  0.2031  0.0870  0.0115
  491loPI   C3B 7855  11.475  11.636   9.200  0.1034  0.2555  0.0822
  491loPI   C4B 7856  11.468  11.630   8.725  0.4259 -0.1572  0.1172
  492loPI    C1 7857  11.265  15.491  11.240 -0.0419  0.1112  0.2490
  492loPI    C2 7858  10.987  15.718  11.417  0.1190  0.3664  0.1799
  492loPI    C3 7859  11.199  15.456  11.633 -0.3394 -0.0093  0.1906
  492loPI   PO4 7860  11.114  15.391  10.990  0.0561 -0.1014  0.0404
  492loPI   GL1 7861  11.320  15.316  10.575 -0.2501 -0.1243  0.1295
  492loPI   GL2 7862  11.377  15.707  10.729  0.1795  0.0022 -0.0746
  492loPI   C1A 7863  11.070  15.276  10.199  0.0292  0.1031 -0.2052
  492loPI   C2A 7864  11.190  15.166   9.772  0.2302  0.4344 -0.1020
  492loPI   C3A 7865  11.162  15.265   9.348  0.0661 -0.2217  0.0181
  492loPI   C4A 7866  11.152  15.278   8.907 -0.1638 -0.0743  0.1089
  492loPI   C5A 7867  11.379  15.393   8.539 -0.0481 -0.3819 -0.1901
  492loPI   C6A 7868  11.753  15.463   8.302  0.0606  0.1498  0.2561
  492loPI   C1B 7869  11.423  15.748  10.315 -0.2896  0.0465 -0.0791
  492loPI   C2B 7870  11.357  15.666   9.887  0.0103 -0.1354 -0.0567
  492loPI   C3B 7871  11.408  15.723   9.386  0.2084 -0.2440  0.2065
  492loPI   C4B 7872  11.353  15.755   8.935 -0.1326 -0.0105 -0.3711
  493loPI    C1 7873   5.504  10.070  11.213  0.2762  0.1006 -0.1076
  493loPI    C2 7874   5.850   9.999  11.401  0.1850 -0.0875 -0.0069
  493loPI    C3 7875   5.613   9.694  11.297  0.0970  0.0339 -0.1680
  493loPI   PO4 7876   5.556  10.212  11.014 -0.0024  0.1925 -0.0609
  493loPI   GL1 7877   5.527  10.481  10.721  0.0670  0.0184  0.0003
  493loPI   GL2 7878   5.756  10.261  10.559 -0.0148 -0.0218  0.0403
  493loPI   C1A 7879   5.412  10.563  10.275  0.0978 -0.2784 -0.1612
  493loPI   C2A 7880   5.533  10.681   9.894 -0.2000  0.0629  0.2148
  493loPI   C3A 7881   5.632  10.599   9.522  0.1495  0.3161  0.2681
  493loPI   C4A 7882   5.590  10.599   9.081 -0.0406 -0.0909 -0.0400
  493loPI   C5A 7883   5.563  10.517   8.589 -0.2697  0.0962  0.1542
  493loPI   C6A 7884   5.797  10.150   8.424 -0.1702 -0.0328  0.1531
  493loPI   C1B 7885   5.727  10.133  10.119  0.2024 -0.3836 -0.2888
  493loPI   C2B 7886   5.823  10.193   9.738 -0.1010  0.0101 -0.1808
  493loPI   C3B 7887   5.876  10.119   9.360 -0.1416 -0.0529 -0.0214
  493loPI   C4B 7888   5.949  10.224   8.937  0.1050  0.0412  0.2345
  494loPI    C1 7889   2.046  15.021  10.378  0.1260  0.2266 -0.0284
  494loPI    C2 7890   1.742  14.769  10.315  0.2516  0.0781 -0.0464
  494loPI    C3 7891   1.678  15.117  10.501  0.1047 -0.0365  0.1198
  494loPI   PO4 7892   2.179  15.041  10.150  0.1310  0.3874 -0.2355
  494loPI   GL1 7893   2.193  15.133   9.759 -0.1029 -0.1150  0.1488
  494loPI   GL2 7894   2.087  15.441   9.745  0.0413 -0.0211  0.2039
  494loPI   C1A 7895   2.126  15.089   9.328 -0.1945 -0.2551 -0.3232
  494loPI   C2A 7896   2.184  15.051   8.862 -0.3388  0.0946 -0.1986
  494loPI   C3A 7897   2.488  14.837   8.689 -0.2545 -0.1814  0.1696
  494loPI   C4A 7898   2.751  14.726   8.358 -0.1252  0.0253 -0.1253
  494loPI   C5A 7899   2.767  14.690   7.902  0.2046  0.0241 -0.0022
  494loPI   C6A 7900   2.711  14.331   7.704 -0.3220 -0.0292 -0.0301
  494loPI   C1B 7901   2.221  15.685   9.361 -0.3887  0.0335  0.0079
  494loPI   C2B 7902   2.588  15.595   8.960 -0.1876  0.0195  0.1700
  494loPI   C3B 7903   2.545  15.325   8.573  0.0877  0.0806  0.0827
  494loPI   C4B 7904   2.776  15.261   8.224 -0.1702 -0.2162  0.1749
  495loPI    C1 7905  12.998  16.537  10.832  0.0958  0.2038 -0.0590
  495loPI    C2 7906  13.096  16.462  11.213  0.0089 -0.0436 -0.0836
  495loPI    C3 7907  13.369  16.612  10.962  0.0513  0.1733  0.0885
  495loPI   PO4 7908  12.866  16.341  10.754  0.1872  0.2730 -0.0967
  495loPI   GL1 7909  12.889  16.364  10.322  0.2532 -0.1206  0.2322
  495loPI   GL2 7910  12.973  16.086  10.245  0.3210  0.0724  0.1107
  495loPI   C1A 7911  12.573  16.418  10.024 -0.0898  0.2470 -0.0378
  495loPI   C2A 7912  12.576  16.379   9.571  0.2057  0.0921  0.0810
  495loPI   C3A 7913  12.584  16.302   9.120  0.5219 -0.1403  0.1412
  495loPI   C4A 7914  12.523  16.306   8.648  0.1880 -0.1669  0.1048
  495loPI   C5A 7915  12.636  15.984   8.309  0.4042  0.0825 -0.7180
  495loPI   C6A 7916  12.579  15.714   7.981 -0.0488 -0.1011 -0.3178
  495loPI   C1B 7917  12.928  15.992   9.885  0.1794 -0.2688  0.1468
  495loPI   C2B 7918  12.923  15.930   9.533 -0.1481  0.0613 -0.2997
  495loPI   C3B 7919  12.999  15.985   9.186  0.0869  0.1131  0.0573
  495loPI   C4B 7920  12.880  15.904   8.827 -0.3986  0.0160  0.0625
  496loPI    C1 7921  15.318  11.714  11.137 -0.0933  0.0339  0.1080
  496loPI    C2 7922  15.186  11.884  11.473 -0.0174  0.2364  0.0368
  496loPI    C3 7923  15.575  11.900  11.381 -0.0028 -0.0129  0.0492
  496loPI   PO4 7924  15.150  11.754  10.950 -0.1393  0.3437 -0.0523
  496loPI   GL1 7925  15.204  11.919  10.480  0.0311  0.1374  0.0227
  496loPI   GL2 7926  15.066  11.600  10.396  0.0417 -0.0889  0.0634
  496loPI   C1A 7927  15.241  11.757   9.946 -0.1361  0.0828  0.0566
  496loPI   C2A 7928  15.205  11.709   9.532 -0.1618  0.1388 -0.0936
  496loPI   C3A 7929  15.151  11.686   9.051 -0.1370 -0.1258  0.2402
  496loPI   C4A 7930  14.980  11.760   8.679  0.0336 -0.0462 -0.1471
  496loPI   C5A 7931  14.904  11.611   8.367  0.1460 -0.2922 -0.1588
  496loPI   C6A 7932  14.476  11.710   8.196  0.4307 -0.0152 -0.0281
  496loPI   C1B 7933  14.705  11.718  10.035 -0.5124  0.2906 -0.0669
  496loPI   C2B 7934  14.700  11.590   9.611 -0.1238  0.1053 -0.1605
  496loPI   C3B 7935  14.646  11.603   9.203 -0.1924 -0.1613  0.3373
  496loPI   C4B 7936  14.536  11.678   8.847 -0.1049  0.1897 -0.0995
  497loPI    C1 7937   3.299  12.083  11.047  0.1060 -0.3075 -0.0940
  497loPI    C2 7938   3.040  11.790  11.128  0.0589 -0.2067  0.1250
  497loPI    C3 7939   3.190  12.012  11.425 -0.0546  0.1170 -0.0559
  497loPI   PO4 7940   3.332  12.089  10.774  0.2345  0.0790  0.1516
  497loPI   GL1 7941   3.183  12.074  10.338  0.0101  0.0193 -0.1604
  497loPI   GL2 7942   3.368  11.772  10.286 -0.0879  0.0509 -0.2033
  497loPI   C1A 7943   3.058  12.303  10.008 -0.1014 -0.0325 -0.0326
  497loPI   C2A 7944   3.209  12.223   9.540 -0.3233 -0.1291  0.3563
  497loPI   C3A 7945   3.319  12.170   9.137 -0.0450  0.0056 -0.2400
  497loPI   C4A 7946   3.337  12.083   8.636 -0.0677 -0.0442 -0.3007
  497loPI   C5A 7947   3.186  12.377   8.359  0.0283  0.2397  0.1769
  497loPI   C6A 7948   3.048  12.788   8.224 -0.0475  0.2035  0.1083
  497loPI   C1B 7949   3.401  11.721   9.853 -0.0230 -0.0451 -0.0073
  497loPI   C2B 7950   3.540  11.771   9.431 -0.0491  0.3403 -0.2031
  497loPI   C3B 7951   3.567  11.756   8.948  0.0517  0.1313 -0.1599
  497loPI   C4B 7952   3.656  11.738   8.477  0.1466  0.0537  0.1955
  498loPI    C1 7953   4.520   6.316  11.429  0.1783  0.2571 -0.1073
  498loPI    C2 7954   4.233   6.554  11.286  0.0363 -0.0072 -0.2690
  498loPI    C3 7955   4.288   6.523  11.681 -0.2190 -0.0231 -0.2326
  498loPI   PO4 7956   4.428   6.042  11.350 -0.0850 -0.0095 -0.2262
  498loPI   GL1 7957   4.528   5.873  10.944  0.1718 -0.2622 -0.3412
  498loPI   GL2 7958   4.396   6.212  10.875  0.1131  0.3670 -0.1506
  498loPI   C1A 7959   4.523   5.689  10.520 -0.1152 -0.0785 -0.1598
  498loPI   C2A 7960   4.614   5.583  10.111 -0.1584  0.3699  0.1121
  498loPI   C3A 7961   4.664   5.656   9.731  0.1912 -0.0223 -0.0822
  498loPI   C4A 7962   4.696   5.503   9.308  0.2345 -0.1593  0.1809
  498loPI   C5A 7963   4.771   5.570   8.893  0.0188 -0.2721  0.3135
  498loPI   C6A 7964   4.738   5.824   8.494  0.1711  0.1668  0.1114
  498loPI   C1B 7965   4.173   6.062  10.576  0.1119  0.1915  0.2556
  498loPI   C2B 7966   4.265   6.105  10.181  0.1126  0.0361  0.1443
  498loPI   C3B 7967   4.374   6.068   9.670 -0.0472 -0.0751 -0.3396
  498loPI   C4B 7968   4.447   5.956   9.268  0.0280 -0.0415 -0.1267
  499loPI    C1 7969   1.350  15.898  10.350 -0.1077  0.0848 -0.1380
  499loPI    C2 7970   1.167  16.244  10.435 -0.0696  0.0386  0.1427
  499loPI    C3 7971   1.483  16.127  10.651 -0.2701 -0.3182  0.2515
  499loPI   PO4 7972   1.406  15.861  10.102 -0.1003  0.0533  0.2268
  499loPI   GL1 7973   1.137  15.741   9.878  0.2808 -0.1611  0.3968
  499loPI   GL2 7974   0.947  15.984   9.948 -0.1018  0.0534 -0.2527
  499loPI   C1A 7975   1.226  15.638   9.354  0.0485 -0.2542 -0.2972
  499loPI   C2A 7976   0.946  15.697   8.966 -0.0923 -0.0233 -0.0840
  499loPI   C3A 7977   0.752  15.780   8.623  0.0082 -0.1741 -0.0552
  499loPI   C4A 7978   0.732  15.999   8.378 -0.1492  0.0297  0.0388
  499loPI   C5A 7979   0.923  16.326   8.177  0.1241  0.2672  0.1101
  499loPI   C6A 7980   0.807  16.595   8.000  0.1943  0.1646 -0.0889
  499loPI   C1B 7981   0.935  16.154   9.492  0.0964  0.1742 -0.0375
  499loPI   C2B 7982   0.860  16.636   9.465  0.1179  0.0007 -0.1195
  499loPI   C3B 7983   0.875  17.105   9.605  0.2218 -0.1012  0.2018
  499loPI   C4B 7984   0.529  17.187   9.909 -0.1646 -0.2046  0.2400
  500loPI    C1 7985  12.203  11.707  10.841  0.0283  0.1935 -0.0263
  500loPI    C2 7986  12.590  11.769  10.920  0.0748 -0.1236  0.0107
  500loPI    C3 7987  12.319  11.799  11.212  0.0776  0.0382 -0.0023
  500loPI   PO4 7988  12.123  11.515  10.779 -0.0094 -0.0367 -0.2096
  500loPI   GL1 7989  12.106  11.203  10.370  0.1862  0.3095 -0.2392
  500loPI   GL2 7990  11.904  10.878  10.516  0.1530  0.0627  0.0273
  500loPI   C1A 7991  12.004  11.332   9.944 -0.5082  0.0700  0.1498
  500loPI   C2A 7992  11.895  11.265   9.560 -0.1947  0.3284 -0.1635
  500loPI   C3A 7993  11.856  11.242   9.077  0.1936 -0.1699 -0.0577
  500loPI   C4A 7994  11.776  11.204   8.668  0.0241  0.0741  0.0921
  500loPI   C5A 7995  11.817  10.909   8.371 -0.1047  0.1845 -0.2540
  500loPI   C6A 7996  12.149  10.805   8.189  0.0618 -0.0184 -0.2056
  500loPI   C1B 7997  11.790  10.824  10.067  0.0199 -0.1241 -0.3363
  500loPI   C2B 7998  11.717  10.813   9.680 -0.4675 -0.5574 -0.3215
  500loPI   C3B 7999  11.632  10.826   9.335  0.0304  0.0240  0.2465
  500loPI   C4B 8000  11.616  10.795   8.888 -0.1150 -0.1633  0.1907
  501loPI    C1 8001   8.285   6.034  11.357 -0.1233  0.1802  0.1347
  501loPI    C2 8002   8.593   6.067  11.610 -0.2023  0.1448  0.2360
  501loPI    C3 8003   8.245   6.244  11.695 -0.1598  0.3252  0.0413
  501loPI   PO4 8004   8.371   5.973  11.146  0.0782  0.0760  0.4135
  501loPI   GL1 8005   8.395   6.001  10.729 -0.4396  0.1799 -0.0212
  501loPI   GL2 8006   8.223   6.056  10.549  0.0394  0.4020 -0.0133
  501loPI   C1A 8007   8.642   5.856  10.342  0.2054  0.3594 -0.2148
  501loPI   C2A 8008   8.731   5.885   9.934 -0.0223 -0.0073  0.0423
  501loPI   C3A 8009   8.755   5.950   9.466  0.0894 -0.0224  0.1795
  501loPI   C4A 8010   8.766   5.940   9.095  0.0455  0.2157  0.2011
  501loPI   C5A 8011   8.665   5.946   8.596  0.1126  0.1804 -0.0728
  501loPI   C6A 8012   8.648   5.681   8.256  0.1983  0.0300  0.2431
  501loPI   C1B 8013   8.055   6.347  10.260 -0.0093  0.0574  0.0268
  501loPI   C2B 8014   7.975   6.276   9.882  0.0713 -0.0336  0.0525
  501loPI   C3B 8015   8.078   6.302   9.481 -0.0079 -0.0428 -0.1470
  501loPI   C4B 8016   8.036   6.334   9.025 -0.2533 -0.1301  0.1311
  502loPI    C1 8017  13.647  12.493  10.817 -0.1263 -0.0736  0.0338
  502loPI    C2 8018  13.738  12.783  11.076 -0.1485  0.0694 -0.1170
  502loPI    C3 8019  13.919  12.428  11.103  0.0531  0.1736 -0.0769
  502loPI   PO4 8020  13.554  12.594  10.615  0.1231 -0.1733  0.1843
  502loPI   GL1 8021  13.589  12.475  10.159  0.1728 -0.0706  0.2718
  502loPI   GL2 8022  13.766  12.814  10.195 -0.0292  0.1468  0.0333
  502loPI   C1A 8023  13.506  12.340   9.719  0.0588 -0.0191  0.0452
  502loPI   C2A 8024  13.415  12.379   9.342 -0.1452 -0.1115 -0.2935
  502loPI   C3A 8025  13.270  12.397   8.845 -0.0603  0.0175 -0.0489
  502loPI   C4A 8026  13.216  12.449   8.410 -0.0833  0.4238  0.3379
  502loPI   C5A 8027  12.951  12.573   8.092  0.0662 -0.0098 -0.2647
  502loPI   C6A 8028  12.797  12.890   8.112 -0.2299  0.0823  0.3435
  502loPI   C1B 8029  13.720  12.843   9.764 -0.2577 -0.1837 -0.4582
  502loPI   C2B 8030  13.668  12.868   9.338 -0.2495 -0.0685  0.2376
  502loPI   C3B 8031  13.450  12.828   9.002  0.1269  0.1095  0.3457
  502loPI   C4B 8032  13.279  12.909   8.573  0.0196  0.0211 -0.0325
  503loPI    C1 8033   6.692   1.396  11.075 -0.3301  0.0905 -0.0103
  503loPI    C2 8034   6.819   1.756  11.195 -0.0834 -0.0626  0.1974
  503loPI    C3 8035   6.778   1.460  11.461 -0.1054 -0.2403 -0.0018
  503loPI   PO4 8036   6.885   1.378  10.876 -0.2018  0.0463  0.1438
  503loPI   GL1 8037   6.910   1.146  10.497 -0.0608 -0.2143  0.2412
  503loPI   GL2 8038   6.994   1.537  10.428  0.0029 -0.0763  0.1656
  503loPI   C1A 8039   6.544   0.872  10.284 -0.0650  0.0343 -0.0485
  503loPI   C2A 8040   6.388   0.792   9.925 -0.1650 -0.1929  0.2956
  503loPI   C3A 8041   6.441   0.845   9.468 -0.1917  0.1399  0.0999
  503loPI   C4A 8042   6.436   0.698   9.055  0.1932 -0.3835 -0.1410
  503loPI   C5A 8043   6.365   0.863   8.577 -0.1815  0.4534  0.1553
  503loPI   C6A 8044   6.578   1.233   8.349  0.2087 -0.0421 -0.0866
  503loPI   C1B 8045   6.832   1.744  10.002  0.0438 -0.3237 -0.2187
  503loPI   C2B 8046   6.843   1.712   9.610  0.2098  0.1587  0.1810
  503loPI   C3B 8047   6.788   1.704   9.214  0.3751 -0.0365 -0.2778
  503loPI   C4B 8048   6.861   1.716   8.797 -0.1403 -0.1236  0.4742
  504loPI    C1 8049  13.284  15.939  10.629 -0.0508  0.0955  0.0896
  504loPI    C2 8050  13.540  15.879  10.930 -0.0049  0.1576  0.0633
  504loPI    C3 8051  13.172  16.016  11.005 -0.0955 -0.1109  0.1194
  504loPI   PO4 8052  13.235  15.701  10.515 -0.0295 -0.2536 -0.0614
  504loPI   GL1 8053  13.192  15.315  10.237 -0.0252  0.1457  0.3171
  504loPI   GL2 8054  13.405  15.514  10.139 -0.2305 -0.0262 -0.1673
  504loPI   C1A 8055  13.023  15.083   9.860  0.0478 -0.2949  0.0310
  504loPI   C2A 8056  13.051  15.028   9.470  0.2429  0.0301  0.0775
  504loPI   C3A 8057  13.087  15.008   9.091 -0.1247  0.4637 -0.2092
  504loPI   C4A 8058  12.948  15.018   8.658  0.3990 -0.3204 -0.3967
  504loPI   C5A 8059  12.745  14.735   8.357  0.0984  0.0865 -0.0972
  504loPI   C6A 8060  12.305  14.675   8.174 -0.0909  0.2001 -0.0136
  504loPI   C1B 8061  13.236  15.618   9.887  0.0773  0.1107  0.3230
  504loPI   C2B 8062  13.252  15.579   9.416  0.0353 -0.1012 -0.0538
  504loPI   C3B 8063  13.306  15.479   9.020  0.1962 -0.0523 -0.0375
  504loPI   C4B 8064  13.194  15.491   8.617  0.0405 -0.1439  0.3696
  505loPI    C1 8065  17.252   1.666  10.551 -0.1223  0.1475 -0.1776
  505loPI    C2 8066  17.010   1.431  10.337 -0.0998  0.1091 -0.1609
  505loPI    C3 8067  17.403   1.360  10.343 -0.1325 -0.0651  0.1207
  505loPI   PO4 8068  17.301   1.870  10.464 -0.2751 -0.1789 -0.1464
  505loPI   GL1 8069  17.405   1.939  10.079  0.1681 -0.0011 -0.0475
  505loPI   GL2 8070  17.038   1.860  10.004  0.1518 -0.1697 -0.0524
  505loPI   C1A 8071  17.433   1.916   9.689 -0.0284 -0.0427 -0.2437
  505loPI   C2A 8072  17.759   1.794   9.329  0.1383 -0.1249 -0.0793
  505loPI   C3A 8073  17.923   1.808   9.000 -0.0066 -0.1395  0.4714
  505loPI   C4A 8074  18.057   1.525   8.729  0.0768 -0.0877  0.0077
  505loPI   C5A 8075  18.298   1.374   8.443 -0.2993 -0.0287  0.0414
  505loPI   C6A 8076  18.323   0.908   8.401  0.0760 -0.2324  0.1578
  505loPI   C1B 8077  17.124   1.487   9.781 -0.5513  0.0144 -0.4457
  505loPI   C2B 8078  17.357   1.476   9.400  0.0933 -0.2669  0.0717
  505loPI   C3B 8079  17.520   1.479   9.029  0.1974 -0.2473  0.2440
  505loPI   C4B 8080  17.540   1.240   8.759  0.0420 -0.1232  0.1883
  506loPI    C1 8081   2.797  11.072  11.481  0.0073  0.2284  0.0238
  506loPI    C2 8082   2.731  10.783  11.750 -0.2606  0.1440 -0.1299
  506loPI    C3 8083   2.562  11.143  11.797 -0.0343  0.2360 -0.0088
  506loPI   PO4 8084   2.834  10.860  11.184  0.2343  0.2918 -0.0116
  506loPI   GL1 8085   2.777  10.809  10.683  0.1192  0.0845  0.1716
  506loPI   GL2 8086   2.658  10.821  10.470  0.0637  0.1031  0.1836
  506loPI   C1A 8087   3.029  10.837  10.176  0.1452 -0.0708 -0.1920
  506loPI   C2A 8088   3.008  10.906   9.753  0.2540 -0.0180  0.0194
  506loPI   C3A 8089   3.075  10.857   9.292 -0.1370  0.3486 -0.0013
  506loPI   C4A 8090   3.110  10.774   8.826  0.3133  0.0730 -0.1575
  506loPI   C5A 8091   3.195  10.933   8.353  0.0217 -0.0073 -0.0056
  506loPI   C6A 8092   3.444  11.277   8.139  0.2575  0.1508  0.1978
  506loPI   C1B 8093   2.519  10.790   9.976  0.1157  0.2064 -0.0274
  506loPI   C2B 8094   2.512  10.879   9.554 -0.1245 -0.1434  0.0452
  506loPI   C3B 8095   2.597  10.784   9.128 -0.2235 -0.1174  0.2720
  506loPI   C4B 8096   2.636  10.859   8.717  0.5529  0.2445  0.1705
  507loPI    C1 8097   8.914   0.767  11.183  0.1973 -0.1145 -0.1079
  507loPI    C2 8098   9.030   0.545  11.495 -0.0070  0.1694  0.1770
  507loPI    C3 8099   9.094   0.940  11.495  0.0052  0.1709 -0.1515
  507loPI   PO4 8100   8.979   0.668  10.982  0.3303 -0.0261  0.2734
  507loPI   GL1 8101   8.927   0.718  10.508  0.0531 -0.1443 -0.0593
  507loPI   GL2 8102   9.085   0.491  10.310  0.2136 -0.0535 -0.2858
  507loPI   C1A 8103   8.646   0.529  10.193  0.0778 -0.1698 -0.0996
  507loPI   C2A 8104   8.713   0.541   9.767  0.5182 -0.0267  0.0619
  507loPI   C3A 8105   8.670   0.549   9.405  0.2867  0.0457 -0.2736
  507loPI   C4A 8106   8.694   0.560   8.932 -0.1104 -0.1752 -0.0564
  507loPI   C5A 8107   8.838   0.559   8.543  0.1719 -0.0373  0.3289
  507loPI   C6A 8108   9.036   0.633   8.158  0.1604 -0.0227  0.0444
  507loPI   C1B 8109   9.205   0.634   9.841  0.1420 -0.0849  0.1936
  507loPI   C2B 8110   9.231   0.617   9.368 -0.2740  0.1882  0.2194
  507loPI   C3B 8111   9.280   0.637   8.973 -0.0248 -0.0221 -0.5612
  507loPI   C4B 8112   9.354   0.568   8.509 -0.0076  0.1746 -0.1036
  508loPI    C1 8113   1.695  13.825  10.577  0.3112  0.0626 -0.0128
  508loPI    C2 8114   1.797  13.522  10.817 -0.0788 -0.0847 -0.0263
  508loPI    C3 8115   1.658  13.863  10.974 -0.0188 -0.0589 -0.0291
  508loPI   PO4 8116   1.599  13.718  10.417  0.0130  0.0068 -0.1272
  508loPI   GL1 8117   1.753  13.577   9.951 -0.2234 -0.1568 -0.0681
  508loPI   GL2 8118   1.513  13.406  10.089  0.2223  0.2246  0.2524
  508loPI   C1A 8119   1.898  13.908   9.778 -0.1311 -0.2348  0.1700
  508loPI   C2A 8120   2.049  14.202   9.385 -0.0744  0.3180 -0.0654
  508loPI   C3A 8121   1.895  14.334   8.953 -0.1236  0.0075 -0.0224
  508loPI   C4A 8122   1.965  14.604   8.652  0.0839  0.0652 -0.0874
  508loPI   C5A 8123   2.021  14.845   8.322  0.0206 -0.1491  0.0107
  508loPI   C6A 8124   2.379  14.933   8.153  0.0606  0.0219 -0.1149
  508loPI   C1B 8125   1.341  13.409   9.685 -0.1170  0.0253  0.0434
  508loPI   C2B 8126   1.400  13.434   9.289  0.1432  0.0891  0.2572
  508loPI   C3B 8127   1.486  13.370   8.887 -0.0039 -0.1896  0.1373
  508loPI   C4B 8128   1.286  13.600   8.617 -0.0881 -0.1308  0.0510
  509loPI    C1 8129   9.651  16.004  11.031  0.1134 -0.2345  0.1130
  509loPI    C2 8130   9.467  15.962  11.384 -0.0516 -0.1557  0.0375
  509loPI    C3 8131   9.865  15.929  11.361 -0.0192  0.0450  0.2664
  509loPI   PO4 8132   9.410  15.891  10.875  0.0027  0.0510 -0.1523
  509loPI   GL1 8133   9.330  15.827  10.522  0.2185 -0.1367 -0.2833
  509loPI   GL2 8134   9.270  16.138  10.309  0.2323 -0.2983  0.0575
  509loPI   C1A 8135   9.428  15.772  10.133 -0.1511  0.1212 -0.1184
  509loPI   C2A 8136   9.430  15.856   9.697 -0.0214  0.2372  0.2105
  509loPI   C3A 8137   9.584  15.920   9.242  0.0357 -0.0184  0.1521
  509loPI   C4A 8138   9.549  15.917   8.764  0.3521  0.2128  0.0032
  509loPI   C5A 8139   9.512  15.924   8.305  0.1786  0.1307 -0.1904
  509loPI   C6A 8140   9.214  15.946   7.983  0.0369  0.2991 -0.3454
  509loPI   C1B 8141   9.165  16.267   9.906  0.0303  0.1263 -0.1399
  509loPI   C2B 8142   9.115  16.274   9.561  0.0931 -0.0071 -0.1420
  509loPI   C3B 8143   9.284  16.384   9.071 -0.2715  0.0811 -0.0200
  509loPI   C4B 8144   9.230  16.304   8.572 -0.1357 -0.2652 -0.0159
  510loPI    C1 8145   0.511  17.858  10.740 -0.0401 -0.0556 -0.0978
  510loPI    C2 8146   0.378  17.547  10.954 -0.1770  0.2042  0.2031
  510loPI    C3 8147   0.743  17.696  11.022 -0.0948  0.0847  0.0295
  510loPI   PO4 8148   0.553  17.798  10.462 -0.1014 -0.0818 -0.0762
  510loPI   GL1 8149   0.532  17.686   9.996 -0.0042 -0.0862 -0.3908
  510loPI   GL2 8150   0.164  17.806  10.028  0.2925 -0.1044 -0.0630
  510loPI   C1A 8151   0.510  17.607   9.558  0.1768 -0.3086  0.0425
  510loPI   C2A 8152   0.748  17.460   9.242  0.1455 -0.3540  0.1655
  510loPI   C3A 8153   0.962  17.622   8.986  0.4033 -0.1392 -0.1337
  510loPI   C4A 8154   0.945  17.687   8.595 -0.0395 -0.1027 -0.3402
  510loPI   C5A 8155   0.669  17.957   8.388 -0.4360 -0.1588 -0.0452
  510loPI   C6A 8156   0.295  17.945   8.498  0.0398  0.1444 -0.0347
  510loPI   C1B 8157   0.055  17.883   9.604 -0.1244  0.0572 -0.0849
  510loPI   C2B 8158  -0.047  17.776   9.207 -0.0951 -0.1344 -0.2927
  510loPI   C3B 8159  -0.142  17.680   8.736  0.4580  0.0781  0.0255
  510loPI   C4B 8160  -0.065  17.707   8.277  0.0793  0.0945 -0.0979
  511loPI    C1 8161  15.289  16.114  10.728 -0.0135  0.3928  0.0893
  511loPI    C2 8162  15.323  16.225  11.111  0.1209  0.1338  0.1551
  511loPI    C3 8163  15.634  16.058  10.923  0.0051  0.1125 -0.0201
  511loPI   PO4 8164  15.076  15.976  10.693 -0.2189 -0.3160  0.1141
  511loPI   GL1 8165  14.956  15.969  10.287  0.1103 -0.0402  0.3232
  511loPI   GL2 8166  15.291  15.998  10.249 -0.0825  0.1759 -0.3140
  511loPI   C1A 8167  14.924  15.933   9.835  0.1980  0.3356 -0.2418
  511loPI   C2A 8168  14.791  15.777   9.434  0.0710 -0.0799 -0.4402
  511loPI   C3A 8169  14.790  15.660   9.072  0.1147 -0.0047 -0.2174
  511loPI   C4A 8170  14.801  15.495   8.710 -0.0181 -0.1119  0.1333
  511loPI   C5A 8171  14.728  15.649   8.457 -0.1320  0.0338  0.1870
  511loPI   C6A 8172  14.564  15.554   8.089  0.1749 -0.0516  0.1608
  511loPI   C1B 8173  15.384  15.882   9.892  0.0850  0.0343  0.3126
  511loPI   C2B 8174  15.274  15.833   9.518 -0.0419 -0.2147 -0.1523
  511loPI   C3B 8175  15.310  15.744   9.080  0.1714  0.1426  0.2683
  511loPI   C4B 8176  15.439  15.754   8.574 -0.0406 -0.2986  0.4305
  512loPI    C1 8177  16.316   5.479  10.702  0.1575  0.1070 -0.1408
  512loPI    C2 8178  16.498   5.798  10.861  0.2938 -0.0310 -0.0161
  512loPI    C3 8179  16.337   5.520  11.099 -0.2685  0.1899 -0.1227
  512loPI   PO4 8180  16.527   5.431  10.468  0.3101 -0.3260  0.2445
  512loPI   GL1 8181  16.408   5.531  10.139  0.0293 -0.0195  0.0700
  512loPI   GL2 8182  16.169   5.687  10.003  0.0268 -0.0793 -0.3570
  512loPI   C1A 8183  16.642   5.618   9.744 -0.0084 -0.0429  0.3749
  512loPI   C2A 8184  16.648   5.725   9.331  0.4663 -0.1116  0.4251
  512loPI   C3A 8185  16.473   5.649   8.988 -0.1390  0.1890 -0.0056
  512loPI   C4A 8186  16.474   5.667   8.577 -0.0450  0.0482  0.1152
  512loPI   C5A 8187  16.187   5.528   8.156  0.0333 -0.0833 -0.2611
  512loPI   C6A 8188  16.130   5.808   7.871  0.1000 -0.1581  0.2894
  512loPI   C1B 8189  16.210   5.898   9.650  0.0278  0.0350  0.2981
  512loPI   C2B 8190  16.191   5.978   9.246  0.2803 -0.0775  0.2003
  512loPI   C3B 8191  16.097   6.078   8.841 -0.0588 -0.0986  0.1141
  512loPI   C4B 8192  16.040   5.982   8.370 -0.2756  0.1849  0.0087
  513loPI    C1 8193  17.563  16.340  10.557  0.1213  0.0481  0.0348
  513loPI    C2 8194  17.384  16.350  10.914 -0.1704 -0.0769 -0.1047
  513loPI    C3 8195  17.590  16.026  10.803 -0.0030 -0.0022 -0.0145
  513loPI   PO4 8196  17.582  16.548  10.420 -0.0931 -0.1260  0.0754
  513loPI   GL1 8197  17.735  16.501  10.107  0.0635  0.1700  0.1315
  513loPI   GL2 8198  17.949  16.429  10.029  0.1989 -0.0848 -0.1766
  513loPI   C1A 8199  17.562  16.575   9.669 -0.1668 -0.1574  0.1064
  513loPI   C2A 8200  17.453  16.708   9.243 -0.1492 -0.1065  0.2882
  513loPI   C3A 8201  17.346  16.499   8.845 -0.3312  0.1820 -0.1299
  513loPI   C4A 8202  17.082  16.388   8.698  0.1389 -0.2822  0.3180
  513loPI   C5A 8203  16.970  15.998   8.511  0.2261  0.0246 -0.1449
  513loPI   C6A 8204  16.874  15.647   8.093  0.1064  0.1157  0.1441
  513loPI   C1B 8205  17.940  16.146   9.641  0.2502 -0.1239 -0.2228
  513loPI   C2B 8206  18.148  16.039   9.169 -0.0415 -0.0737  0.1832
  513loPI   C3B 8207  18.358  16.111   8.759 -0.3323  0.0829 -0.3302
  513loPI   C4B 8208  18.709  16.173   9.020  0.2099  0.2663 -0.0302
  514loPI    C1 8209   0.484  16.662  10.460  0.0181  0.1943  0.1446
  514loPI    C2 8210   0.727  16.933  10.294  0.0281  0.0226 -0.1292
  514loPI    C3 8211   0.875  16.660  10.546  0.1644 -0.2180 -0.4645
  514loPI   PO4 8212   0.370  16.577  10.279  0.1715 -0.2418  0.3168
  514loPI   GL1 8213   0.347  16.735   9.877 -0.0910 -0.1422  0.1748
  514loPI   GL2 8214   0.031  16.846   9.757 -0.0081 -0.1448 -0.1635
  514loPI   C1A 8215   0.420  16.866   9.448 -0.0604 -0.0905  0.0244
  514loPI   C2A 8216   0.562  17.011   9.076 -0.0559 -0.0055 -0.2166
  514loPI   C3A 8217   0.853  17.034   8.722 -0.0638 -0.0734  0.1127
  514loPI   C4A 8218   1.054  16.799   8.349 -0.1638 -0.3089  0.0675
  514loPI   C5A 8219   1.396  16.581   8.188 -0.0220 -0.2114 -0.1605
  514loPI   C6A 8220   1.785  16.523   8.285 -0.1196  0.0925 -0.4198
  514loPI   C1B 8221  -0.063  16.674   9.408  0.0800  0.1019  0.0141
  514loPI   C2B 8222  -0.015  16.939   9.098 -0.2227 -0.0735 -0.0066
  514loPI   C3B 8223  -0.073  17.115   8.583  0.1963  0.0227 -0.2837
  514loPI   C4B 8224  -0.197  17.181   8.218  0.0361 -0.0629 -0.0300
  515loPI    C1 8225  17.013  15.864  10.772  0.1299  0.1620  0.1131
  515loPI    C2 8226  17.153  15.994  11.123  0.3902  0.1193  0.0271
  515loPI    C3 8227  17.252  15.630  10.990 -0.0455 -0.0320  0.1004
  515loPI   PO4 8228  17.121  16.022  10.594 -0.2302 -0.2068  0.1501
  515loPI   GL1 8229  17.093  16.115  10.179 -0.0791  0.0713  0.1498
  515loPI   GL2 8230  17.327  16.181  10.159 -0.0207  0.1970  0.0531
  515loPI   C1A 8231  17.095  15.749   9.896 -0.1609 -0.0310  0.3696
  515loPI   C2A 8232  17.108  15.799   9.450  0.2144 -0.2794 -0.1058
  515loPI   C3A 8233  17.319  15.845   8.946  0.1977 -0.0775 -0.0871
  515loPI   C4A 8234  17.468  16.024   8.607  0.3005  0.1853  0.0404
  515loPI   C5A 8235  17.456  16.333   8.370 -0.0809  0.2867 -0.0326
  515loPI   C6A 8236  17.108  16.599   8.207 -0.1241 -0.0438  0.2514
  515loPI   C1B 8237  17.309  16.154   9.706  0.2556 -0.3268  0.3730
  515loPI   C2B 8238  17.192  16.286   9.314  0.0654  0.1162 -0.1290
  515loPI   C3B 8239  16.928  16.698   9.091  0.1024 -0.2523  0.1575
  515loPI   C4B 8240  17.075  16.898   8.772 -0.0389 -0.1663 -0.0115
  516loPI    C1 8241  17.445  14.042  11.117 -0.0003  0.3149  0.0406
  516loPI    C2 8242  17.049  14.075  11.074 -0.0469 -0.1097  0.1011
  516loPI    C3 8243  17.201  13.883  11.390  0.2109  0.1023  0.1096
  516loPI   PO4 8244  17.540  13.966  10.813 -0.0930  0.3632  0.1446
  516loPI   GL1 8245  17.652  14.189  10.294 -0.2246 -0.1737  0.0147
  516loPI   GL2 8246  17.460  14.424  10.178 -0.0838  0.3818 -0.0218
  516loPI   C1A 8247  17.562  13.963  10.002 -0.3710  0.3033 -0.0699
  516loPI   C2A 8248  17.451  13.832   9.624 -0.1126  0.2509  0.0685
  516loPI   C3A 8249  17.401  13.834   9.238 -0.2119 -0.5291  0.0716
  516loPI   C4A 8250  17.558  13.802   8.828  0.1328 -0.1530  0.4113
  516loPI   C5A 8251  17.511  13.737   8.410  0.1514 -0.2986  0.1235
  516loPI   C6A 8252  17.832  13.764   8.131  0.1322  0.1570  0.1093
  516loPI   C1B 8253  17.220  14.285   9.759  0.1218 -0.3158  0.0582
  516loPI   C2B 8254  17.101  14.154   9.354 -0.0673 -0.1131  0.0553
  516loPI   C3B 8255  17.069  14.198   8.942  0.0818  0.3625 -0.2530
  516loPI   C4B 8256  17.028  14.117   8.506  0.0346  0.2391 -0.1083
  517loPI    C1 8257  15.659   1.865  10.559  0.1018  0.0921 -0.2542
  517loPI    C2 8258  15.568   2.203  10.753  0.0059  0.0647 -0.2506
  517loPI    C3 8259  15.522   1.850  10.935  0.2894  0.0583 -0.1867
  517loPI   PO4 8260  15.578   1.857  10.197  0.4687  0.1049 -0.0116
  517loPI   GL1 8261  15.383   2.163   9.875  0.0405 -0.0465  0.1635
  517loPI   GL2 8262  15.310   2.429   9.901 -0.2062 -0.0468  0.1999
  517loPI   C1A 8263  14.998   2.097   9.543 -0.1129  0.0266 -0.2897
  517loPI   C2A 8264  14.697   2.047   9.295  0.0018 -0.2855  0.1799
  517loPI   C3A 8265  14.519   2.170   8.805  0.1767 -0.4048 -0.1109
  517loPI   C4A 8266  14.196   2.484   8.666 -0.1276 -0.2341 -0.0432
  517loPI   C5A 8267  14.184   2.871   8.401  0.2685 -0.0098 -0.5745
  517loPI   C6A 8268  13.946   3.245   8.182  0.1903 -0.0086 -0.1030
  517loPI   C1B 8269  15.199   2.538   9.531  0.0471 -0.3532  0.0291
  517loPI   C2B 8270  14.967   2.442   9.184  0.1080 -0.0211  0.2286
  517loPI   C3B 8271  14.920   2.633   8.854  0.0330  0.1375 -0.1737
  517loPI   C4B 8272  14.633   2.665   8.513  0.0982 -0.0734 -0.3834
  518loPI    C1 8273   6.793   9.797  11.213  0.1926  0.1895 -0.0545
  518loPI    C2 8274   7.051   9.635  11.472 -0.0148  0.0281  0.0540
  518loPI    C3 8275   6.735   9.840  11.607 -0.0204  0.1055 -0.0754
  518loPI   PO4 8276   6.723   9.599  11.041  0.1530  0.1117  0.0487
  518loPI   GL1 8277   6.657   9.233  10.638 -0.0472 -0.2225  0.1201
  518loPI   GL2 8278   6.746   8.863  10.841 -0.1906 -0.1250  0.1980
  518loPI   C1A 8279   6.865   9.395  10.256  0.1077  0.2945  0.3225
  518loPI   C2A 8280   6.937   9.394   9.781  0.1542 -0.1476 -0.0562
  518loPI   C3A 8281   7.022   9.369   9.357  0.0874  0.0218 -0.0936
  518loPI   C4A 8282   7.055   9.443   8.986  0.2300  0.2254  0.1626
  518loPI   C5A 8283   7.130   9.426   8.451 -0.3283  0.0457  0.0118
  518loPI   C6A 8284   7.567   9.211   8.333  0.0234 -0.0716 -0.0376
  518loPI   C1B 8285   6.648   8.818  10.335 -0.1507 -0.0453  0.0288
  518loPI   C2B 8286   6.743   8.868   9.946  0.0245  0.1908  0.2868
  518loPI   C3B 8287   6.713   8.841   9.496 -0.2294 -0.1348  0.2801
  518loPI   C4B 8288   6.818   8.993   9.059  0.1278  0.1234  0.0186
  519loPI    C1 8289   7.592  15.374  11.085 -0.0644 -0.0317 -0.0688
  519loPI    C2 8290   7.300  15.527  11.312  0.1569  0.0234  0.1836
  519loPI    C3 8291   7.511  15.213  11.441  0.2276 -0.0001  0.0146
  519loPI   PO4 8292   7.557  15.445  10.819  0.0008  0.0628 -0.1675
  519loPI   GL1 8293   7.227  15.412  10.459  0.2066 -0.2372  0.0234
  519loPI   GL2 8294   7.250  15.253  10.196 -0.3895  0.0723  0.2775
  519loPI   C1A 8295   7.468  15.705  10.061 -0.3034 -0.6518 -0.0621
  519loPI   C2A 8296   7.451  15.645   9.562  0.0137  0.4449  0.1429
  519loPI   C3A 8297   7.403  15.709   9.105  0.0661 -0.0571  0.0818
  519loPI   C4A 8298   7.552  15.786   8.697  0.0544 -0.0315 -0.0182
  519loPI   C5A 8299   7.769  15.414   8.494 -0.0121  0.0074  0.1701
  519loPI   C6A 8300   8.042  15.397   8.198 -0.2745 -0.1521 -0.1708
  519loPI   C1B 8301   7.169  15.106   9.838  0.2085 -0.0083  0.0621
  519loPI   C2B 8302   7.235  15.191   9.427  0.2034  0.2139 -0.1917
  519loPI   C3B 8303   7.185  15.145   8.991 -0.2383  0.2481 -0.2578
  519loPI   C4B 8304   7.231  15.158   8.615 -0.0441  0.0741 -0.2153
  520loPI    C1 8305  13.192  12.810  10.979 -0.0815  0.0055 -0.0463
  520loPI    C2 8306  13.032  13.046  11.259 -0.0921  0.0934 -0.1261
  520loPI    C3 8307  13.320  12.787  11.357  0.0626  0.2824 -0.0762
  520loPI   PO4 8308  13.244  12.938  10.785  0.2391 -0.2292 -0.0036
  520loPI   GL1 8309  13.159  13.140  10.420 -0.1387  0.1446 -0.1997
  520loPI   GL2 8310  13.449  13.236  10.177 -0.3926  0.0974 -0.2058
  520loPI   C1A 8311  12.889  13.211  10.012  0.1611 -0.1187  0.0714
  520loPI   C2A 8312  12.810  13.182   9.673  0.1654 -0.0268  0.1260
  520loPI   C3A 8313  12.727  13.199   9.294  0.2039  0.1932  0.0114
  520loPI   C4A 8314  12.563  13.130   8.921 -0.0101 -0.0216  0.1966
  520loPI   C5A 8315  12.418  13.049   8.480 -0.0062  0.2025  0.4346
  520loPI   C6A 8316  12.193  12.842   8.097 -0.1506  0.0492  0.3131
  520loPI   C1B 8317  13.397  13.258   9.766 -0.0232  0.0813  0.2045
  520loPI   C2B 8318  13.345  13.227   9.327  0.1471  0.0490 -0.0762
  520loPI   C3B 8319  13.148  13.227   8.983  0.0908  0.5001  0.3312
  520loPI   C4B 8320  12.894  13.217   8.525  0.0978  0.1337 -0.2218
  521loPI    C1 8321   2.804  13.089  11.058  0.1383  0.0607 -0.1291
  521loPI    C2 8322   3.049  12.829  10.878  0.1914 -0.1093  0.1827
  521loPI    C3 8323   3.158  13.002  11.222  0.0627  0.1611  0.0904
  521loPI   PO4 8324   2.633  13.182  10.817  0.1537  0.1738  0.4218
  521loPI   GL1 8325   2.515  13.188  10.392 -0.0719  0.3139  0.0269
  521loPI   GL2 8326   2.865  13.143  10.351 -0.0497 -0.0465  0.0915
  521loPI   C1A 8327   2.400  13.037  10.025  0.1472 -0.0693 -0.0022
  521loPI   C2A 8328   2.096  13.239   9.735 -0.1727 -0.0674  0.2252
  521loPI   C3A 8329   1.860  13.475   9.421 -0.2448  0.1903 -0.1398
  521loPI   C4A 8330   1.717  13.847   9.200  0.2091 -0.3938  0.0748
  521loPI   C5A 8331   1.666  13.835   8.800 -0.1234  0.3028 -0.0088
  521loPI   C6A 8332   1.749  14.138   8.534 -0.0057 -0.0801  0.1412
  521loPI   C1B 8333   2.774  13.333   9.986 -0.1607 -0.0138  0.0760
  521loPI   C2B 8334   2.617  13.244   9.555  0.0544  0.1226 -0.0603
  521loPI   C3B 8335   2.638  13.127   9.132 -0.1369 -0.2740  0.1759
  521loPI   C4B 8336   2.687  12.944   8.749  0.0385 -0.1325 -0.1197
  522loPI    C1 8337  16.649   7.992  10.837  0.1452  0.1664 -0.0005
  522loPI    C2 8338  16.979   7.984  11.063  0.0863  0.2159  0.0877
  522loPI    C3 8339  16.639   8.135  11.211  0.0231  0.1615 -0.0014
  522loPI   PO4 8340  16.779   8.028  10.616  0.4010 -0.3636  0.1857
  522loPI   GL1 8341  16.801   7.737  10.305 -0.0429 -0.1249 -0.0136
  522loPI   GL2 8342  16.584   7.506  10.132 -0.1753 -0.3408 -0.0297
  522loPI   C1A 8343  16.674   7.888   9.892  0.2165 -0.1794  0.0432
  522loPI   C2A 8344  16.517   7.756   9.484 -0.0430  0.2292  0.2044
  522loPI   C3A 8345  16.541   7.835   9.061 -0.0877 -0.0038 -0.2715
  522loPI   C4A 8346  16.343   7.743   8.710  0.2498 -0.1060  0.0762
  522loPI   C5A 8347  16.171   7.679   8.453  0.0342 -0.1381  0.2671
  522loPI   C6A 8348  15.990   7.622   8.015 -0.1614  0.1161  0.0252
  522loPI   C1B 8349  16.837   7.357   9.790  0.1248 -0.2310  0.1453
  522loPI   C2B 8350  16.815   7.356   9.325 -0.0935  0.2785  0.3398
  522loPI   C3B 8351  16.544   7.333   9.015  0.0044  0.0649 -0.0068
  522loPI   C4B 8352  16.387   7.092   8.787 -0.1621 -0.1499  0.2152
  523loPI    C1 8353   2.174   8.803  10.967  0.3150  0.1945  0.0272
  523loPI    C2 8354   2.471   8.719  10.713  0.2470 -0.0696  0.0324
  523loPI    C3 8355   2.546   8.752  11.104  0.2783 -0.0876  0.0279
  523loPI   PO4 8356   2.013   8.683  10.915 -0.1036  0.1711  0.0760
  523loPI   GL1 8357   1.979   8.643  10.505 -0.0476 -0.1136 -0.0630
  523loPI   GL2 8358   2.008   8.981  10.528 -0.1207  0.1534  0.2236
  523loPI   C1A 8359   2.020   8.505  10.011  0.0182  0.2719  0.0064
  523loPI   C2A 8360   2.064   8.548   9.563 -0.2303  0.1569 -0.0989
  523loPI   C3A 8361   2.023   8.523   9.118  0.0744 -0.1933  0.0666
  523loPI   C4A 8362   1.712   8.568   8.813  0.0231 -0.1717  0.2981
  523loPI   C5A 8363   1.640   8.366   8.528  0.3719 -0.2798  0.2403
  523loPI   C6A 8364   1.524   8.091   8.209 -0.1560 -0.2781  0.1613
  523loPI   C1B 8365   2.272   8.899  10.177  0.3655  0.0783 -0.1653
  523loPI   C2B 8366   2.229   8.952   9.823  0.0905  0.0417  0.0179
  523loPI   C3B 8367   2.279   8.932   9.376  0.0163 -0.3118 -0.0083
  523loPI   C4B 8368   2.314   8.961   8.993  0.4958 -0.0947  0.2897
  524loPI    C1 8369   9.726  10.286  11.068 -0.0695 -0.1278 -0.0090
  524loPI    C2 8370   9.413  10.327  11.314 -0.0248  0.1314  0.0078
  524loPI    C3 8371   9.784  10.310  11.463 -0.0199 -0.0398 -0.0214
  524loPI   PO4 8372   9.617  10.236  10.894 -0.1150 -0.1086  0.2139
  524loPI   GL1 8373   9.506  10.278  10.535  0.0203  0.0827 -0.1861
  524loPI   GL2 8374   9.415  10.674  10.467 -0.1618  0.0867 -0.0645
  524loPI   C1A 8375   9.572  10.138  10.146  0.3484 -0.1299  0.1550
  524loPI   C2A 8376   9.371  10.159   9.773  0.0906 -0.1953 -0.0100
  524loPI   C3A 8377   9.331  10.123   9.302 -0.0368  0.0159  0.1959
  524loPI   C4A 8378   9.306  10.137   8.900  0.1784  0.2209 -0.1775
  524loPI   C5A 8379   9.261  10.253   8.492  0.2018 -0.0088  0.1768
  524loPI   C6A 8380   9.184  10.239   8.064  0.1082  0.0969 -0.1070
  524loPI   C1B 8381   9.493  10.622  10.043  0.0327  0.0597  0.1153
  524loPI   C2B 8382   9.595  10.659   9.626 -0.1947  0.1825  0.0577
  524loPI   C3B 8383   9.516  10.585   9.196  0.1386 -0.1610  0.1604
  524loPI   C4B 8384   9.492  10.635   8.772  0.0589 -0.0979 -0.2443
  525loPI    C1 8385   0.585   4.363  10.749 -0.0813  0.0868  0.2221
  525loPI    C2 8386   0.877   4.101  10.672 -0.1698  0.0567 -0.0225
  525loPI    C3 8387   0.772   4.179  11.050  0.2778  0.2055  0.0769
  525loPI   PO4 8388   0.645   4.560  10.561  0.2013  0.0433  0.0305
  525loPI   GL1 8389   0.604   4.598  10.127  0.0713 -0.0068  0.3836
  525loPI   GL2 8390   0.626   4.137  10.218  0.0096 -0.1418  0.3804
  525loPI   C1A 8391   0.590   4.648   9.624 -0.1344 -0.2489  0.4075
  525loPI   C2A 8392   0.569   4.426   9.298  0.1278 -0.1289  0.3626
  525loPI   C3A 8393   0.305   4.063   9.112  0.0226 -0.0450  0.0295
  525loPI   C4A 8394   0.246   3.715   9.349  0.2503 -0.1099  0.3237
  525loPI   C5A 8395   0.452   3.437   9.520 -0.2287  0.0466 -0.1586
  525loPI   C6A 8396   0.592   3.236   9.924  0.1804  0.2890 -0.0987
  525loPI   C1B 8397   0.907   4.288   9.853  0.3014  0.1418  0.2545
  525loPI   C2B 8398   1.111   4.332   9.457  0.2156 -0.1526 -0.4086
  525loPI   C3B 8399   1.026   4.411   9.050 -0.0465  0.2179  0.1930
  525loPI   C4B 8400   0.706   4.323   8.813  0.0053 -0.4062 -0.0454
  526loPI    C1 8401  16.599  17.174  10.954 -0.0082 -0.1041  0.2004
  526loPI    C2 8402  16.254  17.365  10.890 -0.0059 -0.0757  0.2706
  526loPI    C3 8403  16.531  17.528  11.128  0.2484  0.1248 -0.1508
  526loPI   PO4 8404  16.747  17.079  10.672 -0.0575  0.2453  0.0786
  526loPI   GL1 8405  16.673  16.796  10.333 -0.0970  0.0130 -0.1776
  526loPI   GL2 8406  16.496  16.821  10.137 -0.0726 -0.3326  0.0670
  526loPI   C1A 8407  16.663  16.363   9.955  0.1430  0.0352  0.1961
  526loPI   C2A 8408  16.754  16.210   9.487  0.0704 -0.4144 -0.2454
  526loPI   C3A 8409  16.688  16.275   9.029  0.2792  0.1884 -0.0848
  526loPI   C4A 8410  16.531  16.244   8.533 -0.1209 -0.0171 -0.1779
  526loPI   C5A 8411  16.321  16.205   8.199 -0.2830 -0.0230  0.2322
  526loPI   C6A 8412  16.398  15.902   7.920  0.4005 -0.2415  0.1810
  526loPI   C1B 8413  16.245  16.594   9.775 -0.0968  0.1975 -0.1846
  526loPI   C2B 8414  16.149  16.335   9.389  0.1599 -0.1882 -0.1845
  526loPI   C3B 8415  16.031  16.286   8.884  0.1645  0.2435  0.2546
  526loPI   C4B 8416  16.050  16.595   8.517 -0.0244  0.2720 -0.3061
  527loPI    C1 8417  11.086  14.895  11.125 -0.0640 -0.1947 -0.1294
  527loPI    C2 8418  11.363  15.004  11.392 -0.0660  0.2796 -0.3113
  527loPI    C3 8419  11.125  14.692  11.467  0.3480  0.0176 -0.0437
  527loPI   PO4 8420  11.240  14.897  10.875  0.0680  0.1824 -0.3981
  527loPI   GL1 8421  11.171  14.848  10.457  0.0444 -0.1687 -0.2380
  527loPI   GL2 8422  11.071  14.538  10.303  0.3240  0.1512  0.3187
  527loPI   C1A 8423  11.390  14.833  10.074 -0.1022  0.1537 -0.0010
  527loPI   C2A 8424  11.481  14.814   9.548 -0.0590  0.1195 -0.0985
  527loPI   C3A 8425  11.486  14.741   9.168  0.2323 -0.0563  0.0984
  527loPI   C4A 8426  11.473  14.784   8.766  0.2749  0.0502  0.1309
  527loPI   C5A 8427  11.267  14.950   8.386 -0.0702 -0.2683  0.2481
  527loPI   C6A 8428  10.994  15.212   8.217  0.2247 -0.0454 -0.2761
  527loPI   C1B 8429  10.953  14.742   9.854  0.1049 -0.0809 -0.2223
  527loPI   C2B 8430  10.994  14.805   9.398  0.0877  0.0469  0.2088
  527loPI   C3B 8431  10.901  14.723   8.886 -0.1708  0.0052 -0.0656
  527loPI   C4B 8432  10.798  14.687   8.437 -0.2321  0.1451  0.5278
  528loPI    C1 8433   4.811  15.070  10.803  0.0104 -0.1656 -0.2230
  528loPI    C2 8434   4.915  15.364  11.054  0.0583 -0.3548 -0.0182
  528loPI    C3 8435   4.788  15.013  11.199  0.1966 -0.5067 -0.2574
  528loPI   PO4 8436   4.618  15.236  10.579 -0.0131  0.0806  0.0116
  528loPI   GL1 8437   4.568  15.317  10.119  0.2757  0.1940 -0.0497
  528loPI   GL2 8438   4.653  15.002  10.133 -0.1425 -0.0589 -0.0220
  528loPI   C1A 8439   4.445  15.461   9.683  0.0984 -0.0399 -0.0008
  528loPI   C2A 8440   4.418  15.509   9.178  0.0004 -0.1011 -0.1215
  528loPI   C3A 8441   4.375  15.557   8.683 -0.1524  0.1119  0.2676
  528loPI   C4A 8442   4.362  15.582   8.233  0.1923 -0.0329 -0.2261
  528loPI   C5A 8443   4.282  15.395   7.855  0.0157  0.2923 -0.4175
  528loPI   C6A 8444   4.086  15.267   7.566 -0.0433  0.2818  0.0322
  528loPI   C1B 8445   4.563  14.970   9.718 -0.1765 -0.1532  0.0139
  528loPI   C2B 8446   4.668  15.062   9.275  0.0524  0.2663  0.0641
  528loPI   C3B 8447   4.772  15.068   8.832  0.0674 -0.0728 -0.0923
  528loPI   C4B 8448   4.658  15.151   8.511 -0.4441  0.0744  0.0145
  529loPI    C1 8449  12.478  13.764  10.863 -0.0008  0.1156 -0.0840
  529loPI    C2 8450  12.408  14.102  10.661 -0.0394  0.1561 -0.0034
  529loPI    C3 8451  12.738  14.068  10.885  0.0332  0.0890 -0.1197
  529loPI   PO4 8452  12.350  13.620  10.693  0.1715 -0.1280 -0.2108
  529loPI   GL1 8453  12.423  13.509  10.337  0.0655 -0.0901  0.1120
  529loPI   GL2 8454  12.583  13.249  10.363 -0.0558  0.5978 -0.0987
  529loPI   C1A 8455  12.511  13.605   9.860  0.2368  0.0657  0.0985
  529loPI   C2A 8456  12.424  13.591   9.414  0.2413 -0.0835 -0.0957
  529loPI   C3A 8457  12.380  13.571   9.103  0.0940 -0.1229 -0.0750
  529loPI   C4A 8458  12.365  13.493   8.682 -0.1233  0.0182  0.0969
  529loPI   C5A 8459  12.312  13.645   8.258  0.0224  0.2836 -0.1514
  529loPI   C6A 8460  12.395  13.972   8.043 -0.3330 -0.1449  0.1414
  529loPI   C1B 8461  12.417  13.142   9.984  0.1956 -0.1486  0.0083
  529loPI   C2B 8462  12.276  13.155   9.584  0.5391 -0.0269  0.2143
  529loPI   C3B 8463  12.135  13.088   9.204  0.0814 -0.0941  0.1410
  529loPI   C4B 8464  12.091  13.077   8.854  0.2568  0.0787 -0.2056
  530loPI    C1 8465  11.763  16.302  11.172 -0.2563  0.1151  0.2534
  530loPI    C2 8466  12.115  16.124  11.240 -0.2743 -0.0007  0.0529
  530loPI    C3 8467  12.030  16.474  11.415  0.0072  0.1102 -0.0263
  530loPI   PO4 8468  11.769  16.252  10.896 -0.1863 -0.1663 -0.0987
  530loPI   GL1 8469  11.629  16.277  10.416  0.1941 -0.1921 -0.0452
  530loPI   GL2 8470  11.868  16.072  10.448 -0.4680 -0.1621  0.1970
  530loPI   C1A 8471  11.661  16.144   9.922 -0.0661 -0.1008  0.0867
  530loPI   C2A 8472  11.575  16.199   9.499 -0.4505  0.0626  0.0087
  530loPI   C3A 8473  11.573  16.260   9.131 -0.0833  0.0571 -0.0541
  530loPI   C4A 8474  11.530  16.282   8.685  0.2007  0.3490  0.0137
  530loPI   C5A 8475  11.520  15.982   8.403  0.0330 -0.1133  0.3059
  530loPI   C6A 8476  11.217  15.798   8.134  0.0673 -0.1424 -0.2495
  530loPI   C1B 8477  11.971  15.749  10.113 -0.1251  0.0139 -0.2981
  530loPI   C2B 8478  11.891  15.759   9.660 -0.0957 -0.1562  0.0579
  530loPI   C3B 8479  11.858  15.823   9.202 -0.0045  0.5458  0.0639
  530loPI   C4B 8480  11.850  15.696   8.771 -0.1841 -0.0055 -0.0726
  531loPI    C1 8481   2.675   6.304  11.189 -0.1699 -0.1523 -0.0812
  531loPI    C2 8482   2.835   6.312  11.556 -0.1917  0.0402 -0.0751
  531loPI    C3 8483   3.067   6.242  11.238 -0.1273  0.1310 -0.0485
  531loPI   PO4 8484   2.481   6.151  11.227  0.2705 -0.0799  0.1641
  531loPI   GL1 8485   2.441   6.016  10.718 -0.0475 -0.2620  0.0051
  531loPI   GL2 8486   2.539   5.742  10.611  0.0932  0.0394 -0.0259
  531loPI   C1A 8487   2.342   6.222  10.278  0.2144  0.0397 -0.1529
  531loPI   C2A 8488   2.446   6.242   9.812  0.2002  0.2442  0.3224
  531loPI   C3A 8489   2.538   6.259   9.451 -0.0581  0.3515  0.0296
  531loPI   C4A 8490   2.685   6.215   9.088  0.4317 -0.0359 -0.0144
  531loPI   C5A 8491   2.824   6.175   8.679  0.0306 -0.2225 -0.1007
  531loPI   C6A 8492   2.448   6.166   8.290  0.1374  0.0954 -0.4048
  531loPI   C1B 8493   2.673   5.754  10.274  0.2369  0.0668  0.0735
  531loPI   C2B 8494   2.716   5.806   9.829  0.1676  0.1838 -0.0328
  531loPI   C3B 8495   2.803   5.816   9.373  0.1196 -0.1334 -0.2770
  531loPI   C4B 8496   2.915   5.773   8.976  0.0321  0.0704 -0.0112
  532loPI    C1 8497   5.892   3.675  11.249  0.0299  0.1733 -0.0169
  532loPI    C2 8498   5.652   3.666  11.569  0.1485  0.0282  0.0694
  532loPI    C3 8499   5.990   3.881  11.578  0.0903  0.1235 -0.0034
  532loPI   PO4 8500   5.617   3.539  11.078  0.0832  0.0714  0.0888
  532loPI   GL1 8501   5.519   3.468  10.708 -0.1228  0.3035 -0.2363
  532loPI   GL2 8502   5.623   3.142  10.567  0.0537  0.0225 -0.0198
  532loPI   C1A 8503   5.513   3.537  10.276  0.0054 -0.0090 -0.1980
  532loPI   C2A 8504   5.641   3.523   9.885 -0.0988  0.1840 -0.2589
  532loPI   C3A 8505   5.714   3.385   9.538 -0.3121  0.0157 -0.0093
  532loPI   C4A 8506   5.583   3.421   9.106  0.2211  0.0731  0.1366
  532loPI   C5A 8507   5.705   3.421   8.674 -0.2107  0.0957 -0.1690
  532loPI   C6A 8508   6.083   3.537   8.529  0.3591 -0.2299  0.0400
  532loPI   C1B 8509   5.827   3.117  10.234 -0.2037  0.0644 -0.0885
  532loPI   C2B 8510   5.982   3.017   9.855  0.1512  0.0792  0.3052
  532loPI   C3B 8511   5.978   2.998   9.431 -0.2378  0.2882 -0.0360
  532loPI   C4B 8512   5.933   3.037   8.981  0.4033  0.0114 -0.2261
  533loPI    C1 8513   1.348  17.727  10.792  0.0141 -0.1337 -0.1160
  533loPI    C2 8514   1.664  17.790  10.556 -0.0003  0.0411 -0.0899
  533loPI    C3 8515   1.701  17.823  10.952  0.0397 -0.3161 -0.0603
  533loPI   PO4 8516   1.172  17.648  10.521 -0.2266  0.0175 -0.0385
  533loPI   GL1 8517   1.095  17.814  10.076  0.0274  0.0550 -0.0151
  533loPI   GL2 8518   1.441  17.797  10.150 -0.6175 -0.1136  0.1827
  533loPI   C1A 8519   1.032  17.668   9.646  0.1467 -0.0030  0.1089
  533loPI   C2A 8520   1.268  17.401   9.462 -0.3147  0.1215  0.0566
  533loPI   C3A 8521   1.101  17.104   9.123  0.2830 -0.0858 -0.1445
  533loPI   C4A 8522   0.966  16.673   8.991 -0.0437  0.0001 -0.1073
  533loPI   C5A 8523   0.727  16.529   8.642 -0.2481  0.0455 -0.4285
  533loPI   C6A 8524   0.412  16.392   8.325 -0.0908 -0.0899  0.1580
  533loPI   C1B 8525   1.433  17.964   9.739 -0.2713  0.1400  0.1666
  533loPI   C2B 8526   1.405  17.872   9.365  0.1093  0.1099  0.0907
  533loPI   C3B 8527   1.462  18.040   8.981  0.0413 -0.2937  0.3873
  533loPI   C4B 8528   1.667  18.363   8.708 -0.0546  0.5143  0.1295
  534loPI    C1 8529   3.587  16.953  10.388 -0.1930  0.2649  0.1306
  534loPI    C2 8530   3.712  17.292  10.561 -0.1743  0.2321  0.1816
  534loPI    C3 8531   3.521  17.016  10.778 -0.0197  0.1256  0.1840
  534loPI   PO4 8532   3.671  16.957  10.159  0.0906  0.0434  0.1617
  534loPI   GL1 8533   3.751  16.731   9.807  0.5123 -0.4472 -0.1001
  534loPI   GL2 8534   3.531  16.492   9.816  0.1065 -0.3567 -0.2896
  534loPI   C1A 8535   3.887  16.730   9.427  0.3199  0.1895  0.2064
  534loPI   C2A 8536   3.945  16.801   9.034 -0.0878  0.0307  0.0195
  534loPI   C3A 8537   3.988  16.867   8.542  0.0610  0.2524  0.1598
  534loPI   C4A 8538   4.171  16.957   8.180 -0.2005 -0.2741  0.0382
  534loPI   C5A 8539   4.427  16.822   7.912 -0.1076  0.2345 -0.1211
  534loPI   C6A 8540   4.653  16.655   7.581  0.0945  0.0060 -0.2556
  534loPI   C1B 8541   3.588  16.265   9.536 -0.1053  0.0658 -0.1508
  534loPI   C2B 8542   3.723  16.365   9.069 -0.0671  0.0957  0.1138
  534loPI   C3B 8543   3.691  16.193   8.751  0.2038 -0.1656  0.0642
  534loPI   C4B 8544   3.837  16.347   8.441  0.1862  0.0444 -0.0648
  535loPI    C1 8545   4.716   4.981  11.145 -0.0291  0.1861 -0.0917
  535loPI    C2 8546   4.744   4.797  11.499  0.2598  0.1486 -0.1322
  535loPI    C3 8547   4.606   5.171  11.480 -0.0834  0.0316 -0.0204
  535loPI   PO4 8548   4.962   4.769  10.984  0.0940 -0.1534  0.1829
  535loPI   GL1 8549   5.138   4.743  10.525  0.2689  0.1036  0.0188
  535loPI   GL2 8550   5.485   4.703  10.383  0.0654 -0.0162  0.2068
  535loPI   C1A 8551   5.074   4.703  10.058 -0.4149  0.0603 -0.2040
  535loPI   C2A 8552   5.277   4.702   9.685 -0.2405 -0.1626 -0.2511
  535loPI   C3A 8553   5.284   4.705   9.215  0.0092  0.0108  0.1326
  535loPI   C4A 8554   5.271   4.833   8.780 -0.0635 -0.0846  0.2230
  535loPI   C5A 8555   5.417   4.778   8.418 -0.2523  0.1326  0.1265
  535loPI   C6A 8556   5.531   4.537   8.065  0.0034 -0.4398 -0.1297
  535loPI   C1B 8557   5.690   4.699  10.009  0.3247  0.0921  0.2394
  535loPI   C2B 8558   5.771   4.869   9.589  0.1936  0.0678 -0.0899
  535loPI   C3B 8559   5.776   4.771   9.107  0.0701  0.3450 -0.0343
  535loPI   C4B 8560   5.794   4.926   8.714 -0.2133 -0.0324  0.0167
  536loPI    C1 8561   4.208   4.695  11.363  0.1045 -0.0357 -0.2941
  536loPI    C2 8562   3.905   4.456  11.261  0.0177  0.0156 -0.1598
  536loPI    C3 8563   3.856   4.728  11.549  0.2747 -0.1655  0.0601
  536loPI   PO4 8564   4.353   4.625  11.177 -0.3471  0.0903  0.1876
  536loPI   GL1 8565   4.411   4.739  10.802  0.2105 -0.2032  0.0288
  536loPI   GL2 8566   4.682   4.767  10.585 -0.1802  0.0300  0.1302
  536loPI   C1A 8567   4.081   4.740  10.444  0.0981  0.0891 -0.3730
  536loPI   C2A 8568   4.031   4.669  10.055  0.2033  0.1460 -0.3116
  536loPI   C3A 8569   4.162   4.628   9.696  0.1910 -0.0934 -0.3354
  536loPI   C4A 8570   4.199   4.630   9.308 -0.0981  0.0264  0.0872
  536loPI   C5A 8571   4.258   4.664   8.924 -0.1288 -0.0269 -0.0102
  536loPI   C6A 8572   4.390   4.678   8.544 -0.1378  0.4458 -0.1001
  536loPI   C1B 8573   4.531   4.782  10.169 -0.1140  0.1583 -0.1516
  536loPI   C2B 8574   4.656   4.652   9.720  0.0010 -0.2443 -0.2558
  536loPI   C3B 8575   4.778   4.644   9.252  0.1212 -0.1699 -0.1826
  536loPI   C4B 8576   4.807   4.678   8.847  0.2508 -0.1786  0.1154
  537loPI    C1 8577   6.374  15.870  10.896 -0.0848  0.1172  0.0762
  537loPI    C2 8578   6.370  15.630  11.216  0.0151  0.1084  0.0710
  537loPI    C3 8579   6.461  16.017  11.258 -0.0987  0.1351  0.0722
  537loPI   PO4 8580   6.205  15.833  10.724 -0.1499  0.3056  0.2581
  537loPI   GL1 8581   6.253  15.742  10.266 -0.1502  0.1621 -0.1769
  537loPI   GL2 8582   6.486  15.981  10.310  0.1177  0.2066 -0.1637
  537loPI   C1A 8583   6.416  15.631   9.885 -0.0655 -0.1511 -0.1762
  537loPI   C2A 8584   6.427  15.585   9.457 -0.1533 -0.0136  0.2218
  537loPI   C3A 8585   6.436  15.611   9.039  0.2597  0.0362 -0.2106
  537loPI   C4A 8586   6.467  15.627   8.515 -0.2821  0.1455 -0.1516
  537loPI   C5A 8587   6.359  15.506   8.142  0.6181  0.2127  0.3812
  537loPI   C6A 8588   6.135  15.586   7.738  0.3252 -0.2752  0.1976
  537loPI   C1B 8589   6.548  16.077   9.770  0.0710  0.1775  0.0705
  537loPI   C2B 8590   6.539  16.044   9.260 -0.2249 -0.1940 -0.2106
  537loPI   C3B 8591   6.564  16.062   8.793 -0.0873 -0.1092 -0.0332
  537loPI   C4B 8592   6.696  15.985   8.371 -0.3268 -0.1203 -0.1784
  538loPI    C1 8593  10.938   0.413  10.946  0.1637 -0.0494  0.0989
  538loPI    C2 8594  10.833   0.602  11.284  0.0798  0.0679  0.0083
  538loPI    C3 8595  11.194   0.431  11.253  0.0048 -0.1363  0.2381
  538loPI   PO4 8596  10.836   0.558  10.788  0.2797  0.0537 -0.2524
  538loPI   GL1 8597  10.773   0.705  10.387 -0.2941 -0.0109  0.0067
  538loPI   GL2 8598  10.880   0.777  10.052 -0.2743  0.1239 -0.2319
  538loPI   C1A 8599  10.657   0.402  10.016 -0.0433 -0.0823  0.1033
  538loPI   C2A 8600  10.604   0.255   9.703  0.0473  0.2468 -0.5153
  538loPI   C3A 8601  10.547   0.304   9.369 -0.4530 -0.1714 -0.2289
  538loPI   C4A 8602  10.643   0.247   8.918 -0.1242  0.1120 -0.2528
  538loPI   C5A 8603  10.625   0.299   8.516 -0.1711 -0.1137 -0.2201
  538loPI   C6A 8604  10.541   0.134   8.156 -0.1322 -0.0413 -0.0898
  538loPI   C1B 8605  10.715   0.761   9.693  0.3104  0.1878  0.0648
  538loPI   C2B 8606  10.781   0.826   9.229 -0.0252  0.1653 -0.0899
  538loPI   C3B 8607  10.788   0.700   8.873  0.0790 -0.1879  0.2782
  538loPI   C4B 8608  10.874   0.785   8.410 -0.2448 -0.4275 -0.0003
  539loPI    C1 8609   3.986  11.642  11.086 -0.0522 -0.1084  0.0343
  539loPI    C2 8610   4.281  11.545  11.338 -0.0543 -0.2013  0.0011
  539loPI    C3 8611   3.902  11.459  11.431 -0.0771 -0.0313  0.0695
  539loPI   PO4 8612   4.016  11.595  10.804  0.1347 -0.2458  0.0680
  539loPI   GL1 8613   3.819  11.778  10.528  0.0299  0.0498 -0.1968
  539loPI   GL2 8614   3.723  12.176  10.490 -0.0065  0.4058  0.4788
  539loPI   C1A 8615   3.974  11.782  10.134  0.5581 -0.1120  0.1023
  539loPI   C2A 8616   3.920  11.878   9.787 -0.1124  0.0047 -0.0268
  539loPI   C3A 8617   4.097  11.827   9.377  0.2195 -0.1909  0.0264
  539loPI   C4A 8618   4.058  11.775   8.945  0.3665 -0.2235 -0.1756
  539loPI   C5A 8619   4.180  11.766   8.519  0.0534  0.1369  0.0273
  539loPI   C6A 8620   4.039  12.116   8.248  0.0563  0.0508  0.0454
  539loPI   C1B 8621   3.596  12.203   9.977  0.1871  0.1258  0.2649
  539loPI   C2B 8622   3.792  12.272   9.527  0.3006 -0.1203 -0.0921
  539loPI   C3B 8623   3.849  12.294   9.130 -0.1108  0.0805 -0.2585
  539loPI   C4B 8624   3.857  12.248   8.708  0.0099 -0.0161  0.0641
  540loPI    C1 8625   9.381   3.829  10.997 -0.1747  0.1154  0.1207
  540loPI    C2 8626   9.712   3.972  11.171 -0.1390  0.0764  0.0847
  540loPI    C3 8627   9.496   3.688  11.353 -0.0805  0.0085  0.0486
  540loPI   PO4 8628   9.397   3.903  10.705  0.0224 -0.1875  0.3785
  540loPI   GL1 8629   9.501   3.703  10.361  0.0349  0.0791  0.1970
  540loPI   GL2 8630   9.148   3.557  10.247  0.0307 -0.2556 -0.1939
  540loPI   C1A 8631   9.746   3.726  10.096 -0.1658 -0.0951  0.4595
  540loPI   C2A 8632   9.758   3.746   9.686 -0.2828 -0.1599 -0.0890
  540loPI   C3A 8633   9.803   3.739   9.395 -0.0657 -0.1395 -0.2270
  540loPI   C4A 8634   9.901   3.918   9.016  0.0571  0.1809 -0.0734
  540loPI   C5A 8635   9.931   3.865   8.690  0.0060 -0.2857 -0.0622
  540loPI   C6A 8636  10.303   3.845   8.422  0.0689  0.2140 -0.1428
  540loPI   C1B 8637   9.189   3.739   9.850 -0.1717  0.1749 -0.0397
  540loPI   C2B 8638   9.271   3.799   9.429  0.1374 -0.0591 -0.0749
  540loPI   C3B 8639   9.385   3.800   9.021 -0.3022 -0.0465 -0.3698
  540loPI   C4B 8640   9.413   3.816   8.553 -0.0826  0.2838  0.2761
  541loPI    C1 8641   7.138   6.985  11.419  0.2574  0.2542 -0.0827
  541loPI    C2 8642   7.524   6.896  11.473  0.1726 -0.0286  0.0801
  541loPI    C3 8643   7.328   7.110  11.748  0.1570 -0.0740  0.1043
  541loPI   PO4 8644   7.168   6.976  11.132  0.1795 -0.0127 -0.4324
  541loPI   GL1 8645   7.371   6.960  10.788 -0.1708  0.3313  0.1369
  541loPI   GL2 8646   7.303   6.822  10.578 -0.1032 -0.3774  0.0309
  541loPI   C1A 8647   7.418   7.208  10.336 -0.3910 -0.2268 -0.0238
  541loPI   C2A 8648   7.352   7.253   9.871 -0.0497  0.4467  0.3892
  541loPI   C3A 8649   7.447   7.144   9.499  0.1107  0.0397  0.0742
  541loPI   C4A 8650   7.426   7.251   9.024 -0.2604  0.2594 -0.0299
  541loPI   C5A 8651   7.719   7.291   8.643 -0.0335  0.2476  0.3348
  541loPI   C6A 8652   8.160   7.196   8.465  0.1087 -0.1908 -0.1361
  541loPI   C1B 8653   7.228   6.763  10.124  0.2350  0.0268  0.1079
  541loPI   C2B 8654   7.188   6.775   9.665  0.1043 -0.1698  0.1771
  541loPI   C3B 8655   7.178   6.704   9.276 -0.1401  0.0551 -0.0700
  541loPI   C4B 8656   7.281   6.664   8.866  0.0759 -0.0804 -0.2798
  542loPI    C1 8657  14.921   5.332  11.074  0.0923 -0.0281  0.0818
  542loPI    C2 8658  14.782   5.288  11.447  0.1514 -0.0737  0.0985
  542loPI    C3 8659  15.085   5.539  11.375  0.0081  0.0866  0.0493
  542loPI   PO4 8660  14.831   5.129  10.906 -0.1434 -0.0223 -0.0379
  542loPI   GL1 8661  14.584   5.080  10.505  0.2688  0.1745  0.0869
  542loPI   GL2 8662  14.245   4.966  10.378 -0.2595  0.1940  0.0894
  542loPI   C1A 8663  14.522   5.225   9.999 -0.1602  0.0348 -0.0667
  542loPI   C2A 8664  14.359   5.198   9.549 -0.1357  0.0504 -0.2857
  542loPI   C3A 8665  14.296   5.258   9.181 -0.0539  0.0724  0.1905
  542loPI   C4A 8666  14.391   5.280   8.741 -0.2997  0.5597 -0.0908
  542loPI   C5A 8667  14.279   5.142   8.329  0.0730 -0.0148  0.1156
  542loPI   C6A 8668  14.444   4.913   7.986 -0.0499  0.0131  0.2077
  542loPI   C1B 8669  14.074   4.980   9.976  0.1808  0.1101 -0.0153
  542loPI   C2B 8670  13.852   5.164   9.580 -0.0936  0.3282 -0.0797
  542loPI   C3B 8671  13.767   5.235   9.176  0.1123  0.1857  0.0894
  542loPI   C4B 8672  13.875   5.233   8.711  0.2990 -0.1826  0.1673
  543loPI    C1 8673   5.777   2.369  11.192 -0.1279  0.0764  0.0048
  543loPI    C2 8674   5.523   2.495  11.475 -0.2750  0.0162 -0.0989
  543loPI    C3 8675   5.836   2.722  11.371 -0.3096  0.1103  0.0001
  543loPI   PO4 8676   5.616   2.257  10.908  0.0524  0.0124  0.1470
  543loPI   GL1 8677   5.538   2.465  10.480 -0.2535  0.1814 -0.0788
  543loPI   GL2 8678   5.425   2.197  10.368 -0.0611  0.0323  0.4701
  543loPI   C1A 8679   5.665   2.519  10.088  0.0246  0.1813  0.0094
  543loPI   C2A 8680   5.731   2.563   9.697  0.1356  0.1615  0.1754
  543loPI   C3A 8681   5.714   2.602   9.301 -0.0151 -0.1475  0.0429
  543loPI   C4A 8682   5.772   2.530   8.936  0.0217  0.0457  0.1212
  543loPI   C5A 8683   5.779   2.726   8.552 -0.3786 -0.1302 -0.0872
  543loPI   C6A 8684   5.921   3.063   8.343 -0.1196 -0.0063  0.0875
  543loPI   C1B 8685   5.438   2.123   9.892  0.3071 -0.0482 -0.0953
  543loPI   C2B 8686   5.435   2.111   9.417  0.0716 -0.4078 -0.1923
  543loPI   C3B 8687   5.620   2.010   9.017  0.2418  0.1173 -0.4590
  543loPI   C4B 8688   5.614   2.172   8.600  0.0292 -0.1142  0.0562
  544loPI    C1 8689   6.119   7.932  11.456  0.1289 -0.1074  0.1233
  544loPI    C2 8690   6.228   7.627  11.691  0.0710 -0.1581  0.0849
  544loPI    C3 8691   5.906   7.845  11.783  0.0562 -0.1695  0.0600
  544loPI   PO4 8692   6.094   7.779  11.112 -0.0038 -0.0102  0.0447
  544loPI   GL1 8693   6.002   7.506  10.809  0.3905 -0.0321 -0.0037
  544loPI   GL2 8694   6.382   7.332  10.711 -0.1900 -0.0210  0.0150
  544loPI   C1A 8695   6.043   7.514  10.309  0.0161  0.2190  0.0619
  544loPI   C2A 8696   6.089   7.526   9.893  0.1438  0.0339  0.3503
  544loPI   C3A 8697   6.135   7.525   9.407  0.0729  0.1410 -0.0853
  544loPI   C4A 8698   6.187   7.464   8.998 -0.2846  0.0900 -0.1606
  544loPI   C5A 8699   5.855   7.574   8.699  0.0168  0.0881 -0.1521
  544loPI   C6A 8700   5.614   8.000   8.654  0.1159 -0.2490 -0.0855
  544loPI   C1B 8701   6.429   7.095  10.298  0.0057 -0.1252  0.3351
  544loPI   C2B 8702   6.384   7.142   9.835  0.5114 -0.1131 -0.0792
  544loPI   C3B 8703   6.419   7.072   9.397  0.0686 -0.1537  0.3160
  544loPI   C4B 8704   6.439   7.068   8.967 -0.0003 -0.0003 -0.3460
  545loPI    C1 8705  10.076   5.078  11.019  0.0067  0.0512  0.0500
  545loPI    C2 8706  10.200   5.295  11.332 -0.1193 -0.1466  0.2404
  545loPI    C3 8707  10.116   4.906  11.378  0.2427 -0.2769 -0.1271
  545loPI   PO4 8708   9.885   5.218  10.858 -0.4002 -0.2268  0.3478
  545loPI   GL1 8709  10.150   5.238  10.486  0.3860  0.4069 -0.2672
  545loPI   GL2 8710   9.797   5.105  10.346 -0.0820 -0.1625  0.1686
  545loPI   C1A 8711  10.099   5.544  10.162 -0.0338 -0.1791 -0.1853
  545loPI   C2A 8712  10.092   5.588   9.721  0.3911 -0.2282 -0.3845
  545loPI   C3A 8713  10.152   5.669   9.320 -0.1397 -0.1420 -0.0892
  545loPI   C4A 8714  10.164   5.700   8.913  0.0955  0.0678 -0.0583
  545loPI   C5A 8715  10.124   5.735   8.461 -0.1780 -0.2167  0.0203
  545loPI   C6A 8716   9.972   5.962   8.074 -0.0243 -0.0072 -0.0338
  545loPI   C1B 8717   9.877   5.142   9.954  0.0568  0.0923 -0.1495
  545loPI   C2B 8718   9.912   5.156   9.496 -0.2132  0.2957  0.1352
  545loPI   C3B 8719   9.940   5.253   9.079  0.3418 -0.3409  0.1137
  545loPI   C4B 8720   9.923   5.183   8.671 -0.0758  0.1770 -0.1498
  546loPI    C1 8721   5.791   8.421  11.352 -0.1614  0.3439 -0.0511
  546loPI    C2 8722   5.616   8.649  11.630  0.1563  0.3616  0.1390
  546loPI    C3 8723   5.836   8.334  11.740 -0.2303 -0.0098 -0.1191
  546loPI   PO4 8724   5.644   8.405  11.149 -0.3040  0.0490 -0.2650
  546loPI   GL1 8725   5.244   8.475  10.864 -0.2799  0.1340  0.0015
  546loPI   GL2 8726   5.294   8.822  10.689  0.0845  0.0802 -0.0921
  546loPI   C1A 8727   5.335   8.283  10.442 -0.1123 -0.0741  0.2114
  546loPI   C2A 8728   5.260   7.954  10.208  0.1300  0.0873  0.0066
  546loPI   C3A 8729   5.173   7.885   9.782  0.1636  0.1796 -0.1207
  546loPI   C4A 8730   5.316   7.876   9.370  0.1382 -0.1068 -0.3628
  546loPI   C5A 8731   5.254   7.795   9.001 -0.1005  0.1784  0.0083
  546loPI   C6A 8732   5.098   7.879   8.558 -0.0747 -0.1822  0.0319
  546loPI   C1B 8733   5.323   8.768  10.245 -0.2622 -0.1707  0.1681
  546loPI   C2B 8734   5.334   8.427   9.964  0.0557  0.2456  0.2251
  546loPI   C3B 8735   5.425   8.302   9.584 -0.1327 -0.0658 -0.1231
  546loPI   C4B 8736   5.499   8.247   9.110  0.0783  0.0222 -0.0930
  547loPI    C1 8737  15.241   4.608  11.001  0.2424 -0.1934  0.2659
  547loPI    C2 8738  14.892   4.626  11.195  0.0918 -0.2207  0.0035
  547loPI    C3 8739  15.222   4.507  11.387 -0.0921 -0.4393  0.1899
  547loPI   PO4 8740  15.273   4.894  10.831 -0.0166  0.1082 -0.0756
  547loPI   GL1 8741  15.170   4.893  10.447 -0.0962  0.0829 -0.1401
  547loPI   GL2 8742  14.861   4.646  10.585 -0.1153 -0.0372 -0.1336
  547loPI   C1A 8743  15.143   4.592  10.126  0.2114 -0.2239 -0.0543
  547loPI   C2A 8744  15.042   4.548   9.672 -0.0918  0.1060 -0.0529
  547loPI   C3A 8745  15.037   4.452   9.179  0.0990 -0.0235 -0.0495
  547loPI   C4A 8746  15.074   4.388   8.779 -0.0616 -0.1282 -0.4003
  547loPI   C5A 8747  15.025   4.394   8.391 -0.2036  0.1289  0.0418
  547loPI   C6A 8748  15.044   4.178   8.142  0.1335 -0.1146 -0.0448
  547loPI   C1B 8749  14.700   4.716  10.224 -0.1885  0.3038 -0.0751
  547loPI   C2B 8750  14.597   4.745   9.769  0.3573 -0.0701  0.0428
  547loPI   C3B 8751  14.619   4.752   9.338 -0.1202 -0.3564 -0.2410
  547loPI   C4B 8752  14.755   4.812   8.920 -0.2714 -0.2009 -0.0550
  548loPI    C1 8753   4.073  16.853  10.730  0.1241 -0.0485  0.0330
  548loPI    C2 8754   3.879  16.746  11.062 -0.3824  0.1085 -0.2033
  548loPI    C3 8755   3.955  17.132  10.992  0.3323  0.0272  0.0484
  548loPI   PO4 8756   3.953  16.641  10.539 -0.1804  0.0044 -0.1170
  548loPI   GL1 8757   3.960  16.479  10.142  0.0898  0.1009  0.1324
  548loPI   GL2 8758   4.239  16.720   9.990 -0.3283 -0.0149  0.1909
  548loPI   C1A 8759   4.055  16.363   9.711  0.0800  0.0789  0.1531
  548loPI   C2A 8760   4.265  16.294   9.238 -0.0557  0.1349  0.0620
  548loPI   C3A 8761   4.211  16.385   8.823 -0.0914 -0.1659 -0.0554
  548loPI   C4A 8762   4.296  16.524   8.390 -0.1616  0.0828  0.0447
  548loPI   C5A 8763   4.075  16.487   8.030  0.0198 -0.1340  0.1444
  548loPI   C6A 8764   3.801  16.213   7.999 -0.2985 -0.0611 -0.1029
  548loPI   C1B 8765   4.374  16.765   9.564  0.0565 -0.5547  0.2172
  548loPI   C2B 8766   4.414  16.816   9.150  0.1918 -0.2890 -0.0657
  548loPI   C3B 8767   4.472  16.830   8.724  0.1946  0.1864  0.1592
  548loPI   C4B 8768   4.578  16.920   8.387 -0.1911 -0.0413 -0.5297
  549loPI    C1 8769   6.851  16.337  11.183  0.0709  0.0653 -0.0340
  549loPI    C2 8770   6.761  16.686  11.356 -0.1877  0.0143 -0.0628
  549loPI    C3 8771   6.779  16.352  11.576  0.0894  0.0488 -0.0300
  549loPI   PO4 8772   6.698  16.381  10.925  0.0813 -0.0971 -0.0670
  549loPI   GL1 8773   6.687  16.449  10.483  0.0933  0.2097  0.0152
  549loPI   GL2 8774   6.858  16.721  10.335 -0.2704  0.0745 -0.2182
  549loPI   C1A 8775   6.356  16.427  10.107 -0.1189 -0.2047 -0.1971
  549loPI   C2A 8776   6.346  16.542   9.777 -0.0829  0.3169  0.0978
  549loPI   C3A 8777   6.239  16.472   9.301  0.0102 -0.1986 -0.1871
  549loPI   C4A 8778   6.265  16.568   8.841 -0.1426  0.1025 -0.1437
  549loPI   C5A 8779   6.317  16.527   8.442 -0.1670 -0.2922 -0.2150
  549loPI   C6A 8780   6.545  16.447   8.097  0.2477  0.1509  0.0073
  549loPI   C1B 8781   6.832  16.473   9.908  0.3028  0.3450 -0.2386
  549loPI   C2B 8782   6.816  16.548   9.430  0.0237  0.3088  0.3550
  549loPI   C3B 8783   6.834  16.525   8.950  0.1582  0.1116  0.0160
  549loPI   C4B 8784   6.797  16.440   8.587 -0.0534 -0.1542  0.1590
  550loPI    C1 8785  15.583   0.554  10.893  0.0253  0.0878 -0.0051
  550loPI    C2 8786  15.978   0.611  10.859  0.0648  0.0601  0.3737
  550loPI    C3 8787  15.830   0.409  11.172 -0.2381 -0.0817  0.1441
  550loPI   PO4 8788  15.462   0.450  10.570 -0.0966 -0.0191 -0.2331
  550loPI   GL1 8789  15.512   0.372  10.065  0.0354  0.0231 -0.2033
  550loPI   GL2 8790  15.411   0.075  10.013  0.2281 -0.0263  0.2515
  550loPI   C1A 8791  15.463   0.693   9.693 -0.1271  0.0212  0.1053
  550loPI   C2A 8792  15.327   0.831   9.263 -0.0060  0.0063 -0.0318
  550loPI   C3A 8793  15.566   0.919   8.957 -0.0120  0.0056  0.1940
  550loPI   C4A 8794  15.697   1.085   8.580  0.1054  0.1085  0.0325
  550loPI   C5A 8795  15.684   1.404   8.224 -0.0737  0.0643  0.2031
  550loPI   C6A 8796  15.294   1.684   8.232  0.0937  0.0877 -0.2746
  550loPI   C1B 8797  15.494  -0.351   9.703  0.0301  0.2340  0.1825
  550loPI   C2B 8798  15.583  -0.717   9.459 -0.1682 -0.0701 -0.1308
  550loPI   C3B 8799  15.528  -0.715   9.066  0.0395 -0.3097 -0.3697
  550loPI   C4B 8800  15.391  -0.385   8.702 -0.3093  0.3822 -0.0824
  551loPI    C1 8801   0.846   8.060  10.653  0.0580  0.0149 -0.1367
  551loPI    C2 8802   0.978   8.379  10.854 -0.1517 -0.0205  0.0613
  551loPI    C3 8803   0.790   8.085  11.048  0.1806 -0.3420 -0.0934
  551loPI   PO4 8804   0.784   8.114  10.373  0.0293  0.3283  0.0861
  551loPI   GL1 8805   0.742   8.076   9.995  0.1032  0.1748 -0.1133
  551loPI   GL2 8806   0.607   8.421   9.807 -0.2171 -0.2667 -0.1532
  551loPI   C1A 8807   0.840   7.959   9.524 -0.3185  0.1400 -0.1249
  551loPI   C2A 8808   0.804   7.980   9.100  0.1921  0.0676 -0.3459
  551loPI   C3A 8809   0.932   8.019   8.692 -0.0124 -0.1974  0.0216
  551loPI   C4A 8810   1.025   7.867   8.308 -0.1209  0.2306  0.2299
  551loPI   C5A 8811   1.038   7.548   8.063 -0.0273  0.1768 -0.1478
  551loPI   C6A 8812   0.998   7.226   7.802 -0.1620 -0.1356  0.0320
  551loPI   C1B 8813   0.861   8.612   9.465  0.0281 -0.1937 -0.2964
  551loPI   C2B 8814   0.860   8.732   9.030  0.1872  0.0695  0.2503
  551loPI   C3B 8815   0.692   8.416   8.746  0.1394  0.0395  0.1562
  551loPI   C4B 8816   0.739   8.335   8.264 -0.1483  0.0478 -0.0917
  552loPI    C1 8817   7.939  12.785  10.843  0.1667 -0.0020  0.2220
  552loPI    C2 8818   7.671  12.956  11.087 -0.0865  0.0950 -0.1157
  552loPI    C3 8819   7.930  13.183  10.884  0.1369  0.0133  0.0732
  552loPI   PO4 8820   7.834  12.661  10.699 -0.0294 -0.0884  0.0720
  552loPI   GL1 8821   7.753  12.690  10.251 -0.0803 -0.2072 -0.1088
  552loPI   GL2 8822   7.449  12.673  10.280 -0.2392  0.1700 -0.1610
  552loPI   C1A 8823   7.707  12.977  10.011  0.3479 -0.2417  0.0517
  552loPI   C2A 8824   7.682  13.136   9.644  0.1690  0.1630  0.1605
  552loPI   C3A 8825   7.854  13.505   9.673 -0.0329 -0.2006  0.1465
  552loPI   C4A 8826   7.929  13.599   9.217  0.0896 -0.0216  0.2204
  552loPI   C5A 8827   8.041  13.536   8.781 -0.0512 -0.3210 -0.0761
  552loPI   C6A 8828   7.987  13.652   8.294 -0.0497 -0.1499 -0.1900
  552loPI   C1B 8829   7.425  12.590   9.900  0.0222 -0.0169 -0.2607
  552loPI   C2B 8830   7.461  12.551   9.447 -0.5069  0.0706  0.0648
  552loPI   C3B 8831   7.457  12.664   9.094 -0.3859 -0.2965 -0.1592
  552loPI   C4B 8832   7.696  13.082   8.934 -0.0257  0.1092  0.2846
  553loPI    C1 8833   3.623   2.959  11.062 -0.0668  0.1330 -0.0939
  553loPI    C2 8834   3.646   3.315  11.243 -0.3092  0.1759 -0.1447
  553loPI    C3 8835   3.312   3.096  11.273 -0.1594 -0.0503 -0.1093
  553loPI   PO4 8836   3.682   2.939  10.829  0.0588 -0.0183 -0.0125
  553loPI   GL1 8837   3.776   2.820  10.408  0.0002  0.2306  0.0889
  553loPI   GL2 8838   3.839   3.140  10.345  0.2779  0.1120 -0.4030
  553loPI   C1A 8839   3.692   2.768   9.921 -0.5224  0.0164 -0.2975
  553loPI   C2A 8840   3.807   2.852   9.410 -0.1300 -0.0420  0.1504
  553loPI   C3A 8841   3.917   2.788   9.014 -0.1444  0.0920 -0.0695
  553loPI   C4A 8842   3.994   2.863   8.533  0.0363  0.2221 -0.1584
  553loPI   C5A 8843   3.772   2.899   8.212 -0.1991  0.1695 -0.0815
  553loPI   C6A 8844   3.403   3.067   8.184  0.3817  0.2771  0.0816
  553loPI   C1B 8845   3.865   3.264   9.846  0.0975  0.1914  0.0356
  553loPI   C2B 8846   4.050   3.330   9.486 -0.0565  0.0934  0.4463
  553loPI   C3B 8847   4.065   3.270   9.104  0.2684  0.0635 -0.0945
  553loPI   C4B 8848   4.228   3.317   8.703 -0.0213 -0.0343  0.1266
  554loPI    C1 8849  11.502  14.036  11.052  0.3649 -0.0676 -0.0660
  554loPI    C2 8850  11.150  13.939  11.215  0.2526  0.0476 -0.2372
  554loPI    C3 8851  11.474  13.977  11.447  0.1757 -0.1612 -0.0928
  554loPI   PO4 8852  11.489  13.910  10.862 -0.1532 -0.2242  0.1200
  554loPI   GL1 8853  11.730  13.872  10.459  0.1453  0.3308 -0.1307
  554loPI   GL2 8854  11.996  13.843  10.418 -0.2006  0.1300  0.2264
  554loPI   C1A 8855  11.706  13.952   9.985  0.0766  0.0030  0.1014
  554loPI   C2A 8856  11.715  13.931   9.577  0.1573 -0.0479  0.1862
  554loPI   C3A 8857  11.577  13.866   9.276 -0.1275 -0.0003  0.1341
  554loPI   C4A 8858  11.471  13.913   8.795 -0.0929 -0.0347  0.3102
  554loPI   C5A 8859  11.306  14.007   8.352 -0.4297 -0.0506 -0.1568
  554loPI   C6A 8860  11.006  14.230   8.045 -0.3314 -0.0131 -0.0968
  554loPI   C1B 8861  12.222  13.975  10.126 -0.1047  0.0515  0.1907
  554loPI   C2B 8862  12.211  14.045   9.666  0.2181 -0.2273  0.0078
  554loPI   C3B 8863  12.103  14.037   9.254 -0.0509  0.2959 -0.0569
  554loPI   C4B 8864  11.961  13.928   8.894 -0.2691  0.1095 -0.1219
  555loPI    C1 8865  15.056   4.110  11.091 -0.1630 -0.1964 -0.3595
  555loPI    C2 8866  14.836   3.872  11.326 -0.0135  0.1177  0.1134
  555loPI    C3 8867  15.151   3.723  11.130 -0.0203 -0.1094  0.2714
  555loPI   PO4 8868  14.985   4.183  10.781  0.1597 -0.3180  0.0201
  555loPI   GL1 8869  14.590   4.202  10.544 -0.1403 -0.0561 -0.1770
  555loPI   GL2 8870  14.301   4.377  10.560  0.1329  0.3833 -0.0091
  555loPI   C1A 8871  14.725   4.195  10.155  0.1229 -0.2120 -0.4028
  555loPI   C2A 8872  14.627   4.216   9.708  0.2698  0.0769 -0.0541
  555loPI   C3A 8873  14.504   4.300   9.324  0.0645 -0.1548  0.0258
  555loPI   C4A 8874  14.444   4.354   8.953  0.1653 -0.1405 -0.2467
  555loPI   C5A 8875  14.522   4.482   8.638  0.1168  0.1067 -0.2963
  555loPI   C6A 8876  14.689   4.772   8.416  0.0837  0.0894  0.0962
  555loPI   C1B 8877  14.277   4.468  10.106 -0.0616 -0.2313 -0.2505
  555loPI   C2B 8878  14.162   4.635   9.638  0.1120  0.0080 -0.0814
  555loPI   C3B 8879  14.095   4.800   9.221  0.0182  0.4809 -0.3504
  555loPI   C4B 8880  14.136   4.829   8.829  0.0442 -0.1581 -0.0800
  556loPI    C1 8881  17.322   7.121  10.842  0.1642  0.1363  0.2987
  556loPI    C2 8882  16.943   7.105  10.970  0.0044 -0.1746 -0.1851
  556loPI    C3 8883  17.240   6.976  11.206 -0.2335 -0.3310  0.0350
  556loPI   PO4 8884  17.262   7.125  10.546  0.2460  0.1461  0.2372
  556loPI   GL1 8885  17.215   7.387  10.230  0.0543  0.2890  0.2062
  556loPI   GL2 8886  17.305   7.770  10.221 -0.1200 -0.1587 -0.1922
  556loPI   C1A 8887  17.206   6.998   9.854  0.1949 -0.0493 -0.3858
  556loPI   C2A 8888  17.123   6.900   9.490 -0.1655 -0.2024  0.1322
  556loPI   C3A 8889  16.992   6.546   9.160  0.0838 -0.2252  0.0807
  556loPI   C4A 8890  16.920   6.724   8.810  0.0058  0.4036  0.3906
  556loPI   C5A 8891  16.950   7.162   8.657 -0.0831 -0.0174 -0.2038
  556loPI   C6A 8892  16.757   7.485   8.510  0.4382 -0.2750  0.0785
  556loPI   C1B 8893  17.276   7.612   9.814  0.3946 -0.1744  0.0087
  556loPI   C2B 8894  17.407   7.365   9.468 -0.0460  0.0089 -0.4434
  556loPI   C3B 8895  17.213   7.271   9.098  0.0945  0.2515 -0.0104
  556loPI   C4B 8896  17.397   6.983   8.838  0.3437  0.1667  0.0457
  557loPI    C1 8897   5.789  10.811  11.029 -0.0898  0.2420  0.1565
  557loPI    C2 8898   5.989  10.828  11.375  0.0136  0.0208  0.1094
  557loPI    C3 8899   5.939  10.476  11.190 -0.0348  0.1384 -0.1041
  557loPI   PO4 8900   5.759  11.036  10.888  0.1239 -0.1548  0.0966
  557loPI   GL1 8901   5.552  11.238  10.604  0.3209 -0.2030 -0.0075
  557loPI   GL2 8902   5.297  11.262  10.413  0.2769 -0.1453  0.0017
  557loPI   C1A 8903   5.690  11.019  10.242  0.1606  0.1786 -0.0443
  557loPI   C2A 8904   5.839  11.057   9.844 -0.0699  0.0907  0.0011
  557loPI   C3A 8905   5.748  11.111   9.486 -0.0783  0.0655 -0.3175
  557loPI   C4A 8906   5.777  11.033   9.052 -0.0208 -0.0058 -0.2387
  557loPI   C5A 8907   5.880  10.969   8.693  0.3969 -0.2300 -0.0538
  557loPI   C6A 8908   6.012  10.989   8.299 -0.2746 -0.1585 -0.1082
  557loPI   C1B 8909   5.434  11.418  10.017 -0.0364 -0.1067 -0.0261
  557loPI   C2B 8910   5.402  11.490   9.598 -0.1981 -0.3036  0.1506
  557loPI   C3B 8911   5.499  11.447   9.201 -0.2002  0.0266 -0.2262
  557loPI   C4B 8912   5.436  11.509   8.837  0.3568 -0.3507  0.0832
  558loPI    C1 8913   1.200  15.381  10.549 -0.0427 -0.1795 -0.0215
  558loPI    C2 8914   1.021  15.035  10.642  0.0631 -0.2529 -0.0891
  558loPI    C3 8915   1.258  15.216  10.909 -0.0949 -0.1653 -0.0064
  558loPI   PO4 8916   1.307  15.379  10.358  0.0592 -0.2056  0.1423
  558loPI   GL1 8917   1.427  15.304   9.971 -0.1600  0.2935  0.0071
  558loPI   GL2 8918   1.649  15.147  10.003 -0.0711 -0.0554  0.0577
  558loPI   C1A 8919   1.089  15.210   9.554  0.0856  0.1895 -0.2380
  558loPI   C2A 8920   0.867  15.238   9.143 -0.1025 -0.2965  0.0219
  558loPI   C3A 8921   0.794  15.211   8.806 -0.0851 -0.1398 -0.0890
  558loPI   C4A 8922   0.616  15.251   8.337 -0.0021 -0.2521 -0.1551
  558loPI   C5A 8923   0.767  15.023   7.984 -0.2439  0.1616 -0.0231
  558loPI   C6A 8924   0.736  14.633   7.777  0.4353  0.1310  0.2364
  558loPI   C1B 8925   1.618  15.107   9.540 -0.2400  0.0785 -0.2517
  558loPI   C2B 8926   1.391  15.103   9.168  0.0063 -0.0370 -0.1077
  558loPI   C3B 8927   1.285  15.305   8.823 -0.0573  0.1308 -0.3130
  558loPI   C4B 8928   1.164  15.478   8.357  0.0900 -0.0089 -0.0736
  559loPI    C1 8929  17.717   4.427  10.774 -0.2667 -0.0570  0.0632
  559loPI    C2 8930  17.445   4.505  11.056  0.0641  0.1874  0.3226
  559loPI    C3 8931  17.739   4.244  11.128 -0.1373 -0.1333  0.0162
  559loPI   PO4 8932  17.631   4.350  10.548  0.0966 -0.0445  0.2691
  559loPI   GL1 8933  17.746   4.181  10.084  0.2779  0.1602  0.3506
  559loPI   GL2 8934  17.746   3.839  10.080  0.5123  0.0485 -0.2882
  559loPI   C1A 8935  17.479   4.004   9.757 -0.1827 -0.0440  0.1213
  559loPI   C2A 8936  17.280   4.161   9.444  0.5062  0.0428  0.0650
  559loPI   C3A 8937  17.309   4.150   9.052  0.1830  0.1402  0.3762
  559loPI   C4A 8938  17.440   4.278   8.677 -0.0697 -0.1773  0.0291
  559loPI   C5A 8939  17.817   4.295   8.426  0.0075  0.0668  0.0787
  559loPI   C6A 8940  18.235   4.424   8.610 -0.0288 -0.0094 -0.0066
  559loPI   C1B 8941  18.060   3.936   9.768 -0.0494 -0.0986 -0.0550
  559loPI   C2B 8942  18.178   4.326   9.556  0.1824 -0.1091 -0.1532
  559loPI   C3B 8943  18.152   4.687   9.312 -0.1381 -0.1196  0.1530
  559loPI   C4B 8944  18.381   4.749   8.936  0.0817  0.0679 -0.2119
  560loPI    C1 8945   1.061   3.626  11.056 -0.2809  0.1146  0.1484
  560loPI    C2 8946   0.725   3.569  10.847 -0.1495  0.0721 -0.0531
  560loPI    C3 8947   0.822   3.318  11.143 -0.2038 -0.0222 -0.1148
  560loPI   PO4 8948   1.230   3.732  10.839 -0.2199  0.0099 -0.1470
  560loPI   GL1 8949   1.334   3.878  10.551  0.0495  0.0867  0.1193
  560loPI   GL2 8950   1.549   4.046  10.422 -0.1926  0.0919  0.1819
  560loPI   C1A 8951   1.050   3.782  10.177 -0.2111 -0.5517  0.1122
  560loPI   C2A 8952   1.218   3.878   9.708  0.2428 -0.2445 -0.3415
  560loPI   C3A 8953   1.349   3.886   9.274 -0.1194 -0.0068  0.0711
  560loPI   C4A 8954   1.514   3.826   8.838  0.0106 -0.2215  0.1669
  560loPI   C5A 8955   1.686   4.094   8.395 -0.1860  0.1191  0.2334
  560loPI   C6A 8956   1.870   4.518   8.292 -0.0807 -0.0135  0.1496
  560loPI   C1B 8957   1.548   4.162   9.997 -0.0975 -0.1488 -0.0876
  560loPI   C2B 8958   1.630   4.182   9.633 -0.0066 -0.1086  0.1192
  560loPI   C3B 8959   1.837   3.967   9.337 -0.2929  0.0903 -0.4664
  560loPI   C4B 8960   1.938   4.075   8.907 -0.1374  0.0526 -0.2092
  561loPI    C1 8961   9.441   6.816  11.242 -0.1059 -0.2234 -0.2047
  561loPI    C2 8962   9.640   6.913  11.575 -0.0207 -0.1359 -0.2805
  561loPI    C3 8963   9.425   6.576  11.562  0.0216 -0.1684 -0.1563
  561loPI   PO4 8964   9.486   6.969  11.087  0.1398  0.0368 -0.2796
  561loPI   GL1 8965   9.617   7.140  10.668 -0.0937 -0.1587  0.0437
  561loPI   GL2 8966   9.350   6.993  10.607  0.4136 -0.1055 -0.2630
  561loPI   C1A 8967   9.947   7.276  10.377  0.0775  0.0832  0.0701
  561loPI   C2A 8968   9.980   7.499  10.023  0.1101 -0.2386 -0.0922
  561loPI   C3A 8969  10.002   7.486   9.582 -0.1070 -0.0255  0.1809
  561loPI   C4A 8970   9.982   7.443   9.120 -0.2878  0.1592 -0.1174
  561loPI   C5A 8971   9.897   7.595   8.677  0.0846  0.0319  0.0738
  561loPI   C6A 8972   9.749   7.950   8.412  0.1270  0.4446  0.0041
  561loPI   C1B 8973   9.260   6.877  10.269  0.1244 -0.3263 -0.0497
  561loPI   C2B 8974   9.212   6.898   9.880  0.0614  0.1139  0.3251
  561loPI   C3B 8975   9.244   6.916   9.376  0.1851  0.1391 -0.0193
  561loPI   C4B 8976   9.257   6.946   8.927 -0.0214  0.1732 -0.3308
  562loPI    C1 8977  11.900   9.575  11.104 -0.0246 -0.0145 -0.0676
  562loPI    C2 8978  11.655   9.848  11.265  0.2933  0.2090  0.0478
  562loPI    C3 8979  11.967   9.711  11.474  0.1912 -0.1790 -0.0446
  562loPI   PO4 8980  11.766   9.640  10.785 -0.1135 -0.0582 -0.0085
  562loPI   GL1 8981  12.035   9.777  10.536  0.2090  0.2743 -0.0847
  562loPI   GL2 8982  11.848  10.040  10.353  0.0229 -0.1216 -0.4362
  562loPI   C1A 8983  12.421   9.988  10.197  0.1670 -0.1737 -0.2671
  562loPI   C2A 8984  12.307   9.988   9.740  0.0018  0.1714  0.0697
  562loPI   C3A 8985  12.333   9.974   9.337  0.0388 -0.2391  0.1553
  562loPI   C4A 8986  12.330  10.020   8.852  0.1787  0.0079  0.2617
  562loPI   C5A 8987  12.290  10.049   8.370  0.1718 -0.1280 -0.0279
  562loPI   C6A 8988  12.164  10.319   8.057 -0.1020 -0.0151 -0.1878
  562loPI   C1B 8989  11.870   9.986   9.972  0.1583 -0.1731 -0.0222
  562loPI   C2B 8990  11.826   9.935   9.481 -0.1379  0.0766 -0.0823
  562loPI   C3B 8991  11.684  10.029   9.079 -0.1779 -0.0283 -0.1997
  562loPI   C4B 8992  11.799   9.970   8.701  0.1349 -0.0552  0.1538
  563loPI    C1 8993   7.471  10.807  11.032  0.0749  0.3778 -0.0833
  563loPI    C2 8994   7.640  11.081  11.269  0.0365  0.1923  0.1623
  563loPI    C3 8995   7.836  10.743  11.182 -0.0707  0.1267  0.1742
  563loPI   PO4 8996   7.332  10.983  10.820 -0.1661 -0.1854  0.0747
  563loPI   GL1 8997   7.008  11.055  10.440 -0.1327 -0.3532  0.3234
  563loPI   GL2 8998   7.198  10.753  10.390 -0.3198 -0.2835  0.0523
  563loPI   C1A 8999   6.805  11.186  10.160 -0.1748 -0.0130  0.0959
  563loPI   C2A 9000   6.777  11.118   9.812 -0.1908  0.3121  0.0001
  563loPI   C3A 9001   6.828  11.192   9.295  0.3317  0.3471 -0.3136
  563loPI   C4A 9002   6.851  11.190   8.898 -0.0326  0.1254 -0.2915
  563loPI   C5A 9003   7.175  11.422   8.583  0.1173  0.0578  0.0167
  563loPI   C6A 9004   7.271  11.472   8.164  0.0643  0.0478 -0.0513
  563loPI   C1B 9005   7.127  10.779   9.929 -0.2049  0.1665 -0.2322
  563loPI   C2B 9006   7.075  10.730   9.515 -0.0362 -0.1260  0.2521
  563loPI   C3B 9007   7.183  10.856   9.070  0.0437  0.0091 -0.0868
  563loPI   C4B 9008   7.267  10.875   8.705 -0.1194  0.2464 -0.2454
  564loPI    C1 9009  14.408   5.873  10.536  0.0496  0.0172 -0.1405
  564loPI    C2 9010  14.580   5.573  10.335 -0.0646 -0.1069 -0.0549
  564loPI    C3 9011  14.616   5.593  10.732 -0.1412 -0.0631 -0.0500
  564loPI   PO4 9012  14.468   6.069  10.391  0.0292  0.0818 -0.1661
  564loPI   GL1 9013  14.396   5.946   9.960 -0.3366 -0.2200 -0.0534
  564loPI   GL2 9014  14.573   5.713   9.880  0.1445 -0.0764 -0.2655
  564loPI   C1A 9015  14.319   6.099   9.544  0.2460 -0.0298 -0.2638
  564loPI   C2A 9016  14.207   6.129   9.103  0.0495  0.0122  0.0343
  564loPI   C3A 9017  14.213   6.179   8.743  0.2680 -0.1957 -0.2289
  564loPI   C4A 9018  14.294   6.100   8.235  0.2148  0.1672 -0.0939
  564loPI   C5A 9019  14.692   6.206   8.004 -0.1700 -0.1525  0.1643
  564loPI   C6A 9020  14.947   5.959   7.726  0.3986  0.0817  0.2219
  564loPI   C1B 9021  14.539   5.671   9.461  0.0406 -0.2524 -0.1890
  564loPI   C2B 9022  14.494   5.753   9.131  0.0185  0.4184 -0.0631
  564loPI   C3B 9023  14.507   5.763   8.677  0.0159 -0.2753 -0.1542
  564loPI   C4B 9024  14.627   5.725   8.230  0.1052  0.0276 -0.1106
  565loPI    C1 9025  11.324   8.274  10.859  0.4507 -0.3511 -0.1470
  565loPI    C2 9026  11.105   7.941  10.875 -0.0782 -0.0065  0.0410
  565loPI    C3 9027  11.289   8.075  11.204  0.1223 -0.1015 -0.0310
  565loPI   PO4 9028  11.398   8.264  10.575  0.0657 -0.0885 -0.1321
  565loPI   GL1 9029  11.161   8.486  10.330 -0.0039  0.1747 -0.0890
  565loPI   GL2 9030  11.007   8.227  10.154 -0.3087 -0.1786  0.1056
  565loPI   C1A 9031  11.315   8.545   9.918 -0.0435  0.1138 -0.2267
  565loPI   C2A 9032  11.309   8.423   9.474 -0.0006 -0.4427  0.1833
  565loPI   C3A 9033  11.389   8.525   8.993 -0.2299  0.1574  0.2862
  565loPI   C4A 9034  11.402   8.513   8.562 -0.2345  0.1988  0.0644
  565loPI   C5A 9035  11.488   8.206   8.319 -0.1706  0.0407  0.0246
  565loPI   C6A 9036  11.469   8.105   7.846  0.3284 -0.0368 -0.2706
  565loPI   C1B 9037  11.109   7.993   9.843 -0.2455  0.0735  0.0389
  565loPI   C2B 9038  11.076   7.962   9.355  0.0397 -0.1304  0.0283
  565loPI   C3B 9039  11.108   8.046   9.018  0.0429  0.0401  0.0284
  565loPI   C4B 9040  11.052   8.209   8.689 -0.0065 -0.1927 -0.0501
  566loPI    C1 9041  11.815  14.388  10.943 -0.0425  0.1577 -0.0025
  566loPI    C2 9042  11.549  14.588  11.164  0.0350  0.0713  0.1705
  566loPI    C3 9043  11.823  14.357  11.341 -0.0821 -0.2261 -0.0280
  566loPI   PO4 9044  11.799  14.475  10.753  0.0508 -0.2388 -0.0213
  566loPI   GL1 9045  11.901  14.345  10.326  0.4377 -0.1917  0.3321
  566loPI   GL2 9046  11.516  14.341  10.298 -0.1460  0.3109  0.1714
  566loPI   C1A 9047  11.736  14.465   9.902 -0.1681  0.2279 -0.1945
  566loPI   C2A 9048  11.828  14.418   9.524 -0.1518  0.3075  0.0821
  566loPI   C3A 9049  11.801  14.352   9.107  0.2174 -0.0899 -0.1387
  566loPI   C4A 9050  11.760  14.331   8.674  0.3269 -0.2260  0.3686
  566loPI   C5A 9051  11.825  14.484   8.168  0.2074 -0.1809  0.0171
  566loPI   C6A 9052  11.643  14.679   7.779  0.3687  0.0807  0.1231
  566loPI   C1B 9053  11.253  14.376   9.850 -0.0324  0.2238 -0.1489
  566loPI   C2B 9054  11.355  14.289   9.437  0.0882  0.0993 -0.2177
  566loPI   C3B 9055  11.282  14.332   9.018 -0.0279 -0.2200 -0.0335
  566loPI   C4B 9056  11.215  14.444   8.490  0.2305  0.0184 -0.0297
  567loPI    C1 9057   4.131  17.521  10.633  0.0534 -0.3236 -0.0549
  567loPI    C2 9058   3.884  17.648  10.922  0.0753 -0.2604 -0.0638
  567loPI    C3 9059   4.263  17.553  11.010  0.1707  0.0516 -0.1234
  567loPI   PO4 9060   4.128  17.648  10.403 -0.1853  0.0699  0.1242
  567loPI   GL1 9061   4.386  17.622  10.005  0.1677 -0.2957 -0.0427
  567loPI   GL2 9062   4.198  17.401   9.966 -0.1683  0.2007  0.1918
  567loPI   C1A 9063   4.365  17.709   9.524  0.2628  0.0653 -0.0794
  567loPI   C2A 9064   4.330  17.753   9.073  0.0587  0.2420  0.2339
  567loPI   C3A 9065   4.423  17.848   8.633 -0.1344  0.3379  0.2493
  567loPI   C4A 9066   4.472  17.827   8.191 -0.1530 -0.2409 -0.0369
  567loPI   C5A 9067   4.364  18.070   7.787 -0.1160  0.1136 -0.0531
  567loPI   C6A 9068   4.407  18.490   7.611  0.1256 -0.1742 -0.2014
  567loPI   C1B 9069   4.080  17.153   9.661 -0.0793 -0.0205  0.2083
  567loPI   C2B 9070   4.063  17.270   9.223 -0.2426 -0.0630  0.3944
  567loPI   C3B 9071   4.229  17.261   8.880  0.2179  0.3429 -0.2489
  567loPI   C4B 9072   4.281  17.380   8.429 -0.0916 -0.1474  0.0077
  568loPI    C1 9073  13.571   2.827  10.611  0.2645  0.2867 -0.2025
  568loPI    C2 9074  13.779   2.820  10.953 -0.0034  0.2973 -0.0363
  568loPI    C3 9075  13.782   3.148  10.724  0.2592  0.2540 -0.0982
  568loPI   PO4 9076  13.455   2.592  10.628  0.2935 -0.0970 -0.0440
  568loPI   GL1 9077  13.507   2.313  10.271  0.0727 -0.0617 -0.0766
  568loPI   GL2 9078  13.358   2.147  10.352  0.0063  0.0453  0.1987
  568loPI   C1A 9079  13.400   2.276   9.775 -0.0261  0.1972  0.1625
  568loPI   C2A 9080  13.578   2.418   9.395 -0.1355 -0.0533  0.2038
  568loPI   C3A 9081  13.622   2.370   8.921 -0.2231  0.2213 -0.0765
  568loPI   C4A 9082  13.710   2.486   8.440 -0.2454 -0.0916 -0.2595
  568loPI   C5A 9083  14.092   2.439   8.110 -0.2012  0.0503 -0.3645
  568loPI   C6A 9084  14.299   2.294   7.821  0.0394  0.2236 -0.1950
  568loPI   C1B 9085  12.991   2.244  10.143 -0.1061 -0.0566  0.0541
  568loPI   C2B 9086  12.901   2.075   9.787  0.0106  0.0779 -0.3361
  568loPI   C3B 9087  13.095   2.171   9.404  0.0247  0.2469 -0.3857
  568loPI   C4B 9088  13.095   2.270   9.019 -0.0001  0.2167 -0.4779
  569loPI    C1 9089  14.317  15.465  10.839  0.0502  0.1364  0.0397
  569loPI    C2 9090  14.640  15.523  11.067  0.0365 -0.0906  0.1185
  569loPI    C3 9091  14.275  15.532  11.231  0.0125 -0.0086  0.0609
  569loPI   PO4 9092  14.469  15.168  10.676  0.1685 -0.2429  0.1408
  569loPI   GL1 9093  14.719  15.201  10.347  0.0753  0.0742 -0.1643
  569loPI   GL2 9094  14.677  15.473  10.149 -0.0031  0.0394 -0.0916
  569loPI   C1A 9095  14.986  15.055  10.032 -0.3584  0.0131 -0.1014
  569loPI   C2A 9096  15.021  14.920   9.650  0.1684 -0.0645  0.1556
  569loPI   C3A 9097  15.004  14.817   9.194  0.1370 -0.0322  0.0240
  569loPI   C4A 9098  14.880  14.811   8.785  0.3173 -0.2099  0.0157
  569loPI   C5A 9099  14.787  14.790   8.433  0.2660 -0.0072  0.1175
  569loPI   C6A 9100  14.913  14.478   8.103  0.4053  0.1610 -0.1666
  569loPI   C1B 9101  14.679  15.305   9.680  0.0053 -0.0264  0.0147
  569loPI   C2B 9102  14.642  15.201   9.281  0.2152 -0.3830 -0.1093
  569loPI   C3B 9103  14.496  15.190   8.900 -0.0606 -0.0398  0.0507
  569loPI   C4B 9104  14.449  15.204   8.486  0.0584  0.2105  0.0053
  570loPI    C1 9105   8.062  10.255  11.004 -0.1753 -0.1979  0.1169
  570loPI    C2 9106   8.183   9.879  10.943  0.1502 -0.0591 -0.1293
  570loPI    C3 9107   8.159  10.023  11.315 -0.0038 -0.3291 -0.0314
  570loPI   PO4 9108   8.138  10.358  10.886 -0.1501  0.1764 -0.1622
  570loPI   GL1 9109   7.933  10.394  10.495 -0.3591 -0.3514  0.0950
  570loPI   GL2 9110   7.762  10.642  10.666  0.1545  0.2241 -0.1347
  570loPI   C1A 9111   7.980  10.355  10.012  0.0650  0.3008  0.2146
  570loPI   C2A 9112   7.989  10.416   9.619  0.3702 -0.0168 -0.1886
  570loPI   C3A 9113   8.015  10.407   9.134 -0.0493  0.2188  0.1326
  570loPI   C4A 9114   7.985  10.442   8.716 -0.3272  0.3844  0.2438
  570loPI   C5A 9115   7.963  10.405   8.158  0.0383  0.0769 -0.0669
  570loPI   C6A 9116   7.644  10.184   7.934 -0.1675  0.1468 -0.0699
  570loPI   C1B 9117   7.642  10.714  10.214 -0.3796 -0.2524 -0.0899
  570loPI   C2B 9118   7.674  10.781   9.870 -0.0018  0.0240  0.1122
  570loPI   C3B 9119   7.726  10.777   9.422  0.2541  0.0615 -0.1094
  570loPI   C4B 9120   7.712  10.898   8.959  0.0306 -0.0044  0.3088
  571loPI    C1 9121  16.002   2.569  10.709  0.3419 -0.0449 -0.2294
  571loPI    C2 9122  16.151   2.792  11.006  0.1056 -0.0445 -0.1090
  571loPI    C3 9123  16.285   2.420  10.949  0.1571 -0.0421 -0.0065
  571loPI   PO4 9124  15.944   2.744  10.569 -0.0503  0.2909  0.3068
  571loPI   GL1 9125  16.055   2.701  10.153 -0.2570 -0.0890 -0.2401
  571loPI   GL2 9126  15.761   2.724  10.038  0.1000  0.0686  0.2759
  571loPI   C1A 9127  16.190   2.769   9.714  0.3345 -0.2808 -0.0712
  571loPI   C2A 9128  16.049   3.100   9.481 -0.0832 -0.0958  0.2753
  571loPI   C3A 9129  15.995   3.377   9.096  0.1305 -0.0423 -0.0270
  571loPI   C4A 9130  16.118   3.618   8.839  0.1309 -0.1511  0.0773
  571loPI   C5A 9131  16.390   3.863   8.575  0.1678 -0.3353 -0.2448
  571loPI   C6A 9132  16.405   4.261   8.499 -0.4279 -0.3212 -0.0450
  571loPI   C1B 9133  15.735   2.722   9.582 -0.0078 -0.1096  0.1663
  571loPI   C2B 9134  15.819   2.867   9.069  0.3101 -0.1600  0.0627
  571loPI   C3B 9135  15.601   2.935   8.642  0.0798 -0.1891 -0.0280
  571loPI   C4B 9136  15.736   3.234   8.405 -0.1531  0.0416 -0.1523
  572loPI    C1 9137  17.520  10.916  10.899  0.1674 -0.3519 -0.0485
  572loPI    C2 9138  17.880  11.089  10.910  0.0693 -0.1594  0.2565
  572loPI    C3 9139  17.769  10.838  11.202 -0.1241 -0.0505  0.2787
  572loPI   PO4 9140  17.425  10.838  10.644 -0.1836  0.0122  0.0032
  572loPI   GL1 9141  17.419  10.933  10.235 -0.1636  0.0052 -0.1256
  572loPI   GL2 9142  17.098  11.018  10.138 -0.1746  0.0455 -0.1833
  572loPI   C1A 9143  17.566  10.980   9.754 -0.0396  0.0231 -0.2686
  572loPI   C2A 9144  17.775  10.843   9.422 -0.0176  0.2819  0.0947
  572loPI   C3A 9145  18.027  10.668   9.175  0.1336 -0.1454  0.1831
  572loPI   C4A 9146  17.984  10.768   8.834  0.1310  0.0737  0.0774
  572loPI   C5A 9147  18.352  11.090   8.644  0.0050  0.1532 -0.2040
  572loPI   C6A 9148  18.342  11.372   8.268  0.2946  0.0727 -0.0976
  572loPI   C1B 9149  16.897  11.001   9.735 -0.1353  0.1668 -0.1424
  572loPI   C2B 9150  16.750  10.976   9.332 -0.3058  0.2334  0.0672
  572loPI   C3B 9151  16.618  10.819   8.909  0.0175 -0.0414  0.0592
  572loPI   C4B 9152  16.317  10.880   8.588  0.0282  0.1295 -0.0392
  573loPI    C1 9153  17.713  12.488  10.815 -0.1605  0.2562 -0.1309
  573loPI    C2 9154  17.840  12.231  11.094 -0.1698  0.0464 -0.3176
  573loPI    C3 9155  17.982  12.605  11.088 -0.0234 -0.0049 -0.1515
  573loPI   PO4 9156  17.858  12.416  10.535  0.2811  0.1250  0.0467
  573loPI   GL1 9157  18.054  12.642  10.280 -0.1698 -0.3323  0.0805
  573loPI   GL2 9158  17.856  12.663  10.052  0.3249 -0.0398  0.0564
  573loPI   C1A 9159  18.361  12.486  10.020  0.1904  0.0450  0.3816
  573loPI   C2A 9160  18.496  12.122   9.951  0.1611  0.0618  0.0951
  573loPI   C3A 9161  18.552  11.963   9.533  0.0696 -0.0702 -0.2613
  573loPI   C4A 9162  18.674  12.177   9.143 -0.0151  0.0750  0.1140
  573loPI   C5A 9163  18.899  11.986   8.835  0.4530 -0.0458  0.2659
  573loPI   C6A 9164  19.073  11.608   8.676  0.0183  0.2288  0.1340
  573loPI   C1B 9165  17.994  12.497   9.653  0.0228 -0.2404  0.2238
  573loPI   C2B 9166  18.010  12.370   9.194  0.2118  0.0788  0.3606
  573loPI   C3B 9167  18.029  12.640   8.896 -0.1586 -0.2555  0.1349
  573loPI   C4B 9168  18.236  13.022   8.592  0.2887 -0.1569  0.0436
  574loPI    C1 9169  15.675  14.555  10.617 -0.0012 -0.0576 -0.0161
  574loPI    C2 9170  15.860  14.841  10.826  0.1566  0.0276 -0.2667
  574loPI    C3 9171  15.461  14.807  10.842  0.1506  0.1561 -0.1079
  574loPI   PO4 9172  15.796  14.560  10.387 -0.0127 -0.1570  0.1643
  574loPI   GL1 9173  15.840  14.497   9.978 -0.1141  0.1362  0.1028
  574loPI   GL2 9174  15.728  14.152  10.110  0.0377 -0.0281  0.3397
  574loPI   C1A 9175  15.798  14.555   9.506  0.0720 -0.0238  0.1584
  574loPI   C2A 9176  15.759  14.493   9.092  0.0239  0.0658  0.0166
  574loPI   C3A 9177  15.778  14.439   8.691  0.1797 -0.0711 -0.3105
  574loPI   C4A 9178  15.762  14.418   8.302 -0.1757 -0.1316 -0.2298
  574loPI   C5A 9179  16.142  14.364   7.937  0.1806 -0.1172  0.1873
  574loPI   C6A 9180  16.460  14.335   7.917 -0.0862  0.0946  0.3300
  574loPI   C1B 9181  15.567  14.106   9.720 -0.0423  0.1355 -0.4287
  574loPI   C2B 9182  15.566  13.995   9.287  0.2268  0.1657  0.3437
  574loPI   C3B 9183  15.512  14.000   8.842 -0.0177 -0.1946  0.2017
  574loPI   C4B 9184  15.431  14.066   8.499  0.1007 -0.0067  0.5240
  575loPI    C1 9185   1.922  10.457  10.798  0.2973 -0.0745 -0.0531
  575loPI    C2 9186   1.996  10.443  11.191 -0.1708 -0.0028  0.0432
  575loPI    C3 9187   1.972  10.796  11.004  0.2860 -0.0424 -0.1029
  575loPI   PO4 9188   2.136  10.179  10.718 -0.2023  0.0153 -0.2688
  575loPI   GL1 9189   2.205   9.914  10.374 -0.1558  0.0140  0.2306
  575loPI   GL2 9190   2.045   9.937  10.122  0.1912  0.1973 -0.1738
  575loPI   C1A 9191   2.539   9.943  10.030  0.0140 -0.0913  0.2089
  575loPI   C2A 9192   2.670   9.961   9.615  0.0497 -0.0042  0.1958
  575loPI   C3A 9193   2.708   9.949   9.146  0.0924  0.0788 -0.0204
  575loPI   C4A 9194   2.766   9.850   8.719 -0.0411  0.0344  0.1286
  575loPI   C5A 9195   2.849   9.902   8.255  0.0350 -0.3256  0.3498
  575loPI   C6A 9196   3.137   9.873   7.944  0.1111  0.0368 -0.3833
  575loPI   C1B 9197   2.103   9.900   9.670 -0.1213  0.2266 -0.2611
  575loPI   C2B 9198   2.260   9.882   9.269  0.1837  0.2605  0.0976
  575loPI   C3B 9199   2.292   9.949   8.756  0.1909 -0.2444  0.3565
  575loPI   C4B 9200   2.362   9.728   8.309  0.0670 -0.2685  0.0223
  576loPI    C1 9201   4.034   7.017  11.238  0.0971  0.0422 -0.0322
  576loPI    C2 9202   3.666   7.114  11.362  0.0871 -0.1156  0.0638
  576loPI    C3 9203   3.983   7.200  11.591  0.0911 -0.1716  0.0794
  576loPI   PO4 9204   3.925   6.858  11.059 -0.0139 -0.3386  0.1616
  576loPI   GL1 9205   3.543   6.816  10.789  0.1998 -0.3470  0.0671
  576loPI   GL2 9206   3.747   6.484  10.719 -0.0171  0.0966  0.1294
  576loPI   C1A 9207   3.597   6.949  10.300 -0.0595  0.1488  0.0081
  576loPI   C2A 9208   3.685   6.955   9.833  0.3700  0.0302  0.0884
  576loPI   C3A 9209   3.729   6.819   9.530  0.0979  0.0558 -0.3170
  576loPI   C4A 9210   3.835   6.811   9.065 -0.0498 -0.1734  0.2001
  576loPI   C5A 9211   3.557   6.696   8.729 -0.0083  0.1355 -0.1146
  576loPI   C6A 9212   3.241   6.550   8.655 -0.1042 -0.0623  0.0837
  576loPI   C1B 9213   3.934   6.422  10.310  0.1471 -0.1091  0.2759
  576loPI   C2B 9214   3.970   6.446   9.829 -0.2025  0.1494 -0.0564
  576loPI   C3B 9215   4.128   6.450   9.399 -0.1715  0.0956 -0.3620
  576loPI   C4B 9216   4.139   6.427   8.930  0.0804  0.1319  0.2172
  577loPI    C1 9217   9.127  15.112  11.030  0.1250 -0.1936  0.0201
  577loPI    C2 9218   8.908  15.337  11.278 -0.0763 -0.2852 -0.0719
  577loPI    C3 9219   9.181  15.084  11.426  0.1191 -0.0165  0.0339
  577loPI   PO4 9220   9.017  15.115  10.809  0.2836 -0.1345  0.1497
  577loPI   GL1 9221   9.075  15.142  10.409  0.0341  0.2913  0.0013
  577loPI   GL2 9222   9.170  15.369  10.379 -0.0308  0.1043 -0.3271
  577loPI   C1A 9223   9.087  14.880  10.106  0.0995 -0.1378 -0.0261
  577loPI   C2A 9224   9.230  14.926   9.751  0.1421 -0.0778  0.2023
  577loPI   C3A 9225   9.093  14.956   9.385  0.4758  0.2867  0.1048
  577loPI   C4A 9226   9.039  15.017   8.902 -0.2134  0.1013 -0.0026
  577loPI   C5A 9227   9.055  14.991   8.403 -0.0807  0.3112  0.0912
  577loPI   C6A 9228   8.941  14.965   7.996  0.2331  0.2934 -0.0139
  577loPI   C1B 9229   9.184  15.366   9.968 -0.1417  0.1612  0.1427
  577loPI   C2B 9230   9.249  15.420   9.587 -0.1014 -0.0883 -0.1315
  577loPI   C3B 9231   9.336  15.418   9.151 -0.0682 -0.0385 -0.1483
  577loPI   C4B 9232   9.296  15.394   8.772 -0.0833 -0.0161 -0.2004
  578loPI    C1 9233  12.341   0.158  10.759  0.1824  0.0570 -0.0777
  578loPI    C2 9234  12.091   0.040  11.048 -0.0305  0.2053 -0.1986
  578loPI    C3 9235  12.385   0.299  11.131 -0.0212  0.1610 -0.0916
  578loPI   PO4 9236  12.230   0.285  10.578 -0.0206 -0.0012  0.0070
  578loPI   GL1 9237  12.263   0.378  10.171  0.2399 -0.0761 -0.2023
  578loPI   GL2 9238  12.558   0.255  10.094 -0.0416  0.0007  0.0417
  578loPI   C1A 9239  11.987   0.543   9.841 -0.0213 -0.0559 -0.1924
  578loPI   C2A 9240  11.744   0.560   9.493 -0.1797 -0.3225 -0.3064
  578loPI   C3A 9241  11.597   0.534   9.116 -0.0192 -0.0583  0.3293
  578loPI   C4A 9242  11.573   0.429   8.671  0.1197  0.1702 -0.2590
  578loPI   C5A 9243  11.235   0.422   8.398 -0.0407  0.0749  0.2310
  578loPI   C6A 9244  11.150   0.164   8.046 -0.2700  0.1045  0.0640
  578loPI   C1B 9245  12.798   0.215   9.793 -0.0397  0.2202 -0.0570
  578loPI   C2B 9246  12.717   0.190   9.313  0.2344  0.4227 -0.1208
  578loPI   C3B 9247  12.917   0.230   8.903 -0.1373  0.1465 -0.2301
  578loPI   C4B 9248  12.921   0.429   8.546  0.0650 -0.0216  0.2060
  579loPI    C1 9249   9.794   5.639  11.348  0.2786  0.0740  0.1650
  579loPI    C2 9250   9.624   5.983  11.463 -0.0132  0.0525 -0.1840
  579loPI    C3 9251   9.516   5.638  11.636  0.0628  0.1007 -0.0395
  579loPI   PO4 9252   9.760   5.648  11.076  0.1039  0.0568  0.1192
  579loPI   GL1 9253   9.727   5.593  10.507  0.0831  0.1743  0.2556
  579loPI   GL2 9254   9.736   5.924  10.459 -0.0555  0.3224 -0.0323
  579loPI   C1A 9255   9.541   5.470  10.167 -0.0482  0.0966 -0.0614
  579loPI   C2A 9256   9.578   5.589   9.744 -0.0960 -0.0521 -0.0516
  579loPI   C3A 9257   9.612   5.655   9.222  0.3458  0.0570 -0.1126
  579loPI   C4A 9258   9.552   5.762   8.787  0.2148  0.0173 -0.1132
  579loPI   C5A 9259   9.336   6.160   8.633  0.0583 -0.1220 -0.0205
  579loPI   C6A 9260   9.410   6.482   8.318  0.3628  0.0044  0.0175
  579loPI   C1B 9261   9.857   5.973   9.973  0.0401  0.3758 -0.0608
  579loPI   C2B 9262   9.832   5.999   9.525 -0.2090 -0.0828 -0.0250
  579loPI   C3B 9263   9.816   6.093   9.045 -0.1728  0.0485 -0.2290
  579loPI   C4B 9264   9.826   6.198   8.533 -0.1938  0.1461  0.1881
  580loPI    C1 9265  16.751   6.184  10.909  0.0071 -0.0238 -0.1537
  580loPI    C2 9266  17.015   6.111  11.201  0.1755  0.2179 -0.2423
  580loPI    C3 9267  16.640   6.215  11.292  0.2014  0.1994 -0.1130
  580loPI   PO4 9268  16.858   6.207  10.735  0.2338  0.0905  0.3776
  580loPI   GL1 9269  16.986   6.316  10.315 -0.0773 -0.2102  0.1020
  580loPI   GL2 9270  17.151   6.163  10.206 -0.1438 -0.1302  0.0038
  580loPI   C1A 9271  16.829   6.558   9.903 -0.1687 -0.1629  0.1499
  580loPI   C2A 9272  16.596   6.769   9.563 -0.0876 -0.3345 -0.0555
  580loPI   C3A 9273  16.521   6.795   9.187 -0.1250  0.0128 -0.0966
  580loPI   C4A 9274  16.398   6.543   8.775  0.0690 -0.1109  0.1297
  580loPI   C5A 9275  16.566   6.108   8.531 -0.2587  0.0531 -0.1097
  580loPI   C6A 9276  16.506   6.081   8.038 -0.1806 -0.0521  0.0033
  580loPI   C1B 9277  16.902   6.025   9.817 -0.2112  0.1175 -0.2073
  580loPI   C2B 9278  16.970   6.091   9.377  0.3566  0.0481  0.1903
  580loPI   C3B 9279  17.419   6.061   9.124 -0.0291  0.1746  0.0167
  580loPI   C4B 9280  17.673   5.779   8.795  0.0475  0.0180 -0.3165
  581loPI    C1 9281   6.476   8.923  11.464  0.1854  0.0040 -0.1646
  581loPI    C2 9282   6.639   8.703  11.756 -0.0142  0.1193  0.0378
  581loPI    C3 9283   6.744   9.087  11.712  0.1181  0.0650 -0.1316
  581loPI   PO4 9284   6.490   8.756  11.259 -0.3593  0.0475 -0.0421
  581loPI   GL1 9285   6.306   8.716  10.722  0.0668  0.0620 -0.0927
  581loPI   GL2 9286   6.413   8.498  10.603  0.2875  0.3036  0.0774
  581loPI   C1A 9287   6.169   8.898  10.342  0.1060  0.0722  0.2124
  581loPI   C2A 9288   6.188   8.938   9.959 -0.2563  0.1235 -0.1433
  581loPI   C3A 9289   6.221   8.853   9.505 -0.0469 -0.1016 -0.2737
  581loPI   C4A 9290   6.298   8.804   9.096 -0.2083 -0.2522 -0.0378
  581loPI   C5A 9291   6.449   9.008   8.707 -0.2625 -0.1109 -0.3325
  581loPI   C6A 9292   6.564   9.308   8.388 -0.0079  0.1751  0.1026
  581loPI   C1B 9293   6.303   8.466  10.094  0.0151  0.1531  0.0241
  581loPI   C2B 9294   6.467   8.447   9.693  0.1826 -0.0776 -0.1420
  581loPI   C3B 9295   6.522   8.408   9.290 -0.3126  0.4151 -0.1049
  581loPI   C4B 9296   6.516   8.428   8.896  0.0679  0.0226 -0.0221
  582loPI    C1 9297   4.264   0.041  10.863  0.0787 -0.1531  0.0526
  582loPI    C2 9298   4.246   0.323  11.147 -0.2615 -0.0876 -0.0302
  582loPI    C3 9299   4.092  -0.040  11.215 -0.0946 -0.1597 -0.0325
  582loPI   PO4 9300   4.136   0.080  10.622  0.1209  0.0638 -0.1549
  582loPI   GL1 9301   3.939   0.430  10.327  0.3447 -0.1045 -0.1311
  582loPI   GL2 9302   3.971   0.060  10.140 -0.0901  0.3179 -0.0765
  582loPI   C1A 9303   4.121   0.533   9.950 -0.0208  0.1067 -0.5661
  582loPI   C2A 9304   4.243   0.644   9.591 -0.1256  0.0010 -0.0841
  582loPI   C3A 9305   4.331   0.644   9.089 -0.0093  0.1123 -0.1621
  582loPI   C4A 9306   4.251   0.618   8.648  0.0089 -0.3208  0.2689
  582loPI   C5A 9307   4.273   0.906   8.267  0.3410  0.0942  0.1149
  582loPI   C6A 9308   4.049   1.246   8.177  0.3142  0.1522 -0.0441
  582loPI   C1B 9309   4.004   0.174   9.678  0.1017  0.0872 -0.2751
  582loPI   C2B 9310   4.070   0.225   9.284  0.2928  0.0905 -0.1076
  582loPI   C3B 9311   4.130   0.151   8.850 -0.1071  0.1443 -0.2068
  582loPI   C4B 9312   4.057   0.125   8.403  0.3192  0.0782 -0.0798
  583loPI    C1 9313   0.094  16.264  10.604 -0.0231  0.0194 -0.1191
  583loPI    C2 9314  -0.132  16.429  10.890  0.2188  0.0973  0.0301
  583loPI    C3 9315   0.049  16.079  10.955 -0.1682 -0.1589 -0.2299
  583loPI   PO4 9316  -0.018  16.126  10.419  0.0067  0.1497  0.0040
  583loPI   GL1 9317  -0.198  15.905  10.099  0.1731  0.1431  0.0095
  583loPI   GL2 9318  -0.119  15.645  10.147 -0.1560 -0.2002  0.2771
  583loPI   C1A 9319  -0.316  15.684   9.720 -0.0728  0.1492 -0.0689
  583loPI   C2A 9320  -0.390  15.886   9.410 -0.0545  0.0990 -0.1669
  583loPI   C3A 9321  -0.351  16.218   9.146 -0.1316 -0.2086 -0.1908
  583loPI   C4A 9322  -0.138  16.400   8.809  0.0060 -0.0018  0.0497
  583loPI   C5A 9323  -0.399  16.760   8.520 -0.1592  0.1512  0.1670
  583loPI   C6A 9324  -0.683  17.104   8.253  0.1857  0.3058  0.2129
  583loPI   C1B 9325   0.129  15.591   9.813  0.0421 -0.2701  0.2144
  583loPI   C2B 9326   0.081  15.629   9.399  0.2334  0.1639 -0.1909
  583loPI   C3B 9327  -0.179  15.607   9.041 -0.1325  0.4711  0.3031
  583loPI   C4B 9328  -0.061  15.882   8.745  0.2322  0.1252  0.0358
  584loPI    C1 9329   7.504   4.830  11.381  0.0334 -0.1827 -0.0200
  584loPI    C2 9330   7.650   5.187  11.488 -0.1044 -0.0759 -0.1811
  584loPI    C3 9331   7.528   4.928  11.768  0.1256 -0.0535 -0.0578
  584loPI   PO4 9332   7.585   4.785  11.226 -0.1862  0.0361 -0.1881
  584loPI   GL1 9333   7.637   4.774  10.788 -0.2304 -0.1193  0.2359
  584loPI   GL2 9334   7.356   4.942  10.850  0.2036 -0.1260  0.0726
  584loPI   C1A 9335   7.816   4.890  10.377  0.1654 -0.1034 -0.1869
  584loPI   C2A 9336   7.790   4.894   9.926  0.0323 -0.3329  0.2223
  584loPI   C3A 9337   7.859   4.984   9.529  0.0164  0.0350 -0.4535
  584loPI   C4A 9338   7.849   4.974   9.107 -0.0435  0.2516  0.2282
  584loPI   C5A 9339   7.857   5.052   8.714  0.1657  0.0810 -0.3932
  584loPI   C6A 9340   7.938   5.041   8.365  0.1101 -0.1672  0.0653
  584loPI   C1B 9341   7.253   5.023  10.470 -0.2020 -0.1297  0.0125
  584loPI   C2B 9342   7.266   4.910   9.992  0.1794 -0.4667 -0.2387
  584loPI   C3B 9343   7.379   4.853   9.543 -0.1019  0.0820  0.2893
  584loPI   C4B 9344   7.377   4.901   9.200  0.0469 -0.1316  0.2991
  585loPI    C1 9345   4.290   4.136  11.362 -0.0842 -0.1264  0.2064
  585loPI    C2 9346   4.520   4.356  11.604  0.0485  0.0608 -0.0843
  585loPI    C3 9347   4.134   4.300  11.691  0.0669  0.2238  0.1083
  585loPI   PO4 9348   4.340   4.140  11.151  0.0725  0.0225 -0.3164
  585loPI   GL1 9349   4.310   4.001  10.695  0.0227  0.1916 -0.1389
  585loPI   GL2 9350   4.479   4.254  10.695  0.0138 -0.2221 -0.0596
  585loPI   C1A 9351   4.427   3.833  10.333 -0.2543  0.1001 -0.1550
  585loPI   C2A 9352   4.682   3.823   9.924 -0.0566  0.2721 -0.1165
  585loPI   C3A 9353   4.764   3.732   9.516 -0.1284 -0.3873  0.0456
  585loPI   C4A 9354   4.830   3.801   9.150  0.0551  0.1814  0.1709
  585loPI   C5A 9355   4.927   3.913   8.704  0.0002  0.1260 -0.0594
  585loPI   C6A 9356   4.995   3.715   8.290  0.1320  0.0763 -0.0312
  585loPI   C1B 9357   4.327   4.323  10.274 -0.2697 -0.2371 -0.2209
  585loPI   C2B 9358   4.464   4.238   9.911  0.4038 -0.2500  0.0622
  585loPI   C3B 9359   4.535   4.232   9.388 -0.2228 -0.2118 -0.3714
  585loPI   C4B 9360   4.551   4.236   8.972 -0.0403  0.3315  0.0166
  586loPI    C1 9361   5.164   8.081  11.398  0.0672 -0.0052 -0.1294
  586loPI    C2 9362   5.206   8.479  11.391  0.0055  0.0058  0.0553
  586loPI    C3 9363   4.895   8.314  11.581  0.1467 -0.1386  0.1637
  586loPI   PO4 9364   5.213   8.015  11.119  0.0249  0.3543  0.3324
  586loPI   GL1 9365   5.456   7.984  10.866 -0.1063  0.0799  0.2195
  586loPI   GL2 9366   5.828   8.052  10.732 -0.1954 -0.0427 -0.0763
  586loPI   C1A 9367   5.542   7.660  10.586  0.3366 -0.0643 -0.2002
  586loPI   C2A 9368   5.510   7.467  10.128  0.0681  0.0015 -0.1748
  586loPI   C3A 9369   5.497   7.417   9.769  0.1141  0.0411 -0.2004
  586loPI   C4A 9370   5.536   7.389   9.229  0.1736  0.2187  0.2187
  586loPI   C5A 9371   5.406   7.314   8.766  0.1620 -0.3491 -0.3333
  586loPI   C6A 9372   5.327   6.889   8.588 -0.2122 -0.0935  0.1235
  586loPI   C1B 9373   5.747   8.072  10.306 -0.1281  0.1189 -0.0458
  586loPI   C2B 9374   5.677   8.021   9.949 -0.0626 -0.0663  0.0864
  586loPI   C3B 9375   5.774   7.824   9.610 -0.0331  0.2671  0.1915
  586loPI   C4B 9376   5.797   7.836   9.172 -0.1580  0.0486  0.1414
  587loPI    C1 9377   6.489   2.844  10.990 -0.0300  0.0506  0.1024
  587loPI    C2 9378   6.631   2.694  11.333 -0.1227 -0.1774  0.0422
  587loPI    C3 9379   6.308   2.929  11.337 -0.1695 -0.2422  0.1039
  587loPI   PO4 9380   6.636   2.930  10.840 -0.0695 -0.0522 -0.1469
  587loPI   GL1 9381   6.779   3.184  10.599 -0.0867 -0.2208 -0.2933
  587loPI   GL2 9382   6.646   3.452  10.525 -0.1232  0.1411 -0.1531
  587loPI   C1A 9383   6.802   3.155  10.135 -0.2384  0.1549  0.0894
  587loPI   C2A 9384   6.900   3.067   9.732 -0.0693  0.1527 -0.1929
  587loPI   C3A 9385   7.039   3.098   9.291 -0.0281 -0.0181 -0.0480
  587loPI   C4A 9386   7.004   3.193   8.829 -0.2277  0.0207  0.1842
  587loPI   C5A 9387   7.228   2.897   8.414  0.4638 -0.1456 -0.1266
  587loPI   C6A 9388   7.533   2.815   8.048  0.0227 -0.1290  0.2190
  587loPI   C1B 9389   6.537   3.550  10.035 -0.1613  0.1336 -0.2830
  587loPI   C2B 9390   6.675   3.476   9.568 -0.1202  0.2538 -0.1414
  587loPI   C3B 9391   6.800   3.492   9.149 -0.1531 -0.1701 -0.2498
  587loPI   C4B 9392   6.545   3.447   8.743 -0.2862  0.1661  0.2109
  588loPI    C1 9393  17.211  14.671  10.596 -0.0339  0.1701 -0.0700
  588loPI    C2 9394  17.198  14.272  10.622  0.1592  0.1569 -0.1575
  588loPI    C3 9395  17.410  14.483  10.887  0.0780  0.2001 -0.1264
  588loPI   PO4 9396  17.072  14.704  10.291  0.2196  0.0315 -0.0931
  588loPI   GL1 9397  16.826  14.566   9.965  0.2116  0.1369  0.1735
  588loPI   GL2 9398  16.495  14.595  10.029 -0.0336 -0.0078  0.3903
  588loPI   C1A 9399  16.766  14.580   9.533 -0.2062 -0.0572  0.0785
  588loPI   C2A 9400  16.815  14.572   9.080 -0.1677  0.2597  0.0278
  588loPI   C3A 9401  16.961  14.623   8.690 -0.0923 -0.2812  0.1263
  588loPI   C4A 9402  16.814  14.526   8.296 -0.1537  0.0855  0.1994
  588loPI   C5A 9403  17.029  14.424   7.974  0.1168  0.3059 -0.0454
  588loPI   C6A 9404  17.162  14.073   7.934 -0.0265  0.1335  0.0104
  588loPI   C1B 9405  16.290  14.602   9.641  0.1658 -0.0275  0.0683
  588loPI   C2B 9406  16.322  14.528   9.241  0.1564 -0.3251  0.1636
  588loPI   C3B 9407  16.337  14.466   8.793  0.1333 -0.0364 -0.2136
  588loPI   C4B 9408  16.357  14.384   8.405  0.2097  0.0102 -0.1269
  589loPI    C1 9409   6.029  11.399  11.220 -0.0121 -0.0284  0.0064
  589loPI    C2 9410   5.844  11.696  11.414  0.1589  0.0852 -0.0028
  589loPI    C3 9411   6.099  11.458  11.609  0.2158  0.1047 -0.0529
  589loPI   PO4 9412   6.173  11.448  11.003  0.0213  0.1093 -0.0188
  589loPI   GL1 9413   6.067  11.429  10.566  0.1086  0.0095  0.0098
  589loPI   GL2 9414   6.086  11.081  10.478  0.2925  0.2442  0.1611
  589loPI   C1A 9415   5.958  11.455  10.095  0.0598 -0.3076 -0.0398
  589loPI   C2A 9416   5.967  11.555   9.711  0.1841 -0.4897 -0.1397
  589loPI   C3A 9417   5.999  11.596   9.238 -0.0365 -0.1406 -0.2900
  589loPI   C4A 9418   5.983  11.519   8.953  0.0161  0.0515  0.0878
  589loPI   C5A 9419   5.840  11.445   8.542 -0.2433  0.0572  0.0409
  589loPI   C6A 9420   5.470  11.424   8.286 -0.0422  0.1046  0.2838
  589loPI   C1B 9421   6.272  11.114  10.155  0.2434 -0.4508  0.0811
  589loPI   C2B 9422   6.342  11.126   9.697 -0.0970 -0.6477  0.1378
  589loPI   C3B 9423   6.332  11.194   9.240  0.1018  0.3504  0.0170
  589loPI   C4B 9424   6.312  11.176   8.773 -0.3987  0.0236  0.1639
  590loPI    C1 9425  13.400   9.813  11.109 -0.0898 -0.2365  0.0004
  590loPI    C2 9426  13.128   9.835  11.401 -0.0855  0.3811 -0.0307
  590loPI    C3 9427  13.517   9.811  11.491 -0.1172 -0.0505  0.0105
  590loPI   PO4 9428  13.229   9.765  10.847 -0.1953 -0.3354  0.1835
  590loPI   GL1 9429  13.253   9.626  10.477 -0.1609 -0.1253  0.2944
  590loPI   GL2 9430  13.368   9.804  10.334  0.0778 -0.0665  0.0027
  590loPI   C1A 9431  13.246   9.592   9.940  0.0415 -0.3211  0.2620
  590loPI   C2A 9432  13.149   9.661   9.478  0.1010 -0.1179 -0.0351
  590loPI   C3A 9433  13.262   9.653   9.072 -0.0799 -0.1260  0.0308
  590loPI   C4A 9434  13.242   9.640   8.668 -0.1068 -0.1461 -0.1411
  590loPI   C5A 9435  13.621   9.803   8.460  0.0505  0.3934  0.0763
  590loPI   C6A 9436  14.117   9.774   8.312  0.1094  0.4867  0.4017
  590loPI   C1B 9437  13.001   9.978   9.973  0.0104  0.1515  0.1089
  590loPI   C2B 9438  12.791  10.001   9.572 -0.1518  0.0628  0.1328
  590loPI   C3B 9439  12.916  10.058   9.146 -0.0844 -0.0439  0.1025
  590loPI   C4B 9440  12.890  10.058   8.677  0.3418  0.1127 -0.0474
  591POPI    C1 9441  15.321   8.101  10.768  0.0524  0.0129 -0.0489
  591POPI    C2 9442  14.924   8.052  10.773  0.0555 -0.0001  0.2677
  591POPI    C3 9443  15.133   8.028  11.114  0.3373 -0.0590  0.0943
  591POPI   PO4 9444  15.388   8.045  10.515 -0.2556  0.0579 -0.1440
  591POPI   GL1 9445  15.269   8.264  10.137 -0.1944  0.0518 -0.2638
  591POPI   GL2 9446  15.289   8.555   9.940 -0.2801  0.2693  0.2416
  591POPI   C1A 9447  15.284   7.985   9.773  0.2313  0.0156 -0.0046
  591POPI   D2A 9448  15.102   8.090   9.394 -0.3276  0.1374  0.0375
  591POPI   C3A 9449  15.019   8.054   8.955 -0.0162 -0.2887  0.1249
  591POPI   C4A 9450  14.892   8.094   8.516  0.2262 -0.1069 -0.1725
  591POPI   C1B 9451  15.321   8.549   9.486 -0.0186 -0.0807  0.1631
  591POPI   C2B 9452  15.247   8.508   9.035 -0.0382 -0.0288  0.0817
  591POPI   C3B 9453  15.112   8.532   8.569 -0.1666 -0.1997 -0.1026
  591POPI   C4B 9454  15.322   8.268   8.200  0.0515  0.1059  0.3062
  592POPI    C1 9455   7.713   7.358  11.074 -0.0680  0.0874 -0.0781
  592POPI    C2 9456   7.368   7.470  10.907 -0.1816 -0.0319  0.0739
  592POPI    C3 9457   7.394   7.431  11.304 -0.0403 -0.1854  0.0504
  592POPI   PO4 9458   7.907   7.533  10.947 -0.0513 -0.0153 -0.4273
  592POPI   GL1 9459   7.831   7.895  10.549  0.1302 -0.2323  0.2094
  592POPI   GL2 9460   7.646   7.619  10.496  0.1030  0.0823 -0.0115
  592POPI   C1A 9461   7.765   8.130  10.183  0.3206 -0.1511  0.1220
  592POPI   D2A 9462   7.901   8.199   9.733 -0.1956 -0.2839  0.0445
  592POPI   C3A 9463   7.993   8.286   9.349 -0.3835  0.0069 -0.3193
  592POPI   C4A 9464   7.879   8.170   8.995 -0.0111  0.1686  0.0011
  592POPI   C1B 9465   7.618   7.689  10.034  0.0576 -0.1237 -0.1659
  592POPI   C2B 9466   7.669   7.593   9.705  0.1462 -0.2961  0.1935
  592POPI   C3B 9467   7.668   7.667   9.210 -0.3462 -0.0449  0.1698
  592POPI   C4B 9468   7.592   7.747   8.767  0.0222 -0.1966 -0.0888
  593POPI    C1 9469  14.379   6.531  10.691 -0.0164  0.0398  0.0416
  593POPI    C2 9470  14.176   6.209  10.814  0.0029  0.0013 -0.0271
  593POPI    C3 9471  14.269   6.498  11.074 -0.1755  0.0387 -0.0037
  593POPI   PO4 9472  14.324   6.626  10.496  0.0154  0.3876 -0.0057
  593POPI   GL1 9473  14.083   6.774  10.181  0.1485 -0.0272 -0.0237
  593POPI   GL2 9474  13.777   6.689  10.220  0.1884  0.0406  0.2522
  593POPI   C1A 9475  14.257   6.937   9.773 -0.1268 -0.2133 -0.1020
  593POPI   D2A 9476  14.166   7.051   9.341 -0.2258 -0.1133 -0.2920
  593POPI   C3A 9477  14.122   7.000   8.872 -0.0835 -0.3026  0.1790
  593POPI   C4A 9478  14.038   7.135   8.457  0.0167 -0.0093 -0.2639
  593POPI   C1B 9479  13.544   6.542   9.926 -0.0413  0.2654  0.0925
  593POPI   C2B 9480  13.414   6.428   9.535 -0.1063  0.2079 -0.3597
  593POPI   C3B 9481  13.425   6.394   9.083 -0.1794  0.1722  0.0640
  593POPI   C4B 9482  13.297   6.596   8.716 -0.0051 -0.1097  0.4307
  594POPI    C1 9483   1.496   0.343  11.053 -0.0360 -0.0485  0.2467
  594POPI    C2 9484   1.397   0.330  11.440 -0.4429  0.1761  0.1558
  594POPI    C3 9485   1.458   0.682  11.261  0.0147  0.0632  0.0764
  594POPI   PO4 9486   1.405   0.235  10.855  0.0249 -0.0959  0.0434
  594POPI   GL1 9487   1.644   0.308  10.429 -0.0413 -0.0848 -0.0824
  594POPI   GL2 9488   1.256   0.255  10.368 -0.0630 -0.3390 -0.1148
  594POPI   C1A 9489   1.519   0.422   9.939  0.3147  0.1947  0.2164
  594POPI   D2A 9490   1.573   0.516   9.465 -0.0949  0.0995 -0.1743
  594POPI   C3A 9491   1.531   0.696   9.109 -0.0185  0.0152  0.1044
  594POPI   C4A 9492   1.518   0.844   8.657 -0.0389  0.0806 -0.0085
  594POPI   C1B 9493   1.041   0.242   9.874  0.1768  0.0286  0.0688
  594POPI   C2B 9494   0.652   0.171   9.631  0.1163 -0.1009 -0.0070
  594POPI   C3B 9495   0.630   0.027   9.194  0.1183 -0.2203 -0.0487
  594POPI   C4B 9496   0.387  -0.166   8.986 -0.1028 -0.0448 -0.0764
  595POPI    C1 9497  15.786  17.615  10.789 -0.1068 -0.0401 -0.0760
  595POPI    C2 9498  15.782  17.288  11.019  0.0449  0.0085 -0.0031
  595POPI    C3 9499  15.492  17.561  11.055  0.1425  0.0844  0.2316
  595POPI   PO4 9500  15.943  17.528  10.553  0.3286 -0.0817 -0.3623
  595POPI   GL1 9501  15.848  17.448  10.034  0.2222  0.0886  0.2829
  595POPI   GL2 9502  15.657  17.293  10.192  0.0400  0.0839  0.0783
  595POPI   C1A 9503  15.962  17.822   9.771  0.0503  0.0290  0.0394
  595POPI   D2A 9504  15.740  17.874   9.310  0.1119 -0.2955 -0.0497
  595POPI   C3A 9505  15.369  17.799   9.202  0.2105 -0.0935  0.0651
  595POPI   C4A 9506  14.975  17.495   9.001 -0.2639 -0.1093 -0.0152
  595POPI   C1B 9507  15.443  17.097   9.919  0.0434 -0.1731  0.2449
  595POPI   C2B 9508  15.408  16.836   9.577 -0.0384  0.1460  0.0224
  595POPI   C3B 9509  15.222  16.656   9.230  0.1503  0.3101 -0.0201
  595POPI   C4B 9510  15.229  16.614   8.803  0.0572  0.0620  0.0457
  596POPI    C1 9511  12.919  14.487  10.763  0.0724  0.0753  0.0169
  596POPI    C2 9512  13.043  14.415  11.136 -0.1663  0.0691  0.0969
  596POPI    C3 9513  12.772  14.701  11.068 -0.0594  0.1287 -0.0831
  596POPI   PO4 9514  13.165  14.541  10.599 -0.2554  0.2536 -0.1180
  596POPI   GL1 9515  13.190  14.756  10.258 -0.1079 -0.1640 -0.3404
  596POPI   GL2 9516  13.347  14.614  10.008 -0.1785 -0.1862 -0.2487
  596POPI   C1A 9517  12.875  14.562  10.066  0.1175 -0.0723  0.0122
  596POPI   D2A 9518  12.941  14.508   9.694  0.0723 -0.1141  0.1136
  596POPI   C3A 9519  12.827  14.507   9.276 -0.3533  0.1963  0.0892
  596POPI   C4A 9520  12.780  14.518   8.804 -0.1122  0.0587  0.1518
  596POPI   C1B 9521  13.480  14.589   9.651 -0.0897  0.1340  0.0555
  596POPI   C2B 9522  13.345  14.560   9.201 -0.2786 -0.0791 -0.0448
  596POPI   C3B 9523  13.356  14.542   8.826  0.4929  0.0164  0.1428
  596POPI   C4B 9524  13.239  14.658   8.402  0.2257 -0.2702 -0.1237
  597POPI    C1 9525  15.001   0.681  10.508 -0.0737 -0.0994  0.0240
  597POPI    C2 9526  15.312   0.919  10.591 -0.0880  0.0179 -0.2460
  597POPI    C3 9527  14.945   1.021  10.711 -0.0742  0.0625 -0.2416
  597POPI   PO4 9528  15.002   0.576  10.298 -0.2507 -0.0455  0.1169
  597POPI   GL1 9529  15.019   0.387   9.968  0.0697  0.0385  0.0142
  597POPI   GL2 9530  14.808   0.176   9.978  0.2788 -0.0835 -0.0363
  597POPI   C1A 9531  15.029   0.496   9.549  0.1688 -0.0801 -0.1225
  597POPI   D2A 9532  14.919   0.547   9.102 -0.1197 -0.3869  0.1375
  597POPI   C3A 9533  15.225   0.627   8.746 -0.3401 -0.0725  0.2256
  597POPI   C4A 9534  15.167   1.066   8.475 -0.0637 -0.1980 -0.3813
  597POPI   C1B 9535  14.595   0.200   9.668 -0.1375  0.0620 -0.0339
  597POPI   C2B 9536  14.354   0.518   9.427 -0.1024  0.0467 -0.0552
  597POPI   C3B 9537  14.002   0.525   9.096  0.2138  0.1843 -0.1867
  597POPI   C4B 9538  13.948   0.605   8.677 -0.0225  0.3500  0.0848
  598POPI    C1 9539  16.108  16.863  10.738  0.0710  0.0325 -0.1153
  598POPI    C2 9540  16.190  16.562  10.488 -0.0174 -0.0565 -0.0379
  598POPI    C3 9541  16.465  16.684  10.751  0.1168  0.1116 -0.2521
  598POPI   PO4 9542  15.892  17.028  10.609  0.0432 -0.3037 -0.0888
  598POPI   GL1 9543  15.958  16.870  10.146  0.0814 -0.0272  0.0207
  598POPI   GL2 9544  15.839  16.601  10.072  0.0555 -0.1050  0.1070
  598POPI   C1A 9545  15.927  16.999   9.746  0.1872 -0.0390 -0.0613
  598POPI   D2A 9546  15.873  16.772   9.361 -0.0490  0.0979  0.2224
  598POPI   C3A 9547  15.636  16.812   8.921 -0.0784 -0.3190  0.3531
  598POPI   C4A 9548  15.452  17.004   8.523 -0.0913  0.1850 -0.0197
  598POPI   C1B 9549  15.765  16.381   9.746  0.2714  0.0398  0.0609
  598POPI   C2B 9550  15.516  16.258   9.319 -0.3936  0.1771  0.2880
  598POPI   C3B 9551  15.509  16.155   8.852 -0.0587  0.2420  0.0310
  598POPI   C4B 9552  15.585  16.494   8.500 -0.0549 -0.1653 -0.1690
  599POPI    C1 9553  10.411  13.930  10.555 -0.0251  0.0169  0.1776
  599POPI    C2 9554  10.280  14.031  10.920 -0.1009 -0.0272  0.1628
  599POPI    C3 9555  10.332  14.313  10.641 -0.2355 -0.0183  0.1461
  599POPI   PO4 9556  10.261  13.754  10.488  0.3080  0.3186  0.2148
  599POPI   GL1 9557  10.145  13.635  10.110  0.0875 -0.1069 -0.4607
  599POPI   GL2 9558   9.770  13.694  10.261 -0.0708  0.0108 -0.0286
  599POPI   C1A 9559  10.023  13.451   9.780  0.2012  0.1533  0.3475
  599POPI   D2A 9560   9.870  13.597   9.442 -0.1114  0.1301  0.1127
  599POPI   C3A 9561   9.648  13.321   9.196 -0.0192 -0.2312 -0.1666
  599POPI   C4A 9562   9.227  13.236   9.207 -0.1275 -0.1731  0.2055
  599POPI   C1B 9563   9.562  13.619   9.900  0.2487 -0.1745 -0.1637
  599POPI   C2B 9564   9.338  13.651   9.501 -0.1345 -0.1634  0.1934
  599POPI   C3B 9565   9.370  13.626   8.988 -0.1699 -0.0952 -0.1024
  599POPI   C4B 9566   8.975  13.583   8.730  0.1794  0.4280 -0.2791
  600POPI    C1 9567   5.865  13.978  10.879  0.0460 -0.0192 -0.0021
  600POPI    C2 9568   5.881  14.203  11.210  0.1704  0.0035 -0.0227
  600POPI    C3 9569   5.603  13.918  11.175  0.0316  0.1324  0.0171
  600POPI   PO4 9570   5.812  14.127  10.688 -0.2509  0.2121 -0.0564
  600POPI   GL1 9571   5.742  14.348  10.306  0.0723  0.0177 -0.0853
  600POPI   GL2 9572   5.766  14.653  10.382 -0.2506 -0.3007  0.1558
  600POPI   C1A 9573   5.713  14.247  10.001  0.0003  0.1720 -0.0894
  600POPI   D2A 9574   5.729  14.241   9.615  0.0411 -0.1263  0.1864
  600POPI   C3A 9575   5.726  14.229   9.130  0.0446  0.1140 -0.0549
  600POPI   C4A 9576   5.841  14.217   8.751 -0.1914 -0.1753  0.2935
  600POPI   C1B 9577   5.404  14.634  10.090  0.1415 -0.1914  0.0530
  600POPI   C2B 9578   5.414  14.646   9.603 -0.0050 -0.1105 -0.0297
  600POPI   C3B 9579   5.448  14.647   9.216 -0.2369 -0.0404  0.0360
  600POPI   C4B 9580   5.525  14.649   8.853  0.1050 -0.0798  0.1727
  601POPI    C1 9581  11.172  12.617  11.115  0.0378  0.0891  0.0311
  601POPI    C2 9582  11.346  12.503  11.457  0.1350  0.0320 -0.0370
  601POPI    C3 9583  10.993  12.347  11.350  0.0443  0.1429  0.0980
  601POPI   PO4 9584  11.386  12.621  10.958 -0.0207  0.1985  0.0945
  601POPI   GL1 9585  11.635  12.457  10.588  0.0784  0.1814  0.0477
  601POPI   GL2 9586  11.917  12.428  10.552  0.3027  0.1549 -0.1119
  601POPI   C1A 9587  11.437  12.734  10.354 -0.0082 -0.2277 -0.0416
  601POPI   D2A 9588  11.290  12.945   9.946  0.0957  0.0927 -0.0267
  601POPI   C3A 9589  11.141  12.978   9.538  0.0702  0.0193 -0.0475
  601POPI   C4A 9590  11.122  13.002   9.094 -0.5297 -0.1346  0.2726
  601POPI   C1B 9591  11.797  12.526  10.120  0.2972  0.2145  0.0364
  601POPI   C2B 9592  11.594  12.624   9.740 -0.0077  0.0893  0.0905
  601POPI   C3B 9593  11.406  12.531   9.326  0.4985 -0.2911 -0.1351
  601POPI   C4B 9594  11.209  12.574   8.856 -0.1200  0.0161  0.1893
  602POPI    C1 9595  11.376   1.667  11.188  0.1000 -0.1158 -0.1414
  602POPI    C2 9596  11.761   1.644  11.292  0.0851  0.0126 -0.0552
  602POPI    C3 9597  11.509   1.867  11.507 -0.1219 -0.3831  0.1246
  602POPI   PO4 9598  11.349   1.682  10.877  0.1051 -0.1316 -0.2596
  602POPI   GL1 9599  11.314   1.455  10.455 -0.2996 -0.3520  0.1235
  602POPI   GL2 9600  11.347   1.184  10.201 -0.0355 -0.1206 -0.0746
  602POPI   C1A 9601  11.483   1.822  10.114  0.3256  0.1956  0.0057
  602POPI   D2A 9602  11.496   2.228   9.914  0.0438  0.0829  0.1284
  602POPI   C3A 9603  11.489   2.331   9.514 -0.1231 -0.0121 -0.2961
  602POPI   C4A 9604  11.702   2.655   9.165 -0.1925  0.2300  0.1927
  602POPI   C1B 9605  11.104   1.126   9.841  0.0479 -0.0981 -0.2265
  602POPI   C2B 9606  10.961   1.179   9.520 -0.1193  0.4054  0.2120
  602POPI   C3B 9607  11.232   1.548   9.357  0.2437 -0.0691  0.1093
  602POPI   C4B 9608  11.319   1.834   9.621  0.1023  0.0441  0.0685
  603POPI    C1 9609  17.099  10.543  10.886  0.2662 -0.1219 -0.2357
  603POPI    C2 9610  17.228  10.279  11.157  0.0161 -0.0062  0.0004
  603POPI    C3 9611  17.272  10.671  11.223 -0.3029  0.0305  0.0107
  603POPI   PO4 9612  17.203  10.385  10.636  0.0540  0.3978  0.0481
  603POPI   GL1 9613  17.218  10.481  10.256  0.2419 -0.3030  0.0221
  603POPI   GL2 9614  17.573  10.441  10.301  0.1593 -0.0303 -0.0359
  603POPI   C1A 9615  17.213  10.605   9.795 -0.0372 -0.1257  0.2194
  603POPI   D2A 9616  17.243  10.756   9.378  0.0558  0.1456  0.1509
  603POPI   C3A 9617  17.526  10.617   9.063  0.1370 -0.0435  0.0447
  603POPI   C4A 9618  17.574  10.507   8.560  0.1108  0.1647 -0.1365
  603POPI   C1B 9619  17.629  10.295   9.899 -0.1208 -0.3937 -0.1783
  603POPI   C2B 9620  17.820  10.224   9.556  0.0382  0.1093  0.1481
  603POPI   C3B 9621  17.734  10.160   9.168  0.3425 -0.2561  0.2021
  603POPI   C4B 9622  17.589   9.764   9.049  0.1991  0.0014  0.2015
  604POPI    C1 9623   8.937   7.666  11.203  0.0129 -0.0415 -0.3030
  604POPI    C2 9624   8.814   7.767  11.570  0.4627 -0.2274 -0.0941
  604POPI    C3 9625   8.668   7.439  11.394 -0.0131  0.0488 -0.2315
  604POPI   PO4 9626   9.012   7.916  11.014 -0.0823  0.2508  0.1937
  604POPI   GL1 9627   8.989   7.985  10.590  0.0107  0.2264  0.1114
  604POPI   GL2 9628   9.114   7.717  10.445 -0.1484  0.0148 -0.1919
  604POPI   C1A 9629   8.904   8.189  10.195  0.0791 -0.1119  0.0740
  604POPI   D2A 9630   8.888   8.270   9.763  0.1510  0.1583  0.4068
  604POPI   C3A 9631   8.987   8.213   9.298 -0.1391 -0.0376  0.1092
  604POPI   C4A 9632   8.945   8.190   8.892 -0.1112  0.1307 -0.1448
  604POPI   C1B 9633   9.186   7.854   9.970  0.2024  0.0651  0.1177
  604POPI   C2B 9634   9.114   7.766   9.605  0.3685 -0.1351 -0.1996
  604POPI   C3B 9635   9.235   7.827   9.214 -0.2424 -0.0512  0.1193
  604POPI   C4B 9636   9.301   7.867   8.779 -0.2384  0.2681  0.4274
  605POPI    C1 9637   0.327   7.986  10.883 -0.0105 -0.0586 -0.1589
  605POPI    C2 9638  -0.002   7.932  11.103  0.0291  0.0062 -0.0834
  605POPI    C3 9639   0.296   7.666  11.121  0.0648  0.0517  0.0004
  605POPI   PO4 9640   0.215   8.078  10.593 -0.0353 -0.0411  0.0466
  605POPI   GL1 9641   0.114   7.979  10.143 -0.1618  0.2193  0.2301
  605POPI   GL2 9642  -0.125   7.836  10.056 -0.0926 -0.0628  0.2947
  605POPI   C1A 9643   0.329   8.009   9.703  0.0258  0.2968  0.1178
  605POPI   D2A 9644   0.430   8.272   9.333  0.0120 -0.1621  0.0830
  605POPI   C3A 9645   0.340   8.056   8.958  0.1032 -0.1285  0.3240
  605POPI   C4A 9646   0.444   8.030   8.502  0.0595 -0.1552 -0.0044
  605POPI   C1B 9647  -0.442   8.024   9.832 -0.0325 -0.1689 -0.2578
  605POPI   C2B 9648  -0.514   7.969   9.338 -0.0223  0.1330  0.1628
  605POPI   C3B 9649  -0.662   8.208   8.962  0.1389 -0.0141  0.0078
  605POPI   C4B 9650  -0.422   8.517   8.779 -0.0287  0.0688 -0.2367
  606POPI    C1 9651   6.623  17.726  10.668  0.1034 -0.3665 -0.0266
  606POPI    C2 9652   6.784  17.648  11.026 -0.0127 -0.1990  0.0634
  606POPI    C3 9653   6.410  17.789  11.001  0.0901  0.0490 -0.1091
  606POPI   PO4 9654   6.935  17.700  10.557  0.0551 -0.0890  0.1099
  606POPI   GL1 9655   7.091  17.677  10.197 -0.0257  0.1529  0.0979
  606POPI   GL2 9656   7.326  17.966  10.281 -0.2203 -0.2858 -0.2672
  606POPI   C1A 9657   7.000  17.868   9.707  0.0688  0.0858 -0.0145
  606POPI   D2A 9658   6.974  17.983   9.218 -0.0553 -0.3363  0.4844
  606POPI   C3A 9659   7.093  18.026   8.788  0.0745 -0.0198 -0.0554
  606POPI   C4A 9660   7.234  18.122   8.290  0.0420 -0.0415  0.3116
  606POPI   C1B 9661   7.546  17.939   9.817  0.2977 -0.4359 -0.0741
  606POPI   C2B 9662   7.478  17.934   9.464  0.1090  0.2208 -0.2028
  606POPI   C3B 9663   7.488  18.044   9.155 -0.0889 -0.0273 -0.1603
  606POPI   C4B 9664   7.571  18.065   8.712  0.1507  0.1048  0.0868
  607DPPI    C1 9665  16.666  15.886  11.119 -0.0531  0.0259 -0.0919
  607DPPI    C2 9666  16.570  16.215  11.327 -0.0572  0.0115 -0.0711
  607DPPI    C3 9667  16.846  15.963  11.468 -0.0869 -0.0174 -0.0648
  607DPPI   PO4 9668  16.510  15.948  10.868  0.0196  0.0020 -0.3301
  607DPPI   GL1 9669  16.441  15.694  10.526  0.0018  0.1602 -0.0513
  607DPPI   GL2 9670  16.190  15.635  10.246 -0.1689 -0.0428 -0.1792
  607DPPI   C1A 9671  16.589  15.803  10.058  0.1161  0.1530  0.5497
  607DPPI   C2A 9672  16.700  15.505   9.723  0.0873  0.0550  0.0899
  607DPPI   C3A 9673  16.668  15.521   9.314  0.1686  0.1197 -0.1642
  607DPPI   C4A 9674  16.864  15.588   8.884 -0.2080 -0.1915  0.1301
  607DPPI   C1B 9675  16.206  15.423   9.911 -0.0308 -0.0608  0.0760
  607DPPI   C2B 9676  16.157  15.488   9.424 -0.1049  0.0533 -0.3579
  607DPPI   C3B 9677  16.224  15.415   8.981  0.0797  0.0938 -0.2005
  607DPPI   C4B 9678  16.222  15.321   8.514 -0.3567 -0.0770 -0.2452
  608DPPI    C1 9679  17.511   9.155  10.811  0.0402 -0.0024  0.1350
  608DPPI    C2 9680  17.568   9.493  11.017 -0.0094  0.1179 -0.0471
  608DPPI    C3 9681  17.871   9.237  10.965  0.0484  0.1713  0.0254
  608DPPI   PO4 9682  17.478   9.198  10.548  0.1438 -0.3341 -0.0500
  608DPPI   GL1 9683  17.607   9.018  10.106  0.0804 -0.4379 -0.1517
  608DPPI   GL2 9684  17.431   8.844   9.980 -0.2668  0.0267 -0.1314
  608DPPI   C1A 9685  17.640   9.196   9.618 -0.1297  0.1899 -0.2280
  608DPPI   C2A 9686  17.817   9.335   9.178  0.1000  0.0575  0.2215
  608DPPI   C3A 9687  17.924   9.215   8.797 -0.2381 -0.1719  0.1084
  608DPPI   C4A 9688  17.989   8.893   8.579  0.1440 -0.1284  0.3545
  608DPPI   C1B 9689  17.426   8.543   9.700 -0.2154 -0.0821 -0.0330
  608DPPI   C2B 9690  17.233   8.466   9.393  0.1021  0.2736  0.3335
  608DPPI   C3B 9691  16.858   8.233   9.107  0.1192  0.2819 -0.0382
  608DPPI   C4B 9692  16.553   8.253   8.766 -0.2971  0.1846 -0.6498
  609DPPI    C1 9693   8.157   0.032  11.147 -0.3284 -0.0554 -0.2018
  609DPPI    C2 9694   8.127   0.402  11.297  0.1203 -0.0345 -0.1504
  609DPPI    C3 9695   7.871   0.117  11.414 -0.0342  0.1808  0.0452
  609DPPI   PO4 9696   8.198   0.061  10.836 -0.0130 -0.1470 -0.0581
  609DPPI   GL1 9697   8.461  -0.017  10.448  0.2381  0.1263  0.3428
  609DPPI   GL2 9698   8.201   0.289  10.395  0.1446  0.0346 -0.0354
  609DPPI   C1A 9699   8.525   0.038  10.015  0.0741  0.2212  0.0299
  609DPPI   C2A 9700   8.563   0.042   9.608  0.4413 -0.0394  0.2551
  609DPPI   C3A 9701   8.571   0.090   9.217 -0.1247 -0.3697 -0.2371
  609DPPI   C4A 9702   8.542   0.138   8.845  0.1353  0.0967 -0.0511
  609DPPI   C1B 9703   8.172   0.470   9.947  0.0071 -0.2065  0.1237
  609DPPI   C2B 9704   8.204   0.472   9.563 -0.4336 -0.1509 -0.0599
  609DPPI   C3B 9705   8.236   0.531   9.153  0.2685  0.0110 -0.0029
  609DPPI   C4B 9706   8.262   0.601   8.650 -0.1625  0.1456 -0.3515
  610DPPI    C1 9707  13.606   0.745  10.839 -0.0722 -0.0196 -0.1921
  610DPPI    C2 9708  13.702   0.964  11.160 -0.0595  0.1240 -0.2926
  610DPPI    C3 9709  13.366   0.747  11.159  0.1946 -0.2882  0.0165
  610DPPI   PO4 9710  13.523   0.912  10.597 -0.1915 -0.0778  0.0086
  610DPPI   GL1 9711  13.469   0.716  10.105  0.2130 -0.1695  0.1972
  610DPPI   GL2 9712  13.667   1.085  10.129 -0.1091  0.0354  0.1816
  610DPPI   C1A 9713  13.469   0.723   9.647  0.1282  0.2850 -0.0939
  610DPPI   C2A 9714  13.431   0.782   9.248 -0.1356  0.1981 -0.1261
  610DPPI   C3A 9715  13.620   0.901   8.891 -0.0739  0.0311 -0.1627
  610DPPI   C4A 9716  13.631   0.995   8.540 -0.0065  0.1983  0.0593
  610DPPI   C1B 9717  13.690   1.231   9.642  0.1567  0.1665  0.0636
  610DPPI   C2B 9718  13.460   1.283   9.190 -0.0503  0.0623 -0.1002
  610DPPI   C3B 9719  13.502   1.432   8.752  0.1631  0.3424  0.0837
  610DPPI   C4B 9720  13.363   1.508   8.411  0.1250  0.1051 -0.2306
  611DPPI    C1 9721  15.425   2.637  10.571 -0.1256 -0.1200  0.0892
  611DPPI    C2 9722  15.205   2.913  10.759 -0.1055 -0.1356  0.1359
  611DPPI    C3 9723  15.439   2.666  10.969 -0.0056 -0.0864  0.0829
  611DPPI   PO4 9724  15.317   2.680  10.329  0.0849  0.0941  0.2055
  611DPPI   GL1 9725  14.923   2.844  10.103 -0.1733  0.1926 -0.0879
  611DPPI   GL2 9726  14.715   3.075  10.043 -0.0737 -0.2749 -0.0906
  611DPPI   C1A 9727  15.052   2.987   9.718  0.0419 -0.2649 -0.0429
  611DPPI   C2A 9728  14.901   2.991   9.169  0.0871 -0.0863 -0.1414
  611DPPI   C3A 9729  14.837   3.127   8.753 -0.2236  0.2454  0.3682
  611DPPI   C4A 9730  14.866   3.040   8.301 -0.0007  0.0344  0.1111
  611DPPI   C1B 9731  14.641   3.181   9.584  0.0421  0.0699 -0.2034
  611DPPI   C2B 9732  14.527   3.304   9.276  0.3752 -0.0431 -0.1554
  611DPPI   C3B 9733  14.529   3.501   8.890 -0.0534 -0.1997  0.3408
  611DPPI   C4B 9734  14.591   3.613   8.384 -0.4035 -0.0690 -0.4308
  612DPPI    C1 9735  16.743  14.909  10.712 -0.2280  0.2756 -0.1732
  612DPPI    C2 9736  16.452  14.746  10.933  0.1857 -0.0964  0.1156
  612DPPI    C3 9737  16.672  15.046  11.081  0.3672 -0.2476  0.1561
  612DPPI   PO4 9738  16.680  14.991  10.510  0.2141  0.2698 -0.1768
  612DPPI   GL1 9739  16.682  15.296  10.154  0.0504  0.1362  0.0173
  612DPPI   GL2 9740  16.887  15.058   9.998 -0.0899  0.0467 -0.2581
  612DPPI   C1A 9741  16.446  15.031   9.833 -0.0888 -0.0477 -0.3202
  612DPPI   C2A 9742  16.501  14.989   9.390 -0.0742  0.0062  0.1260
  612DPPI   C3A 9743  16.495  15.033   8.961 -0.1085  0.0888 -0.3230
  612DPPI   C4A 9744  16.519  14.862   8.545 -0.2084 -0.0166 -0.3868
  612DPPI   C1B 9745  16.969  15.073   9.608 -0.3993 -0.0627 -0.3481
  612DPPI   C2B 9746  16.975  15.123   9.179  0.0042 -0.0269  0.1144
  612DPPI   C3B 9747  16.971  15.138   8.734  0.0365 -0.0493 -0.0638
  612DPPI   C4B 9748  16.751  15.266   8.377  0.0869  0.3061  0.0399
  613DPPI    C1 9749   3.323   4.701  11.299  0.2499  0.0578  0.1065
  613DPPI    C2 9750   3.460   4.440  11.570 -0.2467 -0.1215  0.1952
  613DPPI    C3 9751   3.327   4.799  11.687 -0.0552 -0.0290  0.1339
  613DPPI   PO4 9752   3.505   4.790  11.043  0.0563 -0.0122  0.1090
  613DPPI   GL1 9753   3.426   5.022  10.701  0.1802  0.2066  0.1361
  613DPPI   GL2 9754   3.740   5.087  10.620  0.2553 -0.0423  0.2537
  613DPPI   C1A 9755   3.322   4.990  10.311  0.0935  0.2583 -0.3889
  613DPPI   C2A 9756   3.352   4.984   9.857  0.4506  0.0904  0.0693
  613DPPI   C3A 9757   3.476   5.091   9.378 -0.0546  0.2480 -0.1017
  613DPPI   C4A 9758   3.531   4.968   8.936  0.0007 -0.1493 -0.0653
  613DPPI   C1B 9759   3.771   5.098  10.188  0.1722  0.1588 -0.0980
  613DPPI   C2B 9760   3.857   5.189   9.703 -0.0488  0.1954  0.1419
  613DPPI   C3B 9761   3.972   5.091   9.269 -0.2880  0.3141  0.1601
  613DPPI   C4B 9762   3.986   5.038   8.745 -0.0802  0.0901 -0.0220
  614DPPI    C1 9763   9.405  11.662  10.964  0.3322  0.1304 -0.3451
  614DPPI    C2 9764   9.613  11.589  11.298  0.0628  0.0543 -0.1908
  614DPPI    C3 9765   9.289  11.823  11.311 -0.0201 -0.0481 -0.3758
  614DPPI   PO4 9766   9.583  11.772  10.778 -0.2523 -0.0912 -0.4712
  614DPPI   GL1 9767   9.836  11.955  10.478 -0.2615  0.1081  0.0621
  614DPPI   GL2 9768  10.054  11.736  10.596  0.0660 -0.1616 -0.2231
  614DPPI   C1A 9769   9.794  11.954  10.064  0.2663  0.1374 -0.0308
  614DPPI   C2A 9770   9.651  11.948   9.593  0.0503  0.1162 -0.0044
  614DPPI   C3A 9771   9.649  12.028   9.145 -0.0052  0.2849  0.0097
  614DPPI   C4A 9772   9.485  11.877   8.646  0.0162 -0.0392 -0.1254
  614DPPI   C1B 9773  10.119  11.495  10.165  0.0554 -0.1760 -0.0791
  614DPPI   C2B 9774  10.055  11.441   9.826  0.2900  0.0655 -0.0940
  614DPPI   C3B 9775   9.976  11.490   9.499 -0.0243 -0.0620 -0.2486
  614DPPI   C4B 9776   9.931  11.596   9.094 -0.2184 -0.1792  0.2265
  615DPPI    C1 9777   8.094  17.151  10.925 -0.0108  0.0322 -0.1608
  615DPPI    C2 9778   7.963  16.900  11.208 -0.0892  0.0934 -0.1423
  615DPPI    C3 9779   8.136  17.245  11.312 -0.0980  0.1058 -0.1688
  615DPPI   PO4 9780   8.301  17.008  10.740  0.0836 -0.0089  0.0359
  615DPPI   GL1 9781   8.433  16.978  10.404  0.0742  0.1187  0.2368
  615DPPI   GL2 9782   8.348  16.634  10.199 -0.2571  0.2202 -0.1069
  615DPPI   C1A 9783   8.167  17.035  10.018  0.2716 -0.1883  0.0007
  615DPPI   C2A 9784   8.023  17.011   9.552 -0.0866 -0.1431  0.2301
  615DPPI   C3A 9785   7.965  17.198   9.196 -0.1234  0.1298  0.0652
  615DPPI   C4A 9786   7.994  17.271   8.771 -0.0022 -0.1943 -0.2183
  615DPPI   C1B 9787   8.394  16.644   9.753  0.1266 -0.3670  0.2767
  615DPPI   C2B 9788   8.289  16.675   9.278  0.0833  0.0117  0.0258
  615DPPI   C3B 9789   8.462  16.690   8.906  0.1128  0.0601 -0.2876
  615DPPI   C4B 9790   8.517  16.684   8.546 -0.0768 -0.1880  0.1350
  616PYPI    C1 9791  13.109   1.075  10.770  0.3910 -0.0801  0.0003
  616PYPI    C2 9792  13.222   1.434  10.904  0.2522 -0.1156  0.2162
  616PYPI    C3 9793  12.973   1.208  11.121  0.0804 -0.2058 -0.0688
  616PYPI   PO4 9794  13.025   1.089  10.546 -0.4064 -0.1064 -0.0067
  616PYPI   GL1 9795  13.049   0.934  10.114  0.2163 -0.0380  0.1589
  616PYPI   GL2 9796  13.210   1.197   9.910 -0.4182  0.0577 -0.0222
  616PYPI   C1A 9797  13.013   0.729   9.683  0.3283  0.1479  0.0888
  616PYPI   C2A 9798  12.778   0.685   9.232  0.2844  0.0188  0.0331
  616PYPI   D3A 9799  12.541   0.609   8.847 -0.2807  0.0717 -0.1450
  616PYPI   C4A 9800  12.416   0.129   8.905  0.5074  0.1746  0.2138
  616PYPI   C1B 9801  13.060   1.152   9.517 -0.1961  0.0357 -0.0798
  616PYPI   C2B 9802  13.045   1.088   9.065  0.0084 -0.0757 -0.2605
  616PYPI   C3B 9803  13.212   0.722   8.775  0.2055 -0.2835  0.1612
  616PYPI   C4B 9804  13.385   0.529   8.378  0.0727 -0.1618 -0.3018
  617PYPI    C1 9805   8.768  13.598  11.025 -0.0137 -0.1272 -0.1894
  617PYPI    C2 9806   9.107  13.478  11.200 -0.0983 -0.0865  0.0062
  617PYPI    C3 9807   9.061  13.861  11.095 -0.1351 -0.0651  0.0999
  617PYPI   PO4 9808   8.745  13.583  10.740  0.1974  0.2983 -0.2203
  617PYPI   GL1 9809   8.812  13.600  10.391 -0.1002  0.0593  0.2388
  617PYPI   GL2 9810   8.738  13.253  10.334 -0.0213  0.0406 -0.0425
  617PYPI   C1A 9811   8.845  13.740   9.873  0.1351  0.1189  0.0475
  617PYPI   C2A 9812   8.695  14.035   9.682  0.0873 -0.0305 -0.1521
  617PYPI   D3A 9813   8.781  14.040   9.333 -0.2012 -0.1713  0.3110
  617PYPI   C4A 9814   8.932  13.676   9.193 -0.2347  0.0504 -0.2539
  617PYPI   C1B 9815   8.595  13.308   9.968 -0.1137  0.2517  0.3232
  617PYPI   C2B 9816   8.449  13.511   9.568 -0.0175 -0.0991 -0.0857
  617PYPI   C3B 9817   8.406  13.649   9.113 -0.2997 -0.1872  0.2487
  617PYPI   C4B 9818   8.561  13.970   8.810 -0.0609  0.2030 -0.1819
  618PYPI    C1 9819   3.339  16.098  10.537 -0.2309 -0.2143  0.0625
  618PYPI    C2 9820   3.458  15.930  10.880  0.1956 -0.0818 -0.0153
  618PYPI    C3 9821   3.118  16.139  10.868  0.0993 -0.2147  0.2888
  618PYPI   PO4 9822   3.269  15.940  10.369  0.1976 -0.1567  0.2991
  618PYPI   GL1 9823   3.215  15.979   9.895 -0.1430  0.2069  0.2212
  618PYPI   GL2 9824   3.134  16.265   9.881  0.0581  0.3424  0.3633
  618PYPI   C1A 9825   3.354  15.803   9.467  0.1771 -0.1158 -0.2374
  618PYPI   C2A 9826   3.461  15.635   9.003  0.0684 -0.1935 -0.2427
  618PYPI   D3A 9827   3.588  15.733   8.655  0.1537  0.0844 -0.0602
  618PYPI   C4A 9828   3.360  15.946   8.283  0.3030  0.0961  0.4977
  618PYPI   C1B 9829   3.108  16.273   9.419 -0.1607 -0.2329 -0.1753
  618PYPI   C2B 9830   3.205  16.053   9.065  0.0681  0.1129 -0.2655
  618PYPI   C3B 9831   3.097  15.873   8.737  0.0632  0.1022  0.0311
  618PYPI   C4B 9832   2.881  15.698   8.476  0.0632 -0.0919 -0.0832
  619PYPI    C1 9833  10.629  12.284  10.982 -0.1993  0.0614 -0.2587
  619PYPI    C2 9834  10.321  12.539  10.962 -0.2796  0.0061  0.1822
  619PYPI    C3 9835  10.386  12.330  11.296  0.4040  0.2236  0.2012
  619PYPI   PO4 9836  10.811  12.410  10.873 -0.0784 -0.0152  0.1151
  619PYPI   GL1 9837  11.003  12.585  10.612 -0.0717 -0.1931  0.0048
  619PYPI   GL2 9838  11.138  12.310  10.551 -0.0231  0.2041 -0.1444
  619PYPI   C1A 9839  11.018  12.508  10.155  0.0254  0.0584  0.1873
  619PYPI   C2A 9840  11.011  12.541   9.696 -0.0837  0.1506 -0.0596
  619PYPI   D3A 9841  10.862  12.610   9.250  0.0022  0.1028 -0.1771
  619PYPI   C4A 9842  10.583  12.919   9.213 -0.0612 -0.1299 -0.0194
  619PYPI   C1B 9843  11.336  12.170  10.103 -0.0643  0.0124  0.4347
  619PYPI   C2B 9844  11.265  12.005   9.719  0.1337 -0.2235  0.1106
  619PYPI   C3B 9845  11.206  11.993   9.384  0.3520  0.2482 -0.1438
  619PYPI   C4B 9846  11.215  12.046   8.873 -0.0574 -0.2489 -0.2400
  620PYPI    C1 9847  17.986  17.913  10.828  0.0646  0.1412 -0.2236
  620PYPI    C2 9848  18.203  18.245  10.877  0.2426  0.0075 -0.0943
  620PYPI    C3 9849  18.176  17.978  11.174  0.0665 -0.0748 -0.1826
  620PYPI   PO4 9850  18.009  17.798  10.575 -0.0409 -0.0685  0.1820
  620PYPI   GL1 9851  17.663  17.815  10.275 -0.1814 -0.3267 -0.0317
  620PYPI   GL2 9852  17.581  18.159  10.268 -0.0105 -0.0578 -0.1821
  620PYPI   C1A 9853  17.628  17.639   9.729  0.1452 -0.4042 -0.1001
  620PYPI   C2A 9854  17.745  17.311   9.376  0.2027 -0.2674  0.1215
  620PYPI   D3A 9855  17.590  17.224   8.970 -0.0273  0.1372  0.1399
  620PYPI   C4A 9856  17.352  17.361   8.655  0.0366  0.3666  0.1202
  620PYPI   C1B 9857  17.744  18.120   9.923 -0.2033  0.1171  0.3095
  620PYPI   C2B 9858  17.644  18.197   9.520  0.0815  0.4307 -0.4551
  620PYPI   C3B 9859  17.389  18.334   9.169  0.0631  0.1257  0.2225
  620PYPI   C4B 9860  16.999  18.517   8.938 -0.3165 -0.0740  0.0165
  621PYPI    C1 9861   5.481   9.368  10.815 -0.1008 -0.1250 -0.1422
  621PYPI    C2 9862   5.184   9.622  10.899 -0.1150 -0.1809 -0.0221
  621PYPI    C3 9863   5.282   9.335  11.160  0.1417 -0.0715  0.0043
  621PYPI   PO4 9864   5.726   9.666  10.794  0.2997 -0.1868 -0.0096
  621PYPI   GL1 9865   5.902   9.791  10.429  0.0094  0.1631  0.0497
  621PYPI   GL2 9866   5.605   9.641  10.274 -0.0250 -0.4480 -0.1595
  621PYPI   C1A 9867   6.056   9.797  10.041 -0.1780 -0.1371  0.2219
  621PYPI   C2A 9868   6.111   9.762   9.681  0.1387  0.2938  0.1009
  621PYPI   D3A 9869   6.254   9.762   9.242 -0.2413 -0.0231 -0.2706
  621PYPI   C4A 9870   6.232   9.810   8.799 -0.0794  0.0102  0.2990
  621PYPI   C1B 9871   5.581   9.681   9.853 -0.0670 -0.1227  0.1032
  621PYPI   C2B 9872   5.650   9.678   9.515  0.0051  0.0633  0.1986
  621PYPI   C3B 9873   5.713   9.739   9.060 -0.1405 -0.0324 -0.0888
  621PYPI   C4B 9874   5.772   9.752   8.664  0.0536 -0.0845  0.1581
  622ERGO   ROH 9875   7.839  15.421  10.441 -0.1005  0.1449 -0.0056
  622ERGO    R1 9876   7.896  15.386  10.166 -0.1290  0.0285  0.0023
  622ERGO    R2 9877   7.846  15.148  10.032 -0.2157 -0.0053  0.0880
  622ERGO    R3 9878   7.706  15.310   9.865 -0.1738 -0.0165  0.0428
  622ERGO    R4 9879   7.842  15.123   9.687  0.0733  0.1400  0.0716
  622ERGO    R5 9880   7.849  15.340   9.676 -0.0407  0.1461  0.1685
  622ERGO    C1 9881   7.709  15.261   9.330  0.2809  0.2140  0.0197
  622ERGO    C2 9882   7.686  15.298   8.988  0.0008  0.0726 -0.2439
  623ERGO   ROH 9883   4.466  10.571  10.313 -0.4601 -0.0460 -0.0119
  623ERGO    R1 9884   4.466  10.450  10.057 -0.3283  0.0041 -0.0368
  623ERGO    R2 9885   4.330  10.556   9.842 -0.1276  0.1067 -0.1180
  623ERGO    R3 9886   4.573  10.541   9.722 -0.0449  0.0251  0.0570
  623ERGO    R4 9887   4.382  10.551   9.500  0.1168  0.0319 -0.0815
  623ERGO    R5 9888   4.537  10.401   9.531  0.0583  0.0003  0.0563
  623ERGO    C1 9889   4.640  10.533   9.188  0.3368 -0.0885  0.1041
  623ERGO    C2 9890   4.509  10.585   8.845 -0.1007  0.1078  0.0780
  624ERGO   ROH 9891   3.741  17.470  10.122 -0.1171 -0.1393 -0.0307
  624ERGO    R1 9892   3.668  17.594   9.878 -0.0968 -0.1504 -0.0436
  624ERGO    R2 9893   3.852  17.711   9.710 -0.0893 -0.0879  0.0008
  624ERGO    R3 9894   3.741  17.546   9.525  0.0014 -0.1170 -0.0268
  624ERGO    R4 9895   3.851  17.769   9.369 -0.1662 -0.0117  0.0144
  624ERGO    R5 9896   3.646  17.694   9.362 -0.1142 -0.1451  0.0184
  624ERGO    C1 9897   3.746  17.647   8.997 -0.1258  0.0056 -0.0035
  624ERGO    C2 9898   3.947  17.647   8.690 -0.2571  0.0617  0.0807
  625ERGO   ROH 9899  11.345   0.657  10.220 -0.1404 -0.0706  0.1162
  625ERGO    R1 9900  11.366   0.528   9.969 -0.0561  0.0144  0.0790
  625ERGO    R2 9901  11.157   0.386   9.857  0.0251 -0.0610  0.0227
  625ERGO    R3 9902  11.201   0.551   9.645 -0.0457  0.0248  0.0743
  625ERGO    R4 9903  11.083   0.310   9.528  0.1986 -0.0537 -0.0191
  625ERGO    R5 9904  11.270   0.404   9.469  0.1390  0.1210  0.0637
  625ERGO    C1 9905  11.081   0.420   9.138  0.2332  0.0310  0.0051
  625ERGO    C2 9906  11.104   0.287   8.862  0.1257 -0.3766 -0.0865
  626ERGO   ROH 9907   9.617  12.396  10.458  0.2148 -0.1703  0.0365
  626ERGO    R1 9908   9.498  12.454  10.208  0.0538 -0.1457  0.1172
  626ERGO    R2 9909   9.639  12.565   9.997 -0.1137  0.0089  0.0814
  626ERGO    R3 9910   9.543  12.349   9.862 -0.0633  0.0031  0.0554
  626ERGO    R4 9911   9.512  12.573   9.676 -0.1356  0.0235  0.0909
  626ERGO    R5 9912   9.356  12.435   9.739 -0.0938 -0.0285  0.0799
  626ERGO    C1 9913   9.347  12.376   9.362 -0.1008  0.0266  0.0721
  626ERGO    C2 9914   9.285  12.380   8.963  0.0982 -0.0048 -0.2038
  627ERGO   ROH 9915   4.892   0.446  10.320  0.0427 -0.0061  0.0668
  627ERGO    R1 9916   4.817   0.430  10.048 -0.0284  0.1033  0.0776
  627ERGO    R2 9917   4.735   0.651   9.903  0.0244  0.1851  0.1555
  627ERGO    R3 9918   4.933   0.572   9.733 -0.0417  0.1507  0.0967
  627ERGO    R4 9919   4.720   0.674   9.558 -0.1179  0.0498  0.1527
  627ERGO    R5 9920   4.816   0.478   9.546 -0.1004  0.0666  0.1829
  627ERGO    C1 9921   4.897   0.613   9.198 -0.2628 -0.0613  0.0959
  627ERGO    C2 9922   4.800   0.706   8.944 -0.0345 -0.0010  0.0089
  628ERGO   ROH 9923   4.337   9.275  10.464  0.1090 -0.5627  0.1327
  628ERGO    R1 9924   4.323   9.132  10.220  0.2364 -0.3616  0.0104
  628ERGO    R2 9925   4.167   9.215  10.007  0.2574 -0.2615  0.0660
  628ERGO    R3 9926   4.402   9.197   9.871  0.2862 -0.0421  0.0705
  628ERGO    R4 9927   4.194   9.176   9.665  0.2679 -0.0083  0.0314
  628ERGO    R5 9928   4.358   9.036   9.698  0.3579  0.0366 -0.0489
  628ERGO    C1 9929   4.429   9.135   9.337  0.3011  0.3452  0.0156
  628ERGO    C2 9930   4.490   9.104   8.977  0.3785  0.0757 -0.0972
  629ERGO   ROH 9931  12.086  17.933  10.136 -0.0566  0.1212  0.1324
  629ERGO    R1 9932  12.025  18.068   9.895  0.1272  0.0669  0.0527
  629ERGO    R2 9933  12.196  18.070   9.678  0.1562 -0.2514  0.0642
  629ERGO    R3 9934  11.976  17.977   9.546  0.0567 -0.0672  0.0983
  629ERGO    R4 9935  12.141  18.101   9.338  0.1672 -0.2935  0.0588
  629ERGO    R5 9936  11.931  18.144   9.381  0.2145 -0.0714  0.0548
  629ERGO    C1 9937  11.903  18.033   9.017  0.0802 -0.1449  0.0875
  629ERGO    C2 9938  11.982  18.028   8.604  0.2194  0.1509 -0.0674
  630ERGO   ROH 9939   2.676  12.614  10.184 -0.0223 -0.3827 -0.0365
  630ERGO    R1 9940   2.685  12.593   9.902 -0.0344 -0.2345 -0.0487
  630ERGO    R2 9941   2.740  12.809   9.738  0.0185 -0.1614  0.0652
  630ERGO    R3 9942   2.933  12.643   9.640 -0.0271 -0.1602 -0.0280
  630ERGO    R4 9943   2.823  12.777   9.404  0.1056  0.1112  0.0585
  630ERGO    R5 9944   2.843  12.562   9.434 -0.0026  0.0715 -0.1336
  630ERGO    C1 9945   3.052  12.604   9.118  0.1135  0.2709 -0.0330
  630ERGO    C2 9946   3.067  12.662   8.798 -0.2266  0.0131  0.0786
  631ERGO   ROH 9947   5.494  16.158  10.246 -0.2080  0.0731  0.0927
  631ERGO    R1 9948   5.555  16.017  10.008 -0.0888  0.0443  0.1410
  631ERGO    R2 9949   5.368  15.971   9.810 -0.0468 -0.1762  0.1573
  631ERGO    R3 9950   5.555  16.089   9.651 -0.1428 -0.0771  0.1147
  631ERGO    R4 9951   5.370  15.960   9.465  0.2141 -0.7174  0.1655
  631ERGO    R5 9952   5.586  15.935   9.471  0.2687 -0.3156  0.3706
  631ERGO    C1 9953   5.546  16.064   9.115  0.2759 -0.9393  0.1301
  631ERGO    C2 9954   5.654  16.029   8.724 -0.1300  0.0886  0.0335
  632ERGO   ROH 9955  15.858   1.015   9.671 -0.1602 -0.1793  0.1140
  632ERGO    R1 9956  15.807   1.104   9.407 -0.1451 -0.0655  0.1492
  632ERGO    R2 9957  15.782   1.371   9.342  0.0393 -0.0289  0.2329
  632ERGO    R3 9958  15.976   1.312   9.161 -0.0382 -0.1177  0.1766
  632ERGO    R4 9959  15.824   1.529   9.037  0.1351  0.0882  0.3050
  632ERGO    R5 9960  15.869   1.335   8.949 -0.0525  0.0855  0.2015
  632ERGO    C1 9961  16.030   1.565   8.690  0.1181  0.0731  0.2943
  632ERGO    C2 9962  16.362   1.675   8.579 -0.1667 -0.1002 -0.0369
  633ERGO   ROH 9963   8.080  12.266  10.546 -0.0974 -0.0977  0.1413
  633ERGO    R1 9964   8.003  12.166  10.293 -0.2971 -0.0477  0.1802
  633ERGO    R2 9965   7.747  12.196  10.192 -0.2415  0.4418  0.1583
  633ERGO    R3 9966   7.878  12.304   9.980 -0.0000  0.0868  0.1190
  633ERGO    R4 9967   7.678  12.126   9.861 -0.1465  0.2103  0.1855
  633ERGO    R5 9968   7.892  12.125   9.821 -0.1256 -0.0817  0.2954
  633ERGO    C1 9969   7.761  12.187   9.468  0.1355 -0.2578  0.1646
  633ERGO    C2 9970   7.745  12.232   9.078 -0.2394 -0.1029 -0.3160
  634ERGO   ROH 9971  11.373   5.069  10.204 -0.1578  0.0473  0.0584
  634ERGO    R1 9972  11.458   4.968   9.954 -0.0935 -0.0793  0.1304
  634ERGO    R2 9973  11.295   4.812   9.793 -0.1283  0.0169  0.0720
  634ERGO    R3 9974  11.354   5.001   9.606  0.1355 -0.0723  0.0612
  634ERGO    R4 9975  11.222   4.787   9.456 -0.0831  0.0613  0.0586
  634ERGO    R5 9976  11.416   4.875   9.412  0.0331 -0.1702  0.0908
  634ERGO    C1 9977  11.235   4.949   9.085  0.1907  0.0036  0.0406
  634ERGO    C2 9978  11.340   4.922   8.816  0.3145 -0.1650  0.0992
  635ERGO   ROH 9979   7.150   3.569  10.700 -0.0613  0.1027 -0.0018
  635ERGO    R1 9980   7.112   3.483  10.433  0.1388  0.0118 -0.0031
  635ERGO    R2 9981   6.968   3.629  10.248 -0.0026 -0.2042 -0.0694
  635ERGO    R3 9982   7.195   3.605  10.100  0.0809  0.0794  0.0068
  635ERGO    R4 9983   6.981   3.635   9.902  0.0733 -0.3934 -0.0704
  635ERGO    R5 9984   7.129   3.475   9.910  0.3398 -0.1498  0.0662
  635ERGO    C1 9985   7.201   3.615   9.563  0.1960 -0.2374  0.0006
  635ERGO    C2 9986   7.235   3.621   9.178  0.0383  0.1310  0.1966
  636ERGO   ROH 9987   0.638   9.003   9.876  0.1468  0.1042 -0.0047
  636ERGO    R1 9988   0.642   9.175   9.651 -0.0581  0.0005 -0.0892
  636ERGO    R2 9989   0.871   9.220   9.502 -0.1199  0.1723 -0.1282
  636ERGO    R3 9990   0.712   9.143   9.295 -0.0571 -0.0970 -0.0815
  636ERGO    R4 9991   0.957   9.240   9.168 -0.1532  0.0865 -0.1430
  636ERGO    R5 9992   0.754   9.305   9.124 -0.2264 -0.1384 -0.1686
  636ERGO    C1 9993   0.859   9.180   8.780 -0.1136 -0.2162 -0.1078
  636ERGO    C2 9994   0.941   8.866   8.508  0.0969 -0.1276 -0.1202
  637ERGO   ROH 9995  14.864   2.241  10.014  0.1786  0.0719 -0.0812
  637ERGO    R1 9996  14.660   2.334   9.842  0.0138 -0.0799  0.0265
  637ERGO    R2 9997  14.652   2.594   9.747 -0.2207 -0.0856  0.0104
  637ERGO    R3 9998  14.641   2.470   9.505 -0.2680 -0.1138  0.0279
  637ERGO    R4 9999  14.543   2.741   9.454  0.0898 -0.0070 -0.0684
  637ERGO    R510000  14.442   2.556   9.403 -0.1167  0.1120 -0.0777
  637ERGO    C110001  14.469   2.711   9.056  0.2264  0.0124 -0.0978
  637ERGO    C210002  14.390   2.981   8.909 -0.0232 -0.2763  0.2475
  638ERGO   ROH10003   5.183   1.324  10.388 -0.0988  0.0377 -0.0624
  638ERGO    R110004   5.112   1.471  10.156  0.1020  0.1763 -0.0398
  638ERGO    R210005   5.293   1.625  10.016  0.3619 -0.1705 -0.1051
  638ERGO    R310006   5.209   1.475   9.806 -0.0053 -0.0220 -0.0722
  638ERGO    R410007   5.354   1.697   9.683  0.0352 -0.1010 -0.1530
  638ERGO    R510008   5.151   1.634   9.637 -0.0703  0.0857  0.0544
  638ERGO    C110009   5.311   1.598   9.293 -0.4998  0.0788 -0.1500
  638ERGO    C210010   5.362   1.540   8.990 -0.2907 -0.2411  0.2772
  639ERGO   ROH10011   6.080   5.562  10.726 -0.2729  0.0455  0.2005
  639ERGO    R110012   6.029   5.727  10.502 -0.0263  0.1302  0.2040
  639ERGO    R210013   6.231   5.821  10.337  0.1239 -0.1181  0.2418
  639ERGO    R310014   6.080   5.706  10.142  0.0020  0.0893  0.2102
  639ERGO    R410015   6.302   5.833   9.999  0.3039 -0.3490  0.2689
  639ERGO    R510016   6.090   5.861   9.960  0.3650  0.0222  0.1642
  639ERGO    C110017   6.203   5.732   9.619  0.2944 -0.2889  0.2552
  639ERGO    C210018   6.294   5.660   9.290 -0.0707  0.0470  0.0202
  640ERGO   ROH10019  10.873   1.778  10.556 -0.0627 -0.0315  0.1076
  640ERGO    R110020  10.905   1.834  10.280 -0.0774  0.0946  0.1310
  640ERGO    R210021  11.000   1.646  10.101 -0.0410  0.1923  0.0492
  640ERGO    R310022  10.770   1.706   9.968 -0.0543  0.2024  0.0761
  640ERGO    R410023  10.948   1.596   9.762 -0.1016  0.1382  0.0661
  640ERGO    R510024  10.844   1.787   9.755 -0.0753  0.1536  0.0490
  640ERGO    C110025  10.703   1.623   9.441 -0.1495  0.1162  0.1012
  640ERGO    C210026  10.746   1.615   9.048 -0.0133  0.0656  0.1505
  641ERGO   ROH10027  14.009  11.086  10.276  0.2462 -0.1874 -0.1184
  641ERGO    R110028  13.984  10.982  10.014  0.3104 -0.1356 -0.1452
  641ERGO    R210029  13.796  11.075   9.834  0.0480 -0.4048 -0.0223
  641ERGO    R310030  14.014  11.111   9.674 -0.0830  0.0529 -0.1121
  641ERGO    R410031  13.788  11.089   9.488 -0.1155 -0.4052 -0.0191
  641ERGO    R510032  13.971  10.972   9.484  0.1298 -0.0282 -0.0989
  641ERGO    C110033  13.987  11.131   9.138 -0.3336  0.0242 -0.1016
  641ERGO    C210034  13.793  11.117   8.872 -0.0217 -0.0482  0.4223
  642ERGO   ROH10035  13.719  15.132  10.149  0.0480  0.0090 -0.0885
  642ERGO    R110036  13.630  15.039   9.897  0.1816 -0.0291 -0.1217
  642ERGO    R210037  13.505  15.204   9.714  0.0550 -0.1150 -0.1082
  642ERGO    R310038  13.701  15.114   9.548  0.1703  0.1059 -0.0966
  642ERGO    R410039  13.476  15.173   9.371  0.1629  0.0085 -0.1297
  642ERGO    R510040  13.585  14.985   9.383  0.3078  0.0836 -0.1810
  642ERGO    C110041  13.643  15.071   9.016  0.3340  0.2876 -0.1310
  642ERGO    C210042  13.496  15.040   8.696  0.0483  0.5033  0.0344
  643ERGO   ROH10043   9.969   4.315  10.232  0.0369  0.0289 -0.1621
  643ERGO    R110044  10.100   4.282   9.984 -0.0083 -0.0453 -0.1766
  643ERGO    R210045   9.983   4.151   9.770 -0.1482  0.1091 -0.1987
  643ERGO    R310046  10.042   4.382   9.639  0.0651  0.0839 -0.1520
  643ERGO    R410047  10.016   4.181   9.427 -0.2487  0.1750 -0.2028
  643ERGO    R510048  10.185   4.314   9.460 -0.0820 -0.0278 -0.2284
  643ERGO    C110049  10.089   4.415   9.104 -0.1071  0.1895 -0.1614
  643ERGO    C210050  10.066   4.479   8.746  0.2718 -0.1215 -0.2364
  644ERGO   ROH10051   7.477  11.302  10.426 -0.1358  0.1349 -0.1092
  644ERGO    R110052   7.429  11.164  10.183 -0.0907  0.0334 -0.0606
  644ERGO    R210053   7.263  11.263   9.986 -0.1205 -0.0888 -0.0974
  644ERGO    R310054   7.482  11.226   9.829 -0.1079 -0.0763 -0.0827
  644ERGO    R410055   7.262  11.276   9.640 -0.0621  0.1010 -0.0915
  644ERGO    R510056   7.399  11.106   9.639 -0.1190  0.0552 -0.1625
  644ERGO    C110057   7.467  11.249   9.292 -0.0163  0.2234 -0.0743
  644ERGO    C210058   7.379  11.304   8.999  0.0066  0.0592  0.1446
  645ERGO   ROH10059   1.920   9.504  10.376 -0.0333 -0.2301 -0.0217
  645ERGO    R110060   1.949   9.360  10.134  0.0251 -0.0643 -0.1160
  645ERGO    R210061   1.760   9.367   9.933 -0.0637 -0.1475 -0.0386
  645ERGO    R310062   1.972   9.439   9.780 -0.1961  0.1640 -0.0821
  645ERGO    R410063   1.775   9.338   9.589  0.0164 -0.4160 -0.0143
  645ERGO    R510064   1.982   9.273   9.608  0.1588  0.0263  0.0618
  645ERGO    C110065   1.984   9.389   9.245 -0.0613 -0.2800 -0.0410
  645ERGO    C210066   2.057   9.496   8.835  0.0497 -0.0871  0.1160
  646ERGO   ROH10067   2.567  14.675   9.925  0.0809  0.0943  0.0715
  646ERGO    R110068   2.457  14.672   9.664  0.0841 -0.0065  0.0703
  646ERGO    R210069   2.608  14.722   9.438  0.0796 -0.0522  0.0535
  646ERGO    R310070   2.508  14.483   9.358  0.1207 -0.0955  0.1318
  646ERGO    R410071   2.527  14.642   9.112 -0.0013 -0.1443  0.0961
  646ERGO    R510072   2.350  14.538   9.187  0.0528 -0.1773  0.1705
  646ERGO    C110073   2.386  14.370   8.846 -0.0097 -0.2386  0.1945
  646ERGO    C210074   2.420  14.382   8.475 -0.0569 -0.1096 -0.0052
  647ERGO   ROH10075   9.675   2.627  10.352 -0.1630 -0.0311 -0.0408
  647ERGO    R110076   9.731   2.506  10.102 -0.2793 -0.1658 -0.0041
  647ERGO    R210077   9.531   2.426   9.927 -0.3629  0.0590 -0.0239
  647ERGO    R310078   9.667   2.582   9.752 -0.1175 -0.1568 -0.0303
  647ERGO    R410079   9.558   2.365   9.588 -0.3948 -0.0218 -0.0116
  647ERGO    R510080   9.766   2.428   9.598 -0.3111 -0.3132  0.0057
  647ERGO    C110081   9.702   2.477   9.226 -0.1829 -0.2714 -0.0104
  647ERGO    C210082   9.631   2.511   8.913 -0.1785  0.0281  0.2029
  648ERGO   ROH10083  15.215   4.093  10.292  0.0434 -0.1240 -0.0307
  648ERGO    R110084  15.231   3.966  10.040  0.0466 -0.0364 -0.0759
  648ERGO    R210085  15.069   4.036   9.827 -0.0186 -0.0267 -0.0288
  648ERGO    R310086  15.305   4.067   9.698 -0.0503  0.1053 -0.0549
  648ERGO    R410087  15.105   4.053   9.484 -0.0661  0.0448 -0.0297
  648ERGO    R510088  15.285   3.931   9.502 -0.0082  0.1284 -0.0724
  648ERGO    C110089  15.349   4.093   9.163 -0.1236  0.2103 -0.0546
  648ERGO    C210090  15.474   4.094   8.879  0.0659 -0.2010  0.4524
  649ERGO   ROH10091  15.021  13.665  10.216 -0.0590 -0.1429 -0.0109
  649ERGO    R110092  15.057  13.600   9.943 -0.0653 -0.1535 -0.0070
  649ERGO    R210093  14.938  13.380   9.825 -0.2563 -0.0169 -0.0461
  649ERGO    R310094  14.846  13.566   9.649 -0.0343  0.0843 -0.0635
  649ERGO    R410095  14.890  13.325   9.487  0.0472  0.1084 -0.1150
  649ERGO    R510096  14.970  13.524   9.448  0.1538  0.1113  0.0332
  649ERGO    C110097  14.775  13.467   9.126  0.4322  0.2764 -0.1715
  649ERGO    C210098  14.790  13.385   8.894 -0.0391 -0.0025 -0.2870
  650ERGO   ROH10099  10.139  14.207  10.204 -0.0297 -0.2537  0.0363
  650ERGO    R110100  10.289  14.181   9.965 -0.0564 -0.2220  0.0164
  650ERGO    R210101  10.222  14.003   9.766 -0.1167 -0.1464 -0.0277
  650ERGO    R310102  10.229  14.225   9.609 -0.0740 -0.1045  0.0325
  650ERGO    R410103  10.207  14.000   9.421  0.1686 -0.0741 -0.0430
  650ERGO    R510104  10.359  14.157   9.418  0.1122 -0.0112  0.1205
  650ERGO    C110105  10.206  14.206   9.072  0.3747  0.0075  0.0045
  650ERGO    C210106  10.297  14.164   8.751 -0.0847 -0.2477 -0.0629
  651ERGO   ROH10107  10.185   3.916  10.265  0.1313  0.3567 -0.0040
  651ERGO    R110108  10.336   3.849  10.035  0.0917  0.2742 -0.0068
  651ERGO    R210109  10.220   3.752   9.803  0.0492  0.2090  0.0403
  651ERGO    R310110  10.352   3.960   9.689  0.0456  0.1649 -0.0440
  651ERGO    R410111  10.289   3.780   9.466 -0.0106  0.1080  0.0194
  651ERGO    R510112  10.486   3.858   9.518  0.0050  0.1058 -0.0399
  651ERGO    C110113  10.454   3.991   9.162 -0.0488  0.0078 -0.0720
  651ERGO    C210114  10.378   4.027   8.856  0.0703 -0.3178 -0.0925
  652ERGO   ROH10115   9.603  11.419  10.442  0.1418  0.1120 -0.0649
  652ERGO    R110116   9.540  11.363  10.172  0.1435  0.0537 -0.0524
  652ERGO    R210117   9.365  11.517  10.025  0.0029 -0.0871 -0.0289
  652ERGO    R310118   9.574  11.531   9.851 -0.0364  0.0676 -0.0661
  652ERGO    R410119   9.336  11.511   9.680 -0.0565 -0.1549 -0.0235
  652ERGO    R510120   9.513  11.383   9.673  0.0538 -0.0096 -0.0371
  652ERGO    C110121   9.515  11.521   9.317 -0.1279 -0.0492 -0.0553
  652ERGO    C210122   9.433  11.564   9.021  0.1447 -0.0242 -0.1115
  653ERGO   ROH10123   0.149  14.098  10.123  0.1331  0.0584  0.1378
  653ERGO    R110124   0.177  13.969   9.873 -0.0196  0.1196  0.0884
  653ERGO    R210125  -0.036  13.931   9.700 -0.0986  0.2766  0.1534
  653ERGO    R310126   0.128  14.056   9.523 -0.1006  0.2479  0.1303
  653ERGO    R410127  -0.056  13.900   9.357 -0.0189  0.1091  0.1621
  653ERGO    R510128   0.161  13.895   9.349 -0.0128  0.1749  0.2111
  653ERGO    C110129   0.085  13.999   8.990  0.0257 -0.0154  0.1455
  653ERGO    C210130  -0.009  14.083   8.634  0.0300 -0.0047 -0.1064
  654PSPI    C110131  16.017   4.476   5.134 -0.0147 -0.1239 -0.2513
  654PSPI    C210132  16.284   4.314   5.384 -0.0541  0.0311 -0.1064
  654PSPI    C310133  16.322   4.261   4.989  0.0632 -0.1347 -0.0740
  654PSPI   PO410134  15.859   4.685   5.346 -0.0970 -0.0107  0.1684
  654PSPI   GL110135  15.954   4.704   5.735  0.4324  0.1383 -0.0710
  654PSPI   GL210136  15.879   4.948   5.984 -0.0108 -0.3569 -0.1432
  654PSPI   C1A10137  15.520   4.614   6.005 -0.0431 -0.1395  0.0467
  654PSPI   C2A10138  15.497   4.671   6.348 -0.0256 -0.1638  0.2009
  654PSPI   C3A10139  15.373   4.914   6.761  0.1799 -0.0758 -0.1086
  654PSPI   C4A10140  15.133   5.093   7.058 -0.1532 -0.0222 -0.0103
  654PSPI   C1B10141  15.903   5.088   6.409 -0.2741 -0.2870 -0.1470
  654PSPI   C2B10142  15.838   5.165   6.909 -0.1259  0.3316 -0.0378
  654PSPI   C3B10143  15.656   5.292   7.332  0.2322  0.1434  0.1115
  654PSPI   C4B10144  15.674   5.522   7.687 -0.2304 -0.1155 -0.3099
  655PSPI    C110145  18.003   0.623   6.014  0.0692 -0.0083  0.0661
  655PSPI    C210146  18.157   0.879   5.747  0.2169 -0.0611  0.0998
  655PSPI    C310147  18.070   0.503   5.638 -0.0788  0.0251  0.0283
  655PSPI   PO410148  18.170   0.607   6.235 -0.2193 -0.1313 -0.0807
  655PSPI   GL110149  18.099   0.838   6.669  0.0204 -0.0391 -0.1396
  655PSPI   GL210150  18.399   0.847   6.901 -0.0009  0.0597  0.1479
  655PSPI   C1A10151  18.020   1.028   7.112  0.1664  0.2394  0.1822
  655PSPI   C2A10152  17.938   1.224   7.523 -0.1553 -0.1617  0.0435
  655PSPI   C3A10153  17.825   1.311   7.946 -0.2876  0.0708  0.3468
  655PSPI   C4A10154  17.742   1.115   8.338  0.0330 -0.1650  0.2715
  655PSPI   C1B10155  18.715   1.128   7.051 -0.1160 -0.0022  0.0032
  655PSPI   C2B10156  18.817   1.173   7.494  0.0204 -0.0823 -0.1922
  655PSPI   C3B10157  18.800   1.070   7.918 -0.5048 -0.3555 -0.1646
  655PSPI   C4B10158  18.779   1.353   8.268 -0.0419  0.2322 -0.0093
  656PSPI    C110159  13.459   4.476   5.821  0.2071 -0.1078 -0.1575
  656PSPI    C210160  13.744   4.566   6.087 -0.1418  0.2164  0.1189
  656PSPI    C310161  13.689   4.799   5.767  0.0318  0.0389 -0.0426
  656PSPI   PO410162  13.128   4.353   5.994 -0.2863 -0.1263  0.0412
  656PSPI   GL110163  12.834   4.330   6.366 -0.2586  0.1240 -0.1478
  656PSPI   GL210164  12.878   3.909   6.500 -0.0449  0.0201  0.2262
  656PSPI   C1A10165  12.649   4.475   6.733 -0.0122  0.2229 -0.0870
  656PSPI   C2A10166  12.751   4.630   7.055  0.1738  0.0034  0.0630
  656PSPI   C3A10167  12.785   4.700   7.531  0.0847 -0.1309  0.1068
  656PSPI   C4A10168  13.160   4.642   7.780 -0.3378  0.0049  0.0741
  656PSPI   C1B10169  12.925   3.947   6.953  0.1047  0.4134  0.1314
  656PSPI   C2B10170  13.020   3.965   7.463 -0.0088 -0.1256 -0.0484
  656PSPI   C3B10171  12.842   4.174   7.855 -0.1408  0.1161  0.1334
  656PSPI   C4B10172  12.541   4.456   8.051  0.0961  0.1692 -0.0311
  657PSPI    C110173  16.220   8.194   6.002 -0.0231 -0.0436 -0.1242
  657PSPI    C210174  15.989   8.381   5.734 -0.2634  0.0231  0.1247
  657PSPI    C310175  15.983   7.982   5.759 -0.0723  0.0027 -0.1168
  657PSPI   PO410176  16.126   8.373   6.290  0.0808 -0.0406  0.0779
  657PSPI   GL110177  16.297   8.256   6.609  0.1280  0.0508 -0.2825
  657PSPI   GL210178  16.573   8.199   6.608 -0.0448 -0.0467  0.1906
  657PSPI   C1A10179  16.332   8.149   7.068 -0.3745  0.2691  0.1903
  657PSPI   C2A10180  16.549   8.244   7.444 -0.0749  0.1715 -0.1422
  657PSPI   C3A10181  16.746   8.450   7.742  0.0338  0.1641  0.0733
  657PSPI   C4A10182  16.682   8.422   8.152 -0.1208 -0.5840  0.1189
  657PSPI   C1B10183  16.880   8.333   6.972 -0.1197 -0.1527  0.2601
  657PSPI   C2B10184  17.066   8.416   7.348 -0.0424  0.0351  0.0257
  657PSPI   C3B10185  17.136   8.654   7.649 -0.1422 -0.1819 -0.0829
  657PSPI   C4B10186  17.203   8.897   8.006 -0.0500 -0.1997 -0.1297
  658PSPI    C110187   4.992  11.612   5.959  0.2565  0.0418  0.1383
  658PSPI    C210188   4.877  11.643   5.578  0.3700 -0.3358  0.0690
  658PSPI    C310189   5.175  11.872   5.715  0.2433 -0.1065 -0.0314
  658PSPI   PO410190   4.771  11.579   6.090 -0.1475  0.2112 -0.0134
  658PSPI   GL110191   4.589  11.479   6.510  0.0009 -0.1815  0.2520
  658PSPI   GL210192   4.864  11.286   6.486 -0.0031 -0.1928  0.2516
  658PSPI   C1A10193   4.502  11.373   6.974 -0.0111 -0.0153  0.1277
  658PSPI   C2A10194   4.355  11.264   7.300  0.2096 -0.2387  0.1612
  658PSPI   C3A10195   4.292  11.104   7.561  0.0803  0.1456  0.2495
  658PSPI   C4A10196   4.308  11.411   7.966  0.2674 -0.0284  0.3724
  658PSPI   C1B10197   5.099  11.240   6.892  0.2795 -0.2648  0.1446
  658PSPI   C2B10198   4.912  11.377   7.248 -0.1349 -0.0053 -0.3400
  658PSPI   C3B10199   4.742  11.336   7.595  0.1031 -0.2498 -0.2036
  658PSPI   C4B10200   4.667  11.091   7.968 -0.0156  0.1692  0.0432
  659PSPI    C110201  10.356  17.911   5.629 -0.0269 -0.1505  0.0862
  659PSPI    C210202  10.337  17.760   5.259 -0.0579 -0.0259  0.0363
  659PSPI    C310203  10.673  17.936   5.387 -0.1853  0.3132 -0.0849
  659PSPI   PO410204  10.148  18.005   5.719  0.0170  0.0485  0.0222
  659PSPI   GL110205  10.050  18.123   6.047 -0.2868 -0.2159  0.0591
  659PSPI   GL210206   9.863  18.273   6.161  0.2889 -0.1198  0.0451
  659PSPI   C1A10207  10.236  18.052   6.488  0.1114 -0.1522 -0.1210
  659PSPI   C2A10208  10.198  18.093   6.858 -0.0451  0.3358 -0.4220
  659PSPI   C3A10209  10.282  18.048   7.264  0.1138  0.2818  0.0241
  659PSPI   C4A10210  10.296  17.906   7.748 -0.0491 -0.0574  0.0442
  659PSPI   C1B10211   9.765  18.215   6.677 -0.0628  0.2929 -0.0769
  659PSPI   C2B10212   9.712  17.962   7.047  0.3228 -0.0414 -0.0524
  659PSPI   C3B10213   9.817  17.942   7.498 -0.1624 -0.1164  0.1630
  659PSPI   C4B10214   9.798  17.993   7.926 -0.0570  0.0037 -0.1016
  660PSPI    C110215   1.436  12.236   6.120  0.0975 -0.0094 -0.0119
  660PSPI    C210216   1.313  12.151   5.749 -0.0565 -0.0955  0.0581
  660PSPI    C310217   1.702  12.204   5.823 -0.0700  0.4599 -0.2211
  660PSPI   PO410218   1.201  12.337   6.235 -0.2186  0.1650 -0.3608
  660PSPI   GL110219   1.071  12.187   6.615  0.0157  0.1849  0.1578
  660PSPI   GL210220   0.805  11.997   6.514  0.2720 -0.0358  0.3144
  660PSPI   C1A10221   1.319  11.993   6.837 -0.0996  0.1342 -0.0106
  660PSPI   C2A10222   1.529  12.032   7.164  0.0071  0.0711  0.1889
  660PSPI   C3A10223   1.795  11.872   7.477 -0.1259 -0.4007  0.3052
  660PSPI   C4A10224   1.620  12.043   7.846  0.5312  0.0851  0.2921
  660PSPI   C1B10225   0.790  12.157   6.995 -0.0814 -0.3711 -0.0101
  660PSPI   C2B10226   0.699  12.147   7.476  0.0429  0.1622  0.1350
  660PSPI   C3B10227   1.004  12.105   7.860 -0.1502  0.0040 -0.0883
  660PSPI   C4B10228   1.258  12.179   8.296 -0.2350  0.2498  0.1631
  661PSPI    C110229   3.309   8.486   5.984 -0.1150 -0.0044  0.1159
  661PSPI    C210230   3.037   8.574   5.705  0.0472 -0.2230 -0.1149
  661PSPI    C310231   3.423   8.536   5.604  0.1607  0.0439  0.2022
  661PSPI   PO410232   3.311   8.752   6.208 -0.1711 -0.1911  0.1031
  661PSPI   GL110233   3.626   8.897   6.359 -0.1058  0.0914 -0.2358
  661PSPI   GL210234   3.755   9.114   6.530  0.1388 -0.3066 -0.2612
  661PSPI   C1A10235   3.425   8.818   6.825 -0.0461  0.0183  0.0608
  661PSPI   C2A10236   3.361   8.929   7.310 -0.0504 -0.0537 -0.0910
  661PSPI   C3A10237   3.378   9.059   7.729  0.5586 -0.1507  0.0629
  661PSPI   C4A10238   3.232   9.322   8.005 -0.2565  0.0817  0.1477
  661PSPI   C1B10239   3.583   9.237   6.972  0.1131  0.1404  0.2526
  661PSPI   C2B10240   3.656   9.311   7.302  0.2225  0.0034  0.1139
  661PSPI   C3B10241   3.555   9.614   7.723  0.0364 -0.0539 -0.3690
  661PSPI   C4B10242   3.663  10.003   7.757 -0.0541 -0.1544 -0.0822
  662PSPI    C110243   1.878   2.255   5.925 -0.2130  0.0703 -0.0098
  662PSPI    C210244   2.130   1.957   6.012  0.1892  0.4038  0.0012
  662PSPI    C310245   1.828   1.896   5.757  0.1013 -0.0807  0.2098
  662PSPI   PO410246   1.799   2.317   6.181  0.0906  0.1620 -0.0249
  662PSPI   GL110247   1.927   2.170   6.636 -0.2554  0.2817  0.1446
  662PSPI   GL210248   1.927   2.529   6.634 -0.1422  0.0411 -0.0179
  662PSPI   C1A10249   1.888   2.181   6.937 -0.1989  0.0935 -0.3196
  662PSPI   C2A10250   1.859   2.053   7.272  0.0528  0.3022  0.1924
  662PSPI   C3A10251   1.905   1.843   7.667  0.0296  0.1002 -0.0733
  662PSPI   C4A10252   1.717   1.863   8.098 -0.0511  0.1192  0.1519
  662PSPI   C1B10253   2.082   2.587   7.091 -0.0284 -0.0395  0.2077
  662PSPI   C2B10254   2.111   2.400   7.534 -0.1668  0.2007  0.0534
  662PSPI   C3B10255   2.132   2.307   7.991  0.2954 -0.0473 -0.0994
  662PSPI   C4B10256   2.308   2.479   8.344  0.1051  0.2042 -0.1470
  663PSPI    C110257   9.032   9.696   5.875  0.2155  0.2968 -0.0982
  663PSPI    C210258   9.362   9.473   5.912  0.0778  0.1358  0.1886
  663PSPI    C310259   9.170   9.489   5.562 -0.0019 -0.3307  0.2052
  663PSPI   PO410260   9.032   9.977   5.983 -0.0460 -0.1099  0.2332
  663PSPI   GL110261   9.042  10.105   6.475 -0.1183  0.2023  0.2429
  663PSPI   GL210262   8.719  10.059   6.448 -0.2892  0.3317 -0.1601
  663PSPI   C1A10263   9.041  10.331   6.852 -0.0116 -0.1069  0.1308
  663PSPI   C2A10264   9.207  10.305   7.179  0.2062 -0.3034  0.2184
  663PSPI   C3A10265   9.064  10.052   7.538  0.0114  0.2008  0.1596
  663PSPI   C4A10266   8.990   9.822   7.880  0.2461  0.2692  0.1186
  663PSPI   C1B10267   8.832   9.704   6.728  0.0367  0.1218  0.1919
  663PSPI   C2B10268   8.984   9.827   7.135 -0.1883  0.0967  0.3260
  663PSPI   C3B10269   9.304   9.623   7.484 -0.1883  0.2512  0.0743
  663PSPI   C4B10270   9.411   9.444   7.966 -0.1566 -0.2536  0.0492
  664PSPI    C110271  11.043  14.557   5.636 -0.3649 -0.2232 -0.0989
  664PSPI    C210272  11.351  14.413   5.424 -0.2248 -0.2146  0.0963
  664PSPI    C310273  11.030  14.560   5.236 -0.0353 -0.0603 -0.1120
  664PSPI   PO410274  11.168  14.680   5.827  0.2630  0.2256  0.0673
  664PSPI   GL110275  11.345  14.575   6.198  0.2487  0.2252  0.2087
  664PSPI   GL210276  11.049  14.659   6.306 -0.0227  0.3394  0.2392
  664PSPI   C1A10277  11.446  14.633   6.623 -0.1215 -0.0705  0.0684
  664PSPI   C2A10278  11.318  14.812   7.112 -0.1525  0.0239  0.1055
  664PSPI   C3A10279  11.217  14.796   7.539  0.1052 -0.1374  0.1666
  664PSPI   C4A10280  11.070  14.690   7.968 -0.0033  0.2668  0.0076
  664PSPI   C1B10281  10.988  14.863   6.758  0.2645  0.1519  0.1424
  664PSPI   C2B10282  10.862  15.006   7.230  0.1400 -0.0351 -0.2064
  664PSPI   C3B10283  10.790  15.058   7.758 -0.0543 -0.1733 -0.1026
  664PSPI   C4B10284  10.445  14.927   8.068 -0.1748  0.1361  0.0122
  665PSPI    C110285  14.734  15.314   5.652 -0.1770 -0.1683  0.1372
  665PSPI    C210286  15.072  15.130   5.760  0.0043  0.0212 -0.0986
  665PSPI    C310287  15.082  15.425   5.489 -0.3638 -0.0408 -0.1844
  665PSPI   PO410288  14.645  15.347   5.844  0.0764 -0.1240 -0.1030
  665PSPI   GL110289  14.731  15.268   6.183  0.2028 -0.2939  0.1578
  665PSPI   GL210290  14.598  15.233   6.395 -0.1702 -0.0347  0.0470
  665PSPI   C1A10291  15.140  15.260   6.436  0.1677 -0.3187  0.1413
  665PSPI   C2A10292  15.061  15.194   6.730 -0.1091  0.2252  0.1177
  665PSPI   C3A10293  15.276  15.318   7.075  0.0449 -0.0274 -0.1195
  665PSPI   C4A10294  15.607  15.519   7.440  0.0197 -0.0297 -0.2310
  665PSPI   C1B10295  14.302  15.206   6.736  0.0930 -0.0213 -0.2916
  665PSPI   C2B10296  14.019  15.062   7.059  0.3054 -0.1846 -0.0019
  665PSPI   C3B10297  13.898  15.030   7.439 -0.0953  0.0795 -0.2882
  665PSPI   C4B10298  13.710  15.198   7.756 -0.2079  0.2668 -0.2373
  666PSPI    C110299  14.229  14.273   6.054 -0.0174 -0.1550 -0.1284
  666PSPI    C210300  14.303  14.051   5.730  0.3983 -0.4327  0.1451
  666PSPI    C310301  14.599  14.255   5.904  0.1085 -0.0082  0.1570
  666PSPI   PO410302  13.996  14.485   6.000 -0.2626  0.0855 -0.1379
  666PSPI   GL110303  13.638  14.374   6.264  0.1574 -0.0469 -0.3756
  666PSPI   GL210304  13.748  14.045   6.179 -0.2105 -0.3295  0.1980
  666PSPI   C1A10305  13.554  14.212   6.646 -0.0057 -0.4238 -0.1335
  666PSPI   C2A10306  13.558  14.116   7.063 -0.0592 -0.0375 -0.1151
  666PSPI   C3A10307  13.825  14.107   7.429  0.2028 -0.0201  0.0454
  666PSPI   C4A10308  13.909  14.432   7.731 -0.2005  0.2508 -0.1226
  666PSPI   C1B10309  13.769  13.832   6.635 -0.1727 -0.0470 -0.3776
  666PSPI   C2B10310  13.794  13.687   6.983 -0.2431 -0.0234 -0.4554
  666PSPI   C3B10311  13.708  13.607   7.430 -0.2130 -0.0318 -0.0068
  666PSPI   C4B10312  13.502  13.727   7.699 -0.1738  0.1719  0.0385
  667PSPI    C110313   2.212   5.380   5.963  0.0987 -0.0343  0.1407
  667PSPI    C210314   2.046   5.070   5.771  0.0792  0.0431  0.0313
  667PSPI    C310315   1.920   5.442   5.696 -0.0386  0.0624  0.3112
  667PSPI   PO410316   2.214   5.275   6.287 -0.0664  0.0669 -0.0746
  667PSPI   GL110317   2.229   5.104   6.693 -0.0167 -0.2600  0.1555
  667PSPI   GL210318   2.090   4.880   6.905  0.0831 -0.0606 -0.0051
  667PSPI   C1A10319   2.226   5.440   6.994 -0.1354 -0.0569 -0.2859
  667PSPI   C2A10320   2.134   5.415   7.404 -0.0684  0.3145 -0.3587
  667PSPI   C3A10321   2.043   5.412   7.871  0.0413  0.3078 -0.3258
  667PSPI   C4A10322   2.263   5.273   8.167 -0.1967  0.0213 -0.3271
  667PSPI   C1B10323   1.989   4.746   7.269  0.5306  0.1080  0.0719
  667PSPI   C2B10324   2.030   4.839   7.699  0.1754  0.0481  0.2903
  667PSPI   C3B10325   1.895   4.967   8.115  0.1011 -0.2050 -0.5057
  667PSPI   C4B10326   1.629   4.894   8.522 -0.1721  0.0011  0.1088
  668PSPI    C110327   9.716  11.493   5.906 -0.0513 -0.1280  0.0326
  668PSPI    C210328   9.457  11.584   5.616  0.1447  0.1362 -0.0633
  668PSPI    C310329   9.696  11.266   5.577 -0.1238 -0.0776  0.0021
  668PSPI   PO410330   9.632  11.460   6.235  0.0114  0.4241  0.2949
  668PSPI   GL110331   9.616  11.084   6.517  0.3437 -0.1325  0.0139
  668PSPI   GL210332   9.950  11.061   6.463  0.1152 -0.0307  0.2996
  668PSPI   C1A10333   9.579  11.047   6.996 -0.1969  0.1072 -0.0122
  668PSPI   C2A10334   9.677  11.118   7.417 -0.1190 -0.1323  0.2880
  668PSPI   C3A10335   9.808  11.271   7.832  0.3084  0.2110  0.1957
  668PSPI   C4A10336   9.990  11.260   8.165 -0.0371 -0.2020 -0.1313
  668PSPI   C1B10337  10.042  11.006   6.853  0.4282 -0.0136  0.3345
  668PSPI   C2B10338  10.135  10.988   7.377 -0.2394  0.0973  0.0552
  668PSPI   C3B10339  10.448  11.191   7.612  0.2519 -0.0780 -0.0708
  668PSPI   C4B10340  10.563  11.535   7.910 -0.1509 -0.0651  0.2297
  669PSPI    C110341   3.740   3.634   6.105  0.2292  0.0258  0.1950
  669PSPI    C210342   4.079   3.589   5.898  0.0943 -0.0797 -0.0061
  669PSPI    C310343   3.728   3.608   5.706 -0.0147  0.0256  0.2006
  669PSPI   PO410344   3.816   3.542   6.319 -0.1185 -0.1115  0.2270
  669PSPI   GL110345   4.026   3.347   6.645  0.0070  0.3054  0.2520
  669PSPI   GL210346   3.803   3.487   6.826 -0.0675 -0.5027 -0.4779
  669PSPI   C1A10347   4.517   3.225   6.665 -0.1307 -0.2156 -0.0511
  669PSPI   C2A10348   4.574   2.961   7.000 -0.0994  0.0764  0.0378
  669PSPI   C3A10349   4.717   2.906   7.383  0.0804  0.2903  0.1942
  669PSPI   C4A10350   4.798   2.894   7.870 -0.1237 -0.4304 -0.3014
  669PSPI   C1B10351   4.010   3.159   7.102  0.2056 -0.3127 -0.3697
  669PSPI   C2B10352   4.218   3.194   7.480  0.3090  0.0459  0.0983
  669PSPI   C3B10353   4.310   3.092   7.883  0.1805  0.2184  0.3295
  669PSPI   C4B10354   4.368   3.113   8.240  0.1095  0.1023 -0.1638
  670PSPI    C110355   6.203   3.594   6.188 -0.2573  0.1585 -0.0787
  670PSPI    C210356   6.386   3.255   6.079 -0.2431  0.1108  0.0901
  670PSPI    C310357   6.248   3.507   5.800 -0.1608  0.0169 -0.0365
  670PSPI   PO410358   6.354   3.702   6.322  0.0246  0.3883 -0.0039
  670PSPI   GL110359   6.420   4.026   6.649  0.1585  0.0955  0.2912
  670PSPI   GL210360   6.141   3.890   6.798 -0.0546  0.1781  0.1851
  670PSPI   C1A10361   6.525   4.208   6.924 -0.0909  0.0275  0.1858
  670PSPI   C2A10362   6.810   4.294   7.235  0.1026  0.0060 -0.1187
  670PSPI   C3A10363   6.675   4.318   7.583  0.1734  0.1316 -0.1578
  670PSPI   C4A10364   6.631   4.037   7.906  0.3882 -0.0171 -0.3305
  670PSPI   C1B10365   6.321   3.713   7.217 -0.0070 -0.0675 -0.1454
  670PSPI   C2B10366   6.334   3.718   7.600  0.1838  0.0577  0.0516
  670PSPI   C3B10367   6.558   3.517   7.984  0.1211  0.3349 -0.2245
  670PSPI   C4B10368   6.425   3.253   8.213  0.0123  0.0954 -0.0948
  671PSPI    C110369  14.807  13.668   5.464 -0.1051  0.2268 -0.1107
  671PSPI    C210370  14.542  13.724   5.170 -0.1878 -0.1151 -0.1065
  671PSPI    C310371  14.799  13.418   5.152  0.0651  0.0872 -0.0057
  671PSPI   PO410372  14.726  13.771   5.667  0.1256 -0.1161  0.1281
  671PSPI   GL110373  14.688  13.847   6.156  0.0438 -0.2687 -0.4669
  671PSPI   GL210374  14.956  13.969   6.057  0.0968 -0.0440  0.0653
  671PSPI   C1A10375  14.667  13.815   6.573  0.2623  0.0233 -0.1924
  671PSPI   C2A10376  14.694  13.555   6.841 -0.0294  0.2156  0.1744
  671PSPI   C3A10377  14.654  13.537   7.230  0.0351  0.0077 -0.1109
  671PSPI   C4A10378  14.683  13.784   7.608 -0.2832  0.0289  0.0872
  671PSPI   C1B10379  14.749  14.280   6.375 -0.3042 -0.1581 -0.1325
  671PSPI   C2B10380  15.017  14.459   6.705 -0.4361  0.0014 -0.0661
  671PSPI   C3B10381  15.027  14.507   7.181 -0.0366  0.1985 -0.2295
  671PSPI   C4B10382  14.952  14.331   7.372  0.0547 -0.0124 -0.0074
  672PSPI    C110383   8.454  10.445   6.294  0.0084 -0.0037 -0.0244
  672PSPI    C210384   8.616  10.320   5.950 -0.0452  0.0352 -0.0639
  672PSPI    C310385   8.843  10.503   6.224  0.0105 -0.0509 -0.0522
  672PSPI   PO410386   8.272  10.340   6.445  0.3118  0.1272 -0.0325
  672PSPI   GL110387   8.091  10.414   6.748 -0.3095 -0.1283 -0.2298
  672PSPI   GL210388   8.080  10.081   6.857  0.0204 -0.2629 -0.1789
  672PSPI   C1A10389   8.244  10.601   7.098  0.2242 -0.0351 -0.2450
  672PSPI   C2A10390   8.343  10.764   7.510  0.2369  0.0918 -0.0123
  672PSPI   C3A10391   8.309  10.803   7.917  0.1579 -0.0340 -0.2647
  672PSPI   C4A10392   8.491  10.780   8.353 -0.0197 -0.0543 -0.0004
  672PSPI   C1B10393   7.962  10.256   7.331 -0.0386 -0.0679  0.0495
  672PSPI   C2B10394   7.911  10.541   7.721  0.0054 -0.2631  0.2177
  672PSPI   C3B10395   7.702  10.869   7.968  0.2031  0.0416  0.1570
  672PSPI   C4B10396   7.652  11.185   8.077  0.1728  0.0505  0.2887
  673PSPI    C110397  12.850  10.560   5.667 -0.1324  0.1728 -0.1227
  673PSPI    C210398  12.595  10.804   5.855  0.0721  0.3752 -0.1035
  673PSPI    C310399  12.551  10.732   5.464 -0.0220  0.3987 -0.0976
  673PSPI   PO410400  13.100  10.705   5.811 -0.2801 -0.1840 -0.2065
  673PSPI   GL110401  13.413  10.661   6.135 -0.0326  0.0527  0.2194
  673PSPI   GL210402  13.579  10.832   6.283 -0.1748 -0.1500 -0.2691
  673PSPI   C1A10403  13.101  10.384   6.420  0.0243 -0.0250  0.2016
  673PSPI   C2A10404  12.723  10.301   6.695 -0.0921 -0.0223 -0.1815
  673PSPI   C3A10405  12.318  10.292   6.874  0.0517 -0.1034 -0.1449
  673PSPI   C4A10406  11.941  10.435   7.076  0.1617  0.2630 -0.1315
  673PSPI   C1B10407  13.339  10.820   6.574 -0.0519 -0.0205  0.1754
  673PSPI   C2B10408  12.942  10.753   6.866  0.0325 -0.1424  0.2389
  673PSPI   C3B10409  12.778  10.527   7.126 -0.0524 -0.0393 -0.2328
  673PSPI   C4B10410  12.417  10.406   7.359 -0.1004 -0.0808  0.1627
  674POPI    C110411   9.732   0.216   5.666 -0.1338  0.2537  0.1441
  674POPI    C210412   9.597   0.202   5.290  0.1572  0.2735  0.0363
  674POPI    C310413   9.705   0.552   5.450  0.1135  0.2535  0.1097
  674POPI   PO410414   9.530   0.142   5.818 -0.0220  0.0859  0.0359
  674POPI   GL110415   9.410   0.056   6.242  0.0658  0.0325 -0.0608
  674POPI   GL210416   9.301   0.343   6.246 -0.0910 -0.1097 -0.2327
  674POPI   C1A10417   9.491  -0.208   6.522 -0.4776  0.0042 -0.1073
  674POPI   D2A10418   9.500  -0.466   6.962 -0.0469 -0.0985  0.0385
  674POPI   C3A10419   9.486  -0.405   7.338  0.0618  0.0787 -0.1520
  674POPI   C4A10420   9.496  -0.415   7.847 -0.2802  0.0208  0.0548
  674POPI   C1B10421   9.381   0.509   6.619 -0.1537  0.0582 -0.1757
  674POPI   C2B10422   9.534   0.476   7.000 -0.1647 -0.0186  0.0000
  674POPI   C3B10423   9.525   0.386   7.405 -0.0542  0.2429  0.1781
  674POPI   C4B10424   9.391   0.453   7.880  0.1090 -0.0160  0.0229
  675POPI    C110425  12.480  14.975   5.843  0.0914  0.0129  0.1131
  675POPI    C210426  12.400  15.002   5.452  0.0045 -0.3538  0.1020
  675POPI    C310427  12.778  15.026   5.581  0.0145 -0.0130  0.0203
  675POPI   PO410428  12.315  15.127   5.974  0.1504 -0.2342  0.1169
  675POPI   GL110429  12.192  15.147   6.298 -0.0478 -0.3166  0.3524
  675POPI   GL210430  12.552  15.196   6.410  0.2132  0.3792 -0.3160
  675POPI   C1A10431  12.088  15.401   6.632 -0.0380  0.2385  0.0341
  675POPI   D2A10432  11.980  15.728   6.805 -0.3260  0.0795  0.0502
  675POPI   C3A10433  12.235  15.623   7.105  0.1518  0.0044  0.1656
  675POPI   C4A10434  12.575  15.743   7.371  0.2918 -0.1552  0.1680
  675POPI   C1B10435  12.860  15.171   6.651  0.0185 -0.1734 -0.0430
  675POPI   C2B10436  12.942  14.923   7.078 -0.0639  0.2830 -0.2521
  675POPI   C3B10437  12.816  14.791   7.451 -0.2266  0.1763  0.2632
  675POPI   C4B10438  13.057  14.575   7.705 -0.0051 -0.0229  0.0793
  676POPI    C110439  14.768  11.009   6.096  0.1002  0.1985 -0.1212
  676POPI    C210440  14.763  10.901   5.711  0.1001 -0.0781 -0.0453
  676POPI    C310441  14.676  11.278   5.814 -0.2765 -0.0937 -0.2851
  676POPI   PO410442  14.642  10.857   6.226  0.1506 -0.5893 -0.0713
  676POPI   GL110443  14.845  10.617   6.506 -0.0185 -0.1785  0.1138
  676POPI   GL210444  15.065  10.778   6.691 -0.2115  0.2840  0.0282
  676POPI   C1A10445  14.616  10.692   6.868 -0.0989  0.1519  0.2839
  676POPI   D2A10446  14.510  10.698   7.334 -0.0337 -0.0228  0.2606
  676POPI   C3A10447  14.529  10.447   7.712  0.2081  0.0853 -0.0865
  676POPI   C4A10448  14.668  10.224   8.055  0.2639  0.2402  0.1691
  676POPI   C1B10449  14.998  10.598   7.132 -0.1030  0.1591  0.0273
  676POPI   C2B10450  14.992  10.573   7.501  0.3192  0.0713 -0.4090
  676POPI   C3B10451  14.768  10.819   7.875  0.0552 -0.2265 -0.2577
  676POPI   C4B10452  14.472  10.754   8.140  0.0442  0.0806 -0.1815
  677POPI    C110453  17.076   7.462   5.988 -0.0574 -0.1529 -0.1506
  677POPI    C210454  16.842   7.378   5.676 -0.1222 -0.1098 -0.1139
  677POPI    C310455  17.189   7.568   5.619 -0.1550 -0.0618 -0.1550
  677POPI   PO410456  17.082   7.197   6.232 -0.1569 -0.0825 -0.2418
  677POPI   GL110457  17.098   7.266   6.748 -0.3073 -0.0357 -0.2004
  677POPI   GL210458  17.116   6.938   6.707 -0.1761 -0.2124 -0.3321
  677POPI   C1A10459  17.234   7.459   7.103 -0.1895  0.1477  0.0288
  677POPI   D2A10460  17.304   7.581   7.440  0.0974  0.1735  0.0338
  677POPI   C3A10461  17.323   7.354   7.843 -0.1917  0.0609 -0.1679
  677POPI   C4A10462  17.266   7.257   8.288  0.3467 -0.1330  0.0135
  677POPI   C1B10463  17.182   6.971   7.120 -0.3656  0.5152  0.1982
  677POPI   C2B10464  17.287   6.854   7.497  0.2436 -0.0538 -0.0628
  677POPI   C3B10465  17.174   6.851   7.952 -0.0735  0.2086 -0.2445
  677POPI   C4B10466  17.152   6.794   8.389 -0.1848 -0.4042  0.0309
  678POPI    C110467  17.312  16.869   6.109  0.2536 -0.0070  0.1657
  678POPI    C210468  17.587  16.652   5.915 -0.1103 -0.1534 -0.2023
  678POPI    C310469  17.315  16.860   5.709 -0.1046  0.2209  0.1536
  678POPI   PO410470  17.354  16.696   6.357 -0.1782 -0.1844 -0.1016
  678POPI   GL110471  17.276  16.769   6.783 -0.0972 -0.0166  0.1499
  678POPI   GL210472  17.195  17.109   6.781  0.1565 -0.1924  0.1785
  678POPI   C1A10473  17.242  16.570   7.033 -0.0243  0.3585 -0.1886
  678POPI   D2A10474  17.135  16.304   7.475 -0.3666 -0.0226 -0.0576
  678POPI   C3A10475  17.363  16.215   7.891 -0.0964  0.1768 -0.1288
  678POPI   C4A10476  17.334  15.868   8.132  0.1301 -0.0663  0.1015
  678POPI   C1B10477  17.073  17.059   7.182  0.0557  0.1791 -0.1354
  678POPI   C2B10478  16.978  17.333   7.431  0.0353 -0.1150 -0.3415
  678POPI   C3B10479  17.123  17.540   7.790 -0.1956 -0.0569  0.0288
  678POPI   C4B10480  16.973  17.671   8.267 -0.1457  0.2293  0.2030
  679POPI    C110481   2.149  11.820   5.703  0.1805 -0.1226 -0.2486
  679POPI    C210482   2.475  11.843   5.473  0.3788  0.0427  0.0432
  679POPI    C310483   2.338  12.170   5.658 -0.0868  0.0246 -0.2527
  679POPI   PO410484   2.179  11.615   5.834 -0.0343  0.1941  0.1403
  679POPI   GL110485   2.064  11.427   6.169 -0.2484 -0.0991 -0.1359
  679POPI   GL210486   2.117  11.164   6.322 -0.2144 -0.0714  0.1150
  679POPI   C1A10487   2.329  11.612   6.446  0.0702 -0.0913 -0.3140
  679POPI   D2A10488   2.486  11.734   6.862  0.1546  0.2618  0.0626
  679POPI   C3A10489   2.741  11.654   7.228 -0.3660  0.1346  0.2061
  679POPI   C4A10490   2.751  11.475   7.669 -0.2036  0.0557  0.0143
  679POPI   C1B10491   2.320  11.124   6.721 -0.0320  0.1600  0.0895
  679POPI   C2B10492   2.514  11.117   7.127  0.2649 -0.1638  0.1435
  679POPI   C3B10493   2.367  11.102   7.485 -0.0408  0.1827 -0.0524
  679POPI   C4B10494   2.276  10.966   7.935  0.1317  0.0254 -0.0579
  680POPI    C110495   1.187   3.368   6.279  0.1090 -0.1572 -0.1284
  680POPI    C210496   1.113   3.201   5.923  0.1470 -0.0330 -0.1949
  680POPI    C310497   1.484   3.197   6.073  0.1240 -0.1174 -0.1398
  680POPI   PO410498   1.013   3.336   6.416  0.3747  0.1434 -0.1171
  680POPI   GL110499   0.913   3.361   6.845 -0.1011 -0.1611  0.3946
  680POPI   GL210500   0.625   3.572   6.746 -0.1072 -0.2379 -0.0961
  680POPI   C1A10501   0.936   3.474   7.242  0.0973 -0.1182 -0.0374
  680POPI   D2A10502   0.984   3.384   7.701  0.1640  0.1237  0.0955
  680POPI   C3A10503   1.060   3.764   7.934 -0.1351  0.1727  0.0279
  680POPI   C4A10504   1.352   4.084   8.037 -0.1773 -0.1647  0.0932
  680POPI   C1B10505   0.407   3.564   7.222 -0.3153 -0.2683  0.0886
  680POPI   C2B10506   0.495   3.587   7.590 -0.0421  0.1927  0.0558
  680POPI   C3B10507   0.189   3.568   7.895  0.0696  0.0873 -0.2698
  680POPI   C4B10508   0.188   3.520   8.325  0.0376 -0.0394  0.1599
  681POPI    C110509   5.446   3.153   5.786  0.1198  0.0238 -0.1539
  681POPI    C210510   5.330   3.225   5.410 -0.1336  0.2723 -0.0315
  681POPI    C310511   5.499   3.516   5.626  0.3585  0.0268 -0.0721
  681POPI   PO410512   5.257   3.045   5.876 -0.0435 -0.1287 -0.4932
  681POPI   GL110513   5.116   2.713   6.242 -0.3516 -0.1795 -0.0286
  681POPI   GL210514   5.082   2.907   6.482 -0.1646 -0.0056  0.3386
  681POPI   C1A10515   5.102   2.328   6.487 -0.1906  0.2582 -0.1436
  681POPI   D2A10516   5.216   2.070   6.898  0.1049 -0.1213 -0.2390
  681POPI   C3A10517   5.301   2.137   7.392  0.2333 -0.0208  0.0984
  681POPI   C4A10518   5.427   2.181   7.849  0.0914 -0.0355  0.1987
  681POPI   C1B10519   5.047   2.741   6.892  0.1030 -0.1508  0.2107
  681POPI   C2B10520   5.230   2.577   7.205  0.3026 -0.0706  0.2429
  681POPI   C3B10521   5.243   2.644   7.590 -0.0948  0.2899 -0.1460
  681POPI   C4B10522   5.576   2.614   7.993  0.1030  0.2887  0.0576
  682POPI    C110523   4.153   8.238   6.405  0.0430 -0.1201 -0.2156
  682POPI    C210524   4.079   8.626   6.342 -0.2188 -0.1558 -0.1400
  682POPI    C310525   4.189   8.391   6.037 -0.0707 -0.0260 -0.1881
  682POPI   PO410526   3.995   8.181   6.620 -0.1019 -0.2212 -0.1815
  682POPI   GL110527   4.038   8.317   7.021  0.0054  0.0487 -0.0131
  682POPI   GL210528   3.896   8.649   6.772  0.2313  0.2228  0.0383
  682POPI   C1A10529   4.027   8.531   7.455 -0.1877 -0.1919 -0.0401
  682POPI   D2A10530   4.208   8.687   7.846  0.1018 -0.2713 -0.8045
  682POPI   C3A10531   4.354   8.985   8.068 -0.1571 -0.0101 -0.1652
  682POPI   C4A10532   4.351   8.999   8.524 -0.3223  0.2253  0.0627
  682POPI   C1B10533   3.936   8.902   7.145  0.1189  0.0531  0.1637
  682POPI   C2B10534   3.895   8.980   7.628  0.0189 -0.0275 -0.2032
  682POPI   C3B10535   3.949   9.260   7.951 -0.1281 -0.2208 -0.1264
  682POPI   C4B10536   4.015   9.360   8.405  0.0275  0.0751  0.1388
  683POPI    C110537   6.257   1.896   5.842  0.1546  0.0703  0.1646
  683POPI    C210538   6.005   2.000   5.549  0.0584 -0.1752  0.1573
  683POPI    C310539   6.400   2.001   5.484  0.0374 -0.2278  0.0264
  683POPI   PO410540   6.094   1.607   5.948 -0.0129  0.1655 -0.1095
  683POPI   GL110541   6.078   1.233   6.299  0.2183  0.0404  0.3189
  683POPI   GL210542   6.408   1.123   6.355  0.3012  0.2197 -0.2136
  683POPI   C1A10543   5.928   1.436   6.678  0.1892  0.0819  0.2291
  683POPI   D2A10544   5.938   1.380   7.100  0.1030  0.2195  0.1678
  683POPI   C3A10545   5.876   1.727   7.317  0.1012 -0.1650 -0.1789
  683POPI   C4A10546   5.792   2.054   7.605  0.1643 -0.0509  0.2166
  683POPI   C1B10547   6.194   1.025   6.780 -0.0824  0.1501 -0.1094
  683POPI   C2B10548   6.124   0.969   7.293 -0.2090  0.0161 -0.2480
  683POPI   C3B10549   6.065   1.161   7.647 -0.1590 -0.3942  0.2159
  683POPI   C4B10550   5.867   1.469   7.764  0.3259  0.1528 -0.2387
  684POPI    C110551   0.238  13.853   5.581  0.0356  0.0602  0.0455
  684POPI    C210552   0.448  14.176   5.474 -0.0003  0.0447 -0.0724
  684POPI    C310553   0.616  13.814   5.456 -0.0043  0.0429 -0.0705
  684POPI   PO410554   0.158  13.838   5.902 -0.1719 -0.1248  0.1797
  684POPI   GL110555   0.196  13.765   6.326  0.0398 -0.4654  0.0428
  684POPI   GL210556   0.306  13.576   6.438  0.3096  0.2016  0.2629
  684POPI   C1A10557   0.326  14.206   6.466 -0.2433  0.1269  0.1603
  684POPI   D2A10558   0.328  14.580   6.577  0.1544  0.0228 -0.2564
  684POPI   C3A10559   0.553  14.505   6.883 -0.2298 -0.0001  0.1541
  684POPI   C4A10560   0.730  14.571   7.254  0.1282  0.0897  0.1048
  684POPI   C1B10561   0.448  13.485   6.830 -0.1230 -0.2942 -0.1857
  684POPI   C2B10562   0.316  13.590   7.292  0.0214 -0.0696 -0.3869
  684POPI   C3B10563   0.459  13.560   7.697 -0.0736 -0.1024 -0.1201
  684POPI   C4B10564   0.590  13.604   8.081 -0.0029  0.2954 -0.1519
  685POPI    C110565  14.369  10.188   5.761  0.0170 -0.0504 -0.0068
  685POPI    C210566  14.353  10.582   5.832  0.2083 -0.0543  0.0632
  685POPI    C310567  14.123  10.421   5.547 -0.1534  0.0479  0.2906
  685POPI   PO410568  14.352  10.095   6.053  0.1615 -0.2441  0.1692
  685POPI   GL110569  14.107   9.947   6.357 -0.0003  0.1518  0.2100
  685POPI   GL210570  14.110   9.653   6.336 -0.0035 -0.2926  0.2620
  685POPI   C1A10571  13.850   9.993   6.744  0.1940 -0.2394 -0.0388
  685POPI   D2A10572  13.671  10.083   7.146  0.4260  0.0490  0.3712
  685POPI   C3A10573  13.906   9.967   7.510 -0.2309  0.2672 -0.0463
  685POPI   C4A10574  14.186  10.077   7.888  0.0750 -0.2214  0.1217
  685POPI   C1B10575  14.172   9.623   6.743 -0.1171  0.2994  0.2156
  685POPI   C2B10576  14.263   9.724   7.237 -0.0858  0.0123  0.1260
  685POPI   C3B10577  14.468   9.830   7.553 -0.0774 -0.3712  0.0845
  685POPI   C4B10578  14.856   9.779   7.632 -0.1018 -0.1758  0.1551
  686POPI    C110579  17.739   7.765   5.690  0.0795 -0.0844 -0.3778
  686POPI    C210580  17.456   8.046   5.650 -0.0480 -0.1535  0.0038
  686POPI    C310581  17.751   8.020   5.381 -0.1015  0.2671 -0.1022
  686POPI   PO410582  17.865   7.846   5.916 -0.1430  0.3113 -0.1853
  686POPI   GL110583  18.155   7.843   6.195  0.1186 -0.2472 -0.4208
  686POPI   GL210584  18.292   7.767   6.483 -0.0643  0.0400 -0.0578
  686POPI   C1A10585  18.216   8.301   6.405  0.3089  0.0607  0.2165
  686POPI   D2A10586  17.992   8.530   6.675 -0.0012  0.0303 -0.0191
  686POPI   C3A10587  17.852   8.212   7.071  0.2501 -0.1531  0.1287
  686POPI   C4A10588  17.845   8.096   7.517 -0.2460  0.1799  0.3193
  686POPI   C1B10589  18.251   7.875   6.821 -0.2254  0.0458 -0.3652
  686POPI   C2B10590  18.279   8.000   7.248  0.0085  0.2001  0.0400
  686POPI   C3B10591  18.315   8.108   7.670  0.0185  0.4160  0.1359
  686POPI   C4B10592  18.298   8.314   7.985 -0.0141 -0.0064  0.2174
  687POPI    C110593  17.172  15.857   5.526  0.0372  0.0779 -0.5557
  687POPI    C210594  16.830  16.047   5.610  0.2304  0.2055 -0.0119
  687POPI    C310595  16.831  15.738   5.356 -0.3161  0.0981  0.1044
  687POPI   PO410596  17.274  15.875   5.824  0.1244  0.0941 -0.0584
  687POPI   GL110597  17.139  15.737   6.211 -0.2705 -0.0612 -0.1100
  687POPI   GL210598  17.312  15.792   6.516 -0.2249 -0.1348 -0.0505
  687POPI   C1A10599  16.781  15.830   6.560 -0.0954  0.0428  0.0002
  687POPI   D2A10600  16.589  15.796   7.004 -0.4214  0.0569 -0.2071
  687POPI   C3A10601  16.494  15.325   7.080  0.2055 -0.3196  0.1037
  687POPI   C4A10602  16.454  15.074   7.397  0.5122  0.3505 -0.0203
  687POPI   C1B10603  17.272  15.746   6.834 -0.1722  0.1263  0.0684
  687POPI   C2B10604  17.370  15.548   7.225 -0.0869  0.3588 -0.0936
  687POPI   C3B10605  17.633  15.377   7.547 -0.2676 -0.0822 -0.0406
  687POPI   C4B10606  17.736  15.221   7.913 -0.0641 -0.1029  0.0581
  688POPI    C110607  15.046   8.811   5.815 -0.1801 -0.1131  0.0474
  688POPI    C210608  14.772   8.800   5.524  0.0065 -0.0659 -0.1324
  688POPI    C310609  15.156   8.866   5.434  0.0546  0.0263  0.1336
  688POPI   PO410610  14.928   8.821   6.027 -0.2042  0.0083  0.1954
  688POPI   GL110611  15.135   8.823   6.556 -0.0579 -0.0578 -0.1502
  688POPI   GL210612  14.951   9.094   6.532 -0.1022 -0.2077 -0.0315
  688POPI   C1A10613  15.042   8.870   6.978  0.1031  0.2914  0.0675
  688POPI   D2A10614  15.049   8.860   7.261 -0.0598  0.3210 -0.0297
  688POPI   C3A10615  14.969   9.070   7.576 -0.1915  0.1259  0.2755
  688POPI   C4A10616  15.002   9.301   8.062 -0.2287  0.1435 -0.0489
  688POPI   C1B10617  14.909   9.306   6.913  0.0182 -0.0692 -0.3611
  688POPI   C2B10618  15.135   9.375   7.205  0.1069 -0.2695  0.0931
  688POPI   C3B10619  15.314   9.783   7.331 -0.1756  0.0860  0.0521
  688POPI   C4B10620  15.268  10.188   7.404  0.0059  0.2385  0.1887
  689POPI    C110621   9.476   3.877   5.919  0.0863 -0.0341 -0.0306
  689POPI    C210622   9.400   3.629   6.223  0.1490 -0.0505 -0.0282
  689POPI    C310623   9.473   3.482   5.858  0.0602 -0.0303 -0.0542
  689POPI   PO410624   9.702   3.968   6.006  0.0747 -0.3325 -0.0734
  689POPI   GL110625   9.671   4.221   6.311 -0.0982 -0.1546  0.1786
  689POPI   GL210626   9.730   3.912   6.476  0.0732 -0.0105 -0.0944
  689POPI   C1A10627   9.527   4.390   6.663 -0.0285 -0.0519 -0.1625
  689POPI   D2A10628   9.731   4.335   6.946  0.1543  0.0240  0.1392
  689POPI   C3A10629   9.426   4.311   7.268 -0.1584 -0.0505 -0.1147
  689POPI   C4A10630   9.106   4.648   7.399  0.3861 -0.2160  0.0726
  689POPI   C1B10631   9.769   3.774   6.900 -0.0686  0.1350  0.0525
  689POPI   C2B10632   9.881   3.600   7.311 -0.0057  0.1251  0.1450
  689POPI   C3B10633   9.959   3.593   7.727  0.0462 -0.1411  0.0857
  689POPI   C4B10634   9.911   3.762   8.128 -0.2073 -0.0293  0.0575
  690POPI    C110635  12.117  10.912   5.891  0.0971  0.0683 -0.1699
  690POPI    C210636  12.044  10.696   5.562 -0.0738  0.0959 -0.1511
  690POPI    C310637  11.816  11.014   5.647 -0.0427  0.0774  0.0044
  690POPI   PO410638  12.137  10.699   6.101 -0.0789  0.1456 -0.0070
  690POPI   GL110639  11.861  10.807   6.518 -0.0247 -0.0288  0.0338
  690POPI   GL210640  11.954  11.104   6.337 -0.1351 -0.0543 -0.1637
  690POPI   C1A10641  11.707  10.859   6.948 -0.1230 -0.2447  0.5116
  690POPI   D2A10642  11.692  10.893   7.323 -0.0009 -0.1583 -0.0773
  690POPI   C3A10643  11.459  10.512   7.470  0.2044  0.0467  0.3279
  690POPI   C4A10644  11.054  10.414   7.338  0.0566  0.1169 -0.1153
  690POPI   C1B10645  11.947  11.269   6.721  0.0026  0.0321 -0.1975
  690POPI   C2B10646  11.947  11.285   7.153  0.0473  0.1020 -0.1510
  690POPI   C3B10647  11.929  11.196   7.643 -0.1535 -0.3752 -0.3344
  690POPI   C4B10648  11.704  11.241   7.978  0.1104  0.2009  0.0925
  691POPI    C110649   7.111  13.666   5.654  0.2774  0.2593 -0.0355
  691POPI    C210650   7.368  13.367   5.718 -0.1995 -0.1287  0.1330
  691POPI    C310651   7.191  13.405   5.362 -0.1238 -0.0321  0.1053
  691POPI   PO410652   7.285  13.879   5.783  0.2729 -0.0919  0.1306
  691POPI   GL110653   7.450  13.918   6.113  0.1897 -0.0942  0.1994
  691POPI   GL210654   7.289  14.130   6.357 -0.2031 -0.2194  0.3279
  691POPI   C1A10655   7.595  13.761   6.563  0.2057 -0.2049 -0.0884
  691POPI   D2A10656   7.751  13.781   7.031  0.0318 -0.0436  0.2039
  691POPI   C3A10657   7.665  13.974   7.396 -0.2633  0.1344  0.1210
  691POPI   C4A10658   7.509  14.141   7.587 -0.3568 -0.1214  0.2504
  691POPI   C1B10659   7.382  14.092   6.816  0.4279 -0.0679 -0.2796
  691POPI   C2B10660   7.366  14.201   7.088 -0.1029  0.0959  0.3089
  691POPI   C3B10661   6.961  14.253   7.359  0.1884  0.4280  0.0063
  691POPI   C4B10662   6.743  14.544   7.485 -0.1261  0.2720  0.0787
  692POPI    C110663  16.850   9.983   5.934  0.0764  0.1276  0.1895
  692POPI    C210664  16.537   9.768   5.806  0.1861  0.0896 -0.0195
  692POPI    C310665  16.909   9.657   5.709  0.2903 -0.0860  0.5458
  692POPI   PO410666  16.731  10.263   5.866  0.0273  0.2566  0.1371
  692POPI   GL110667  16.652  10.573   6.122  0.0785 -0.1372 -0.1521
  692POPI   GL210668  16.902  10.364   6.320  0.0433 -0.1924 -0.2432
  692POPI   C1A10669  16.705  10.867   6.295 -0.0544  0.1057 -0.0257
  692POPI   D2A10670  16.637  11.310   6.365 -0.1726  0.2018 -0.1115
  692POPI   C3A10671  16.564  11.418   6.868  0.2080 -0.0848 -0.0239
  692POPI   C4A10672  16.308  11.660   7.270  0.0362  0.0158  0.0795
  692POPI   C1B10673  16.955  10.105   6.730 -0.2099  0.1568  0.1062
  692POPI   C2B10674  17.110  10.034   7.103 -0.1164 -0.1372 -0.0855
  692POPI   C3B10675  17.005   9.928   7.465  0.1125 -0.3406  0.1146
  692POPI   C4B10676  17.069   9.896   7.902  0.0162 -0.3102 -0.1058
  693POPI    C110677   7.254   3.335   5.922 -0.0334 -0.1354 -0.1866
  693POPI    C210678   7.193   3.364   5.527 -0.0204 -0.1361 -0.1887
  693POPI    C310679   7.548   3.245   5.666  0.0125 -0.0219 -0.1743
  693POPI   PO410680   6.927   3.265   6.096  0.0414 -0.3079  0.1012
  693POPI   GL110681   6.732   3.240   6.459  0.1242 -0.0737 -0.1526
  693POPI   GL210682   6.754   3.522   6.521 -0.0555 -0.1221 -0.0202
  693POPI   C1A10683   6.960   3.134   6.772  0.3006 -0.1876 -0.1078
  693POPI   D2A10684   6.887   3.110   7.175 -0.2221 -0.0884  0.1705
  693POPI   C3A10685   6.822   2.906   7.469  0.0883  0.2931 -0.1183
  693POPI   C4A10686   6.712   2.628   7.827 -0.0188  0.0922  0.0152
  693POPI   C1B10687   6.761   3.762   6.933  0.0747 -0.0290  0.3666
  693POPI   C2B10688   6.855   3.660   7.260  0.1503  0.2378  0.3319
  693POPI   C3B10689   6.807   3.453   7.596 -0.0072  0.2169 -0.3570
  693POPI   C4B10690   6.849   3.171   7.896  0.0030 -0.2633 -0.2107
  694POPI    C110691   6.839   0.594   5.987  0.0455 -0.0139 -0.1268
  694POPI    C210692   6.541   0.562   5.722  0.0169 -0.2248 -0.0713
  694POPI    C310693   6.920   0.568   5.596 -0.0071 -0.0124 -0.1379
  694POPI   PO410694   6.725   0.673   6.282 -0.1925  0.1499  0.2209
  694POPI   GL110695   6.422   0.673   6.551 -0.0897  0.2666 -0.2179
  694POPI   GL210696   6.341   0.389   6.570 -0.1857  0.0722 -0.0313
  694POPI   C1A10697   6.430   0.650   7.050 -0.2889 -0.1224 -0.0611
  694POPI   D2A10698   6.373   0.582   7.470 -0.0145  0.1203 -0.1081
  694POPI   C3A10699   6.245   0.547   7.851 -0.1521 -0.0600  0.0274
  694POPI   C4A10700   6.551   0.695   8.174 -0.2574 -0.1151  0.0783
  694POPI   C1B10701   6.485   0.134   6.909 -0.1473 -0.2879 -0.1966
  694POPI   C2B10702   6.556  -0.004   7.270 -0.0862 -0.1448  0.1953
  694POPI   C3B10703   6.368   0.125   7.664 -0.0396  0.3397 -0.0343
  694POPI   C4B10704   6.481   0.125   8.033  0.0474 -0.1430 -0.0466
  695POPI    C110705   3.718  15.473   5.958  0.3849  0.3816 -0.2456
  695POPI    C210706   3.557  15.563   5.603  0.1266  0.1484 -0.1903
  695POPI    C310707   3.947  15.479   5.630  0.1257  0.0560 -0.4386
  695POPI   PO410708   3.493  15.293   6.082  0.2399 -0.1761 -0.0368
  695POPI   GL110709   3.339  15.124   6.497  0.0504 -0.3332  0.2078
  695POPI   GL210710   3.581  14.890   6.420 -0.2524 -0.0186  0.0458
  695POPI   C1A10711   3.147  14.644   6.649 -0.0711 -0.1848 -0.0370
  695POPI   D2A10712   2.983  14.429   7.040 -0.2136  0.2937 -0.0163
  695POPI   C3A10713   3.205  14.294   7.328  0.0225  0.1573  0.0123
  695POPI   C4A10714   3.378  14.056   7.654  0.0160 -0.2657 -0.2507
  695POPI   C1B10715   3.633  14.942   6.876 -0.0716 -0.0274  0.0191
  695POPI   C2B10716   3.323  14.806   7.200  0.0034 -0.2116  0.0999
  695POPI   C3B10717   3.190  14.789   7.662  0.3471  0.0299  0.0773
  695POPI   C4B10718   3.176  14.396   7.903  0.0407 -0.1171  0.0174
  696POPI    C110719  16.696   1.922   5.780  0.0832 -0.0491 -0.1598
  696POPI    C210720  16.666   1.636   6.058 -0.1722  0.0988 -0.0310
  696POPI    C310721  16.562   1.558   5.680  0.1725 -0.1016 -0.0893
  696POPI   PO410722  16.695   2.123   5.937  0.0428  0.1162 -0.1427
  696POPI   GL110723  16.681   2.280   6.335 -0.0175 -0.2993 -0.1986
  696POPI   GL210724  16.497   1.973   6.408 -0.0447 -0.0897 -0.0827
  696POPI   C1A10725  16.427   2.601   6.487 -0.0059  0.0286 -0.2447
  696POPI   D2A10726  16.048   2.830   6.518  0.1197  0.1277 -0.0324
  696POPI   C3A10727  15.812   2.949   6.829 -0.3103 -0.0126 -0.2388
  696POPI   C4A10728  15.784   2.866   7.217  0.2631  0.2507 -0.1679
  696POPI   C1B10729  16.317   2.211   6.810  0.0535  0.2051 -0.0070
  696POPI   C2B10730  16.281   2.129   7.229  0.0121  0.3144 -0.1027
  696POPI   C3B10731  16.466   2.149   7.635  0.2422  0.1199 -0.0871
  696POPI   C4B10732  16.525   2.287   7.978 -0.0710  0.1876 -0.1728
  697POPI    C110733   7.108   2.441   5.565  0.0441 -0.0883 -0.2569
  697POPI    C210734   7.005   2.226   5.243 -0.1160 -0.0599 -0.2256
  697POPI    C310735   6.737   2.465   5.418 -0.0256 -0.0647 -0.0786
  697POPI   PO410736   7.216   2.381   5.784 -0.0791  0.2030 -0.0127
  697POPI   GL110737   7.121   2.144   6.172  0.1763 -0.0762  0.0586
  697POPI   GL210738   7.154   1.801   6.060  0.1280  0.0704  0.0475
  697POPI   C1A10739   7.121   2.098   6.637 -0.1887 -0.0501 -0.0176
  697POPI   D2A10740   7.153   2.115   7.146  0.2304 -0.0696 -0.3974
  697POPI   C3A10741   6.970   1.988   7.475 -0.1231  0.0813  0.1040
  697POPI   C4A10742   6.943   2.050   7.927 -0.0212  0.2010 -0.0380
  697POPI   C1B10743   7.498   1.869   6.363  0.0180 -0.0888  0.1603
  697POPI   C2B10744   7.561   1.903   6.739  0.0237  0.0858  0.0263
  697POPI   C3B10745   7.568   1.904   7.107 -0.1836  0.1976 -0.1465
  697POPI   C4B10746   7.489   1.830   7.393  0.0553 -0.1341 -0.0359
  698POPI    C110747   8.443   8.467   6.281 -0.0116 -0.2405  0.0860
  698POPI    C210748   8.454   8.184   6.000 -0.4154 -0.0621 -0.1186
  698POPI    C310749   8.304   8.544   5.914 -0.0332  0.1747  0.1762
  698POPI   PO410750   8.291   8.255   6.495 -0.0809  0.0428  0.2123
  698POPI   GL110751   8.251   8.312   6.925 -0.2333 -0.2874 -0.0632
  698POPI   GL210752   8.411   8.029   6.995 -0.0413  0.1246 -0.1968
  698POPI   C1A10753   8.069   8.693   7.128 -0.0626 -0.2031  0.1680
  698POPI   D2A10754   7.992   8.870   7.549 -0.2199  0.0874 -0.3420
  698POPI   C3A10755   8.268   8.668   7.812  0.0467 -0.1484 -0.0750
  698POPI   C4A10756   8.434   8.221   8.180 -0.0876  0.2535  0.0564
  698POPI   C1B10757   8.748   7.862   7.256 -0.0868 -0.2187  0.0698
  698POPI   C2B10758   8.961   7.772   7.582  0.0188 -0.1705  0.0539
  698POPI   C3B10759   9.281   7.775   7.865  0.0844  0.2715 -0.0569
  698POPI   C4B10760   9.238   7.808   8.294  0.0846  0.1160 -0.2717
  699POPI    C110761  14.237   7.423   5.505 -0.1281  0.2089  0.0848
  699POPI    C210762  13.966   7.142   5.589 -0.1714  0.2726  0.1599
  699POPI    C310763  13.940   7.348   5.248  0.0825 -0.0807 -0.0797
  699POPI   PO410764  14.217   7.569   5.725 -0.0807  0.3313  0.2261
  699POPI   GL110765  14.462   7.426   6.122  0.0036 -0.4736 -0.1161
  699POPI   GL210766  14.338   7.120   6.384  0.1056 -0.2746  0.1141
  699POPI   C1A10767  14.645   7.573   6.539  0.0234  0.0043 -0.2025
  699POPI   D2A10768  14.605   7.654   6.955 -0.2378  0.3673 -0.3463
  699POPI   C3A10769  14.210   7.793   7.220  0.2241 -0.0658 -0.1078
  699POPI   C4A10770  13.970   8.053   7.452  0.0652 -0.1314  0.0468
  699POPI   C1B10771  14.109   7.400   6.737 -0.2830 -0.0290 -0.1828
  699POPI   C2B10772  14.148   7.316   7.109  0.0790  0.0642  0.0084
  699POPI   C3B10773  14.195   7.261   7.570 -0.0522 -0.0733  0.0125
  699POPI   C4B10774  14.240   7.449   8.027 -0.0103  0.1241  0.2199
  700POPI    C110775  15.140   0.900   6.178  0.1078  0.1923 -0.1099
  700POPI    C210776  15.492   0.731   6.093  0.0428  0.1223 -0.2432
  700POPI    C310777  15.153   0.528   6.031 -0.0293  0.2520 -0.2764
  700POPI   PO410778  15.178   0.974   6.375  0.1517  0.0005 -0.3463
  700POPI   GL110779  15.217   0.760   6.740 -0.1857  0.3021  0.2637
  700POPI   GL210780  15.421   0.523   6.511  0.2466 -0.1202  0.0470
  700POPI   C1A10781  15.174   0.872   7.134 -0.0571  0.0929 -0.1133
  700POPI   D2A10782  15.000   0.611   7.516 -0.0119  0.1282  0.1712
  700POPI   C3A10783  14.662   0.318   7.476  0.1373 -0.0336  0.1796
  700POPI   C4A10784  14.448  -0.048   7.758  0.2435  0.0037 -0.0869
  700POPI   C1B10785  15.367   0.324   6.933 -0.1273  0.0656 -0.2231
  700POPI   C2B10786  15.452   0.430   7.370 -0.1293  0.2225 -0.0241
  700POPI   C3B10787  15.457   0.688   7.693 -0.2141 -0.2559  0.1538
  700POPI   C4B10788  15.159   0.860   7.928  0.0415  0.2264 -0.1525
  701POPI    C110789  16.767  17.586   6.047 -0.0548  0.0603  0.0847
  701POPI    C210790  16.760  17.382   5.703 -0.0100 -0.1988  0.2342
  701POPI    C310791  16.552  17.722   5.739 -0.1095 -0.2318 -0.0089
  701POPI   PO410792  16.893  17.397   6.248 -0.0518 -0.0154 -0.0340
  701POPI   GL110793  16.941  17.525   6.691 -0.1179 -0.1896  0.0145
  701POPI   GL210794  16.849  17.833   6.651 -0.2927 -0.3171 -0.1659
  701POPI   C1A10795  16.762  17.402   6.935  0.2440 -0.0125  0.0763
  701POPI   D2A10796  16.434  17.581   7.292  0.1484 -0.3115 -0.1776
  701POPI   C3A10797  16.393  17.417   7.712 -0.0479  0.0318 -0.2046
  701POPI   C4A10798  16.695  17.297   7.946 -0.3312 -0.2707  0.0972
  701POPI   C1B10799  16.940  17.916   6.995  0.3199 -0.2455 -0.1377
  701POPI   C2B10800  16.967  17.894   7.428 -0.1852  0.3328 -0.0386
  701POPI   C3B10801  16.683  17.811   7.830  0.0041  0.0495  0.0723
  701POPI   C4B10802  16.615  18.033   8.250  0.1403 -0.0149 -0.2677
  702POPI    C110803  17.673   1.244   5.911 -0.0898 -0.0203  0.1431
  702POPI    C210804  17.639   0.932   6.159  0.1860 -0.1179  0.0622
  702POPI    C310805  17.652   0.873   5.764 -0.2803  0.0393  0.0169
  702POPI   PO410806  17.807   1.355   5.993 -0.4632  0.1102  0.4425
  702POPI   GL110807  17.854   1.685   6.304 -0.5071 -0.1668  0.2914
  702POPI   GL210808  17.591   1.860   6.252 -0.0187  0.1481  0.0900
  702POPI   C1A10809  18.320   1.769   6.566 -0.2401 -0.0678 -0.2427
  702POPI   D2A10810  18.498   1.942   6.910  0.1811  0.2258  0.0320
  702POPI   C3A10811  18.872   2.038   6.855  0.3270 -0.1478  0.0959
  702POPI   C4A10812  19.003   2.176   7.166  0.0114 -0.0814  0.0579
  702POPI   C1B10813  17.490   1.830   6.679 -0.0443  0.0397  0.2118
  702POPI   C2B10814  17.408   1.882   7.149 -0.2759 -0.0782  0.2493
  702POPI   C3B10815  17.009   1.786   7.384 -0.0427  0.1883 -0.1940
  702POPI   C4B10816  16.891   1.850   7.870  0.2057  0.0432  0.3054
  703POPI    C110817   9.860  10.261   5.977 -0.0135  0.0747 -0.0612
  703POPI    C210818  10.191  10.222   5.756  0.0525 -0.0428  0.0569
  703POPI    C310819   9.832  10.189   5.584  0.1039 -0.4784  0.0232
  703POPI   PO410820  10.024  10.112   6.211  0.0515 -0.2285  0.1049
  703POPI   GL110821  10.031  10.343   6.526 -0.3005  0.1239 -0.0564
  703POPI   GL210822  10.242  10.556   6.635 -0.0597  0.2630  0.3746
  703POPI   C1A10823   9.971  10.131   6.913 -0.0769  0.2837  0.4664
  703POPI   D2A10824  10.033  10.102   7.301 -0.2706  0.2225  0.2364
  703POPI   C3A10825   9.935   9.772   7.561  0.1951 -0.0643  0.2521
  703POPI   C4A10826   9.770   9.387   7.625 -0.3387  0.1631 -0.0107
  703POPI   C1B10827  10.252  10.577   7.051  0.2561 -0.3305  0.1642
  703POPI   C2B10828  10.172  10.519   7.493  0.1803  0.1025  0.1472
  703POPI   C3B10829  10.141  10.829   7.864 -0.0651 -0.0480  0.0870
  703POPI   C4B10830  10.426  10.988   8.142 -0.1497 -0.1271  0.1204
  704POPI    C110831  11.308  12.666   5.932  0.0214 -0.3142 -0.0241
  704POPI    C210832  11.663  12.611   6.109  0.1251 -0.0223 -0.1354
  704POPI    C310833  11.589  12.950   5.911 -0.1933 -0.1100 -0.1717
  704POPI   PO410834  11.145  12.544   6.140 -0.0925  0.2993  0.0542
  704POPI   GL110835  11.082  12.465   6.606  0.3791 -0.1367  0.0422
  704POPI   GL210836  11.360  12.524   6.730 -0.0248  0.1024  0.0480
  704POPI   C1A10837  10.908  12.248   6.892  0.1988 -0.1458 -0.2069
  704POPI   D2A10838  10.708  12.192   7.260  0.1516  0.0316  0.1870
  704POPI   C3A10839  10.924  12.377   7.621 -0.0716 -0.0528  0.2382
  704POPI   C4A10840  10.954  12.411   8.035 -0.2909 -0.3667  0.4011
  704POPI   C1B10841  11.313  12.481   7.138  0.0798  0.0439 -0.2907
  704POPI   C2B10842  11.454  12.496   7.540  0.3096 -0.0662  0.2274
  704POPI   C3B10843  11.342  12.800   7.774  0.3684  0.2048  0.0195
  704POPI   C4B10844  11.397  12.999   8.195  0.0011 -0.0926 -0.0518
  705POPI    C110845  14.919   2.293   6.007  0.1518  0.1187 -0.0974
  705POPI    C210846  15.075   2.069   5.715 -0.1410 -0.2581  0.0265
  705POPI    C310847  14.737   2.273   5.652  0.0491  0.0417 -0.0412
  705POPI   PO410848  15.030   2.149   6.262  0.0236  0.1191 -0.3237
  705POPI   GL110849  15.339   2.256   6.459 -0.1668 -0.0977 -0.1250
  705POPI   GL210850  15.478   2.528   6.431 -0.2637 -0.1675  0.2254
  705POPI   C1A10851  15.141   2.249   6.910  0.2462 -0.2078 -0.0389
  705POPI   D2A10852  14.996   2.196   7.364  0.0780  0.2054  0.2131
  705POPI   C3A10853  15.259   2.359   7.767  0.0572 -0.1680 -0.1000
  705POPI   C4A10854  15.600   2.254   8.049 -0.1500 -0.1760 -0.0762
  705POPI   C1B10855  15.432   2.730   6.832 -0.3378  0.0332  0.1612
  705POPI   C2B10856  15.314   2.556   7.225 -0.1191  0.0728 -0.1162
  705POPI   C3B10857  15.653   2.671   7.639 -0.0172  0.0597 -0.0419
  705POPI   C4B10858  15.705   2.793   8.044  0.1688 -0.0215  0.0637
  706POPI    C110859   8.119  15.813   5.754 -0.1086 -0.1313 -0.0104
  706POPI    C210860   7.797  16.046   5.710  0.0630  0.1171  0.0289
  706POPI    C310861   8.038  15.978   5.399  0.1868  0.2533  0.0936
  706POPI   PO410862   8.357  15.894   5.931 -0.2322  0.0817 -0.0103
  706POPI   GL110863   8.424  16.271   6.246 -0.0893  0.3192  0.0138
  706POPI   GL210864   8.238  16.364   6.345  0.0279  0.1372 -0.0654
  706POPI   C1A10865   8.757  16.086   6.538  0.0797 -0.3087  0.0890
  706POPI   D2A10866   9.078  15.914   6.639 -0.1610 -0.2799 -0.0929
  706POPI   C3A10867   9.398  16.013   6.907  0.0322  0.1784 -0.1874
  706POPI   C4A10868   9.658  16.142   7.195 -0.1334  0.1527  0.3213
  706POPI   C1B10869   8.098  16.452   6.865  0.3365  0.1161 -0.0095
  706POPI   C2B10870   8.085  16.392   7.234  0.2149 -0.2515  0.1307
  706POPI   C3B10871   8.270  16.490   7.551 -0.2188 -0.2215 -0.1137
  706POPI   C4B10872   8.366  16.867   7.830  0.1089  0.0146  0.1213
  707POPI    C110873  13.596   0.632   5.782  0.0204 -0.0518  0.0788
  707POPI    C210874  13.939   0.587   5.982  0.1127  0.0378 -0.0581
  707POPI    C310875  13.929   0.809   5.649 -0.0849  0.0614 -0.0373
  707POPI   PO410876  13.383   0.504   6.002  0.1682 -0.1131 -0.1364
  707POPI   GL110877  13.186   0.518   6.385  0.0693 -0.0168  0.2383
  707POPI   GL210878  13.414   0.793   6.361 -0.0468 -0.0243 -0.3755
  707POPI   C1A10879  13.327   0.261   6.753  0.2843  0.1627 -0.1063
  707POPI   D2A10880  13.170   0.045   7.153 -0.0780 -0.0517  0.2153
  707POPI   C3A10881  13.319  -0.088   7.595 -0.1058  0.0327  0.0426
  707POPI   C4A10882  13.265  -0.413   7.972 -0.0730  0.1178 -0.1686
  707POPI   C1B10883  13.221   0.821   6.847 -0.2823  0.1237  0.1623
  707POPI   C2B10884  13.161   0.884   7.274  0.1177 -0.0453  0.1237
  707POPI   C3B10885  12.980   0.803   7.649  0.2652  0.3310  0.0324
  707POPI   C4B10886  12.971   0.619   8.066  0.4811  0.1699  0.1964
  708POPI    C110887  10.633  13.002   6.179  0.2133  0.1281 -0.1630
  708POPI    C210888  10.634  12.634   6.022 -0.3286  0.0308  0.0392
  708POPI    C310889  10.393  12.915   5.871  0.2168  0.3692 -0.2362
  708POPI   PO410890  10.854  13.049   6.203 -0.2706 -0.0053  0.0546
  708POPI   GL110891  10.974  13.313   6.506  0.2197 -0.0873 -0.0819
  708POPI   GL210892  10.743  13.353   6.702 -0.3190  0.0625 -0.2718
  708POPI   C1A10893  11.268  13.091   6.818  0.0789  0.0082  0.2533
  708POPI   D2A10894  11.383  12.995   7.224 -0.0357  0.1523 -0.0431
  708POPI   C3A10895  11.359  13.328   7.451  0.2065  0.0323 -0.2378
  708POPI   C4A10896  11.230  13.316   7.829 -0.1001 -0.0027 -0.0044
  708POPI   C1B10897  10.955  13.384   7.074 -0.1373 -0.2018  0.0596
  708POPI   C2B10898  10.828  13.376   7.428 -0.0004 -0.0166  0.0388
  708POPI   C3B10899  10.740  13.463   7.841 -0.1159  0.1119 -0.0664
  708POPI   C4B10900  10.984  13.734   8.085 -0.1002  0.1314 -0.0470
  709POPI    C110901   3.640  13.334   5.810 -0.0194  0.1810 -0.0751
  709POPI    C210902   3.342  13.301   5.545 -0.0366 -0.0260 -0.0322
  709POPI    C310903   3.720  13.245   5.428 -0.0610 -0.3354  0.0282
  709POPI   PO410904   3.634  13.589   6.004 -0.0191 -0.3067 -0.2096
  709POPI   GL110905   3.376  13.655   6.454 -0.2476  0.0348  0.1418
  709POPI   GL210906   3.264  13.951   6.412 -0.2041 -0.2059  0.2015
  709POPI   C1A10907   3.720  13.684   6.812  0.2175  0.3446 -0.0073
  709POPI   D2A10908   3.965  13.395   7.028  0.1716  0.0099 -0.1862
  709POPI   C3A10909   3.763  13.252   7.383  0.0618  0.1335  0.2075
  709POPI   C4A10910   3.868  13.177   7.781 -0.1391  0.0415  0.2055
  709POPI   C1B10911   3.289  13.942   6.880 -0.0655  0.0205 -0.1797
  709POPI   C2B10912   3.478  13.734   7.242  0.2911 -0.4089  0.2722
  709POPI   C3B10913   3.465  13.548   7.623  0.2203  0.1216 -0.1482
  709POPI   C4B10914   3.542  13.484   8.051  0.1763 -0.2010  0.0284
  710POPI    C110915  14.367   1.080   5.655 -0.1999  0.0922 -0.0876
  710POPI    C210916  14.697   1.295   5.721 -0.0733 -0.1150 -0.0343
  710POPI    C310917  14.452   1.392   5.420  0.3013 -0.2622 -0.3966
  710POPI   PO410918  14.279   0.965   6.002  0.2091  0.1274 -0.0090
  710POPI   GL110919  14.199   0.659   6.353 -0.2261  0.0394 -0.1801
  710POPI   GL210920  13.935   0.810   6.457 -0.4839 -0.1145 -0.1390
  710POPI   C1A10921  14.319   0.567   6.757  0.1012 -0.1133 -0.1507
  710POPI   D2A10922  14.340   0.492   7.138 -0.2483  0.0342  0.1390
  710POPI   C3A10923  14.512   0.805   7.380  0.0607  0.0075  0.1243
  710POPI   C4A10924  14.584   0.838   7.754  0.3712 -0.1301 -0.0614
  710POPI   C1B10925  13.988   0.918   6.825  0.0338  0.0626  0.3810
  710POPI   C2B10926  13.992   0.920   7.256  0.1489 -0.0544  0.1161
  710POPI   C3B10927  13.971   0.877   7.714 -0.3653  0.1309  0.1029
  710POPI   C4B10928  13.988   0.860   8.108  0.3604  0.0170 -0.1214
  711POPI    C110929   7.889  13.057   5.847  0.1475  0.1564  0.1521
  711POPI    C210930   8.081  12.982   5.505  0.0573  0.1101  0.1111
  711POPI    C310931   7.708  12.849   5.557  0.1468 -0.0685  0.3111
  711POPI   PO410932   8.159  13.187   6.006  0.0252 -0.1421 -0.1148
  711POPI   GL110933   8.307  13.449   6.390  0.1325  0.0689 -0.1883
  711POPI   GL210934   8.410  13.617   6.580  0.0346  0.0535  0.0145
  711POPI   C1A10935   7.970  13.315   6.613  0.1361 -0.0909  0.1038
  711POPI   D2A10936   7.583  13.263   6.848  0.0190  0.2904 -0.2261
  711POPI   C3A10937   7.638  13.272   7.272  0.2273 -0.1288  0.0925
  711POPI   C4A10938   7.627  13.311   7.592  0.2056 -0.0011  0.1869
  711POPI   C1B10939   8.161  13.437   7.064  0.0682 -0.2518 -0.1635
  711POPI   C2B10940   8.000  13.634   7.508 -0.0766 -0.0012 -0.1694
  711POPI   C3B10941   7.909  13.809   7.854  0.0297 -0.0107  0.0090
  711POPI   C4B10942   7.650  14.035   8.061  0.0530  0.1899  0.0278
  712POPI    C110943  15.453   7.246   6.171  0.1024  0.0028 -0.0198
  712POPI    C210944  15.664   6.906   6.181 -0.1286 -0.1393  0.1469
  712POPI    C310945  15.267   6.897   6.233 -0.1752  0.1278 -0.1280
  712POPI   PO410946  15.839   7.374   6.336 -0.0160 -0.3011 -0.0278
  712POPI   GL110947  16.040   7.196   6.648  0.1255  0.2288 -0.0363
  712POPI   GL210948  15.986   6.864   6.576  0.2229 -0.0426 -0.2760
  712POPI   C1A10949  15.861   7.332   7.083 -0.1136 -0.1376 -0.0169
  712POPI   D2A10950  15.951   7.439   7.520  0.0988 -0.2096 -0.3924
  712POPI   C3A10951  15.894   7.057   7.705 -0.1521 -0.0018 -0.0093
  712POPI   C4A10952  15.634   6.678   7.794  0.2720  0.1989 -0.0541
  712POPI   C1B10953  15.780   6.758   6.937 -0.1475  0.0133  0.0610
  712POPI   C2B10954  15.551   7.007   7.328  0.1782  0.5905  0.0033
  712POPI   C3B10955  15.231   7.033   7.681 -0.2471 -0.3324  0.1121
  712POPI   C4B10956  14.748   7.136   7.771 -0.0903  0.0659  0.0978
  713POPI    C110957  16.426  14.682   5.569 -0.1091 -0.2875 -0.0261
  713POPI    C210958  16.226  14.970   5.761 -0.2362 -0.3286 -0.0957
  713POPI    C310959  16.315  15.013   5.373  0.2798 -0.1129  0.0377
  713POPI   PO410960  16.734  14.720   5.723  0.3087 -0.0342  0.0720
  713POPI   GL110961  16.621  15.092   6.084 -0.0390  0.1096  0.0763
  713POPI   GL210962  16.893  15.075   6.115  0.0145  0.2065 -0.0185
  713POPI   C1A10963  16.446  15.343   6.500 -0.1954  0.1396 -0.1478
  713POPI   D2A10964  16.200  15.715   6.705 -0.0766  0.0707 -0.0160
  713POPI   C3A10965  16.101  15.658   7.163  0.0701 -0.0014 -0.1060
  713POPI   C4A10966  15.972  15.863   7.543  0.1668  0.1663 -0.0116
  713POPI   C1B10967  16.994  15.381   6.465  0.0381 -0.0404 -0.1833
  713POPI   C2B10968  16.971  15.389   6.949 -0.0136 -0.0395 -0.0362
  713POPI   C3B10969  16.874  15.389   7.359 -0.1833  0.0598 -0.0487
  713POPI   C4B10970  16.857  15.260   7.760 -0.2080 -0.0340  0.3884
  714POPI    C110971   1.482  15.910   5.668 -0.3487  0.1278 -0.2111
  714POPI    C210972   1.389  15.540   5.548 -0.0349 -0.0716  0.1356
  714POPI    C310973   1.770  15.661   5.546 -0.1357  0.2563  0.0187
  714POPI   PO410974   1.309  15.923   5.909  0.0910  0.0246  0.4030
  714POPI   GL110975   1.031  16.001   6.268  0.1794 -0.0096  0.1554
  714POPI   GL210976   0.838  15.836   6.267 -0.1602  0.1001 -0.4457
  714POPI   C1A10977   1.195  16.136   6.791  0.3850  0.2391  0.1375
  714POPI   D2A10978   1.450  16.352   6.953 -0.0935 -0.0224 -0.0199
  714POPI   C3A10979   1.550  16.322   7.368  0.0880  0.0583 -0.0689
  714POPI   C4A10980   1.591  16.066   7.775  0.0573 -0.1019  0.3867
  714POPI   C1B10981   1.026  15.659   6.624 -0.0047  0.1968  0.0353
  714POPI   C2B10982   1.365  15.457   6.755  0.2313  0.2791  0.0477
  714POPI   C3B10983   1.679  15.469   6.972  0.2495 -0.0346 -0.0016
  714POPI   C4B10984   2.020  15.340   6.975  0.0407  0.0957 -0.1031
  715POPI    C110985   2.148   6.244   5.993  0.0464  0.0128  0.1498
  715POPI    C210986   2.317   6.152   5.642 -0.1024 -0.0144  0.0842
  715POPI    C310987   2.085   5.885   5.829 -0.3350  0.1357  0.0144
  715POPI   PO410988   2.292   6.272   6.229  0.0315  0.0581 -0.2402
  715POPI   GL110989   2.440   6.183   6.617 -0.2735  0.0716  0.0947
  715POPI   GL210990   2.311   5.953   6.785  0.1259 -0.0322 -0.1475
  715POPI   C1A10991   2.541   6.230   7.092  0.1181 -0.5074 -0.0771
  715POPI   D2A10992   2.465   6.199   7.446 -0.2495 -0.1222 -0.3608
  715POPI   C3A10993   2.565   6.318   7.787  0.1226 -0.0988  0.2586
  715POPI   C4A10994   2.895   6.516   8.084 -0.1993 -0.0839 -0.1277
  715POPI   C1B10995   2.149   5.891   7.229 -0.2454 -0.3189  0.2179
  715POPI   C2B10996   2.108   5.898   7.688 -0.2691  0.1296  0.1011
  715POPI   C3B10997   2.042   6.244   8.002  0.2834  0.0067  0.2948
  715POPI   C4B10998   1.748   6.304   8.285 -0.1878  0.1902  0.3564
  716POPI    C110999   0.458  12.403   5.837 -0.2106 -0.0668  0.0831
  716POPI    C211000   0.646  12.141   6.074 -0.1130  0.0272  0.1107
  716POPI    C311001   0.848  12.329   5.784 -0.2333 -0.0922 -0.0525
  716POPI   PO411002   0.187  12.443   6.051  0.1056  0.3764 -0.0959
  716POPI   GL111003   0.177  12.524   6.494 -0.0806 -0.1579  0.2105
  716POPI   GL211004   0.514  12.399   6.496 -0.0081  0.0149 -0.2368
  716POPI   C1A11005   0.205  12.553   6.918 -0.0241 -0.0372  0.1789
  716POPI   D2A11006   0.313  12.403   7.359 -0.1635  0.0763 -0.0181
  716POPI   C3A11007   0.199  12.560   7.799  0.1853 -0.0260 -0.0395
  716POPI   C4A11008   0.346  12.731   8.209 -0.0749  0.2257  0.1742
  716POPI   C1B11009   0.770  12.623   6.807 -0.0276 -0.0974 -0.0413
  716POPI   C2B11010   0.701  12.686   7.384  0.3078 -0.2504  0.3066
  716POPI   C3B11011   0.674  12.554   7.853 -0.0696  0.2084  0.2181
  716POPI   C4B11012   0.780  12.256   8.319 -0.1332  0.1632 -0.0446
  717POPI    C111013  10.448   4.383   5.604 -0.2394  0.0631  0.2275
  717POPI    C211014  10.824   4.308   5.487 -0.2457  0.0993  0.1841
  717POPI    C311015  10.528   4.062   5.379 -0.2503  0.1282  0.1305
  717POPI   PO411016  10.459   4.459   5.883 -0.0737  0.4253 -0.0797
  717POPI   GL111017  10.185   4.495   6.277  0.0199  0.3158  0.3363
  717POPI   GL211018  10.468   4.648   6.361 -0.1918 -0.0769 -0.0413
  717POPI   C1A11019   9.962   4.668   6.658 -0.2551 -0.0371 -0.0576
  717POPI   D2A11020  10.105   4.633   7.087  0.0137  0.0239  0.0460
  717POPI   C3A11021   9.951   4.376   7.407  0.0381  0.2744 -0.0809
  717POPI   C4A11022   9.780   4.026   7.467  0.1039 -0.0384 -0.0070
  717POPI   C1B11023  10.511   4.429   6.828  0.0115  0.3440 -0.0675
  717POPI   C2B11024  10.654   4.600   7.199  0.2315 -0.0653  0.2713
  717POPI   C3B11025  10.506   4.296   7.460  0.3080  0.0543  0.0461
  717POPI   C4B11026  10.760   3.989   7.660  0.3819  0.0656 -0.3458
  718POPI    C111027  14.444  17.514   6.410  0.4284  0.0592  0.2501
  718POPI    C211028  14.757  17.699   6.245  0.2990  0.0504 -0.0110
  718POPI    C311029  14.393  17.740   6.084  0.1425  0.1557  0.3577
  718POPI   PO411030  14.504  17.200   6.406 -0.1874 -0.2472  0.0576
  718POPI   GL111031  14.627  16.968   6.822  0.0529 -0.0864  0.2314
  718POPI   GL211032  14.639  17.288   6.877  0.1346  0.0875  0.0433
  718POPI   C1A11033  14.507  16.797   7.110 -0.1228 -0.0823  0.1855
  718POPI   D2A11034  14.198  16.705   7.342  0.2748  0.2326  0.0061
  718POPI   C3A11035  14.295  16.473   7.682 -0.2082  0.0943  0.1280
  718POPI   C4A11036  14.402  15.983   7.870  0.0558  0.0317  0.1744
  718POPI   C1B11037  14.287  17.252   7.171 -0.1120 -0.0176 -0.1586
  718POPI   C2B11038  14.343  17.076   7.616 -0.0976  0.0346  0.2327
  718POPI   C3B11039  14.178  16.845   7.942 -0.0180 -0.0612  0.0786
  718POPI   C4B11040  13.684  16.761   7.944  0.1147  0.0685 -0.0912
  719POPI    C111041  17.734   2.250   5.851  0.0921 -0.0476 -0.2104
  719POPI    C211042  17.861   2.494   5.561 -0.0442 -0.0215 -0.2485
  719POPI    C311043  17.790   2.109   5.481  0.0342 -0.0416 -0.2215
  719POPI   PO411044  17.469   2.450   6.016  0.1828  0.0148 -0.0540
  719POPI   GL111045  17.179   2.401   6.321 -0.0379 -0.0835  0.2589
  719POPI   GL211046  17.409   2.353   6.505 -0.1087 -0.0059  0.0915
  719POPI   C1A11047  16.885   2.514   6.684  0.0200 -0.0162  0.0581
  719POPI   D2A11048  16.731   2.720   6.929  0.2544  0.0364 -0.2327
  719POPI   C3A11049  16.656   2.711   7.292  0.0276  0.2899  0.2465
  719POPI   C4A11050  16.506   2.691   7.644  0.0353 -0.1415  0.0418
  719POPI   C1B11051  17.391   2.350   6.870 -0.1603  0.1467  0.0536
  719POPI   C2B11052  17.437   2.417   7.286  0.0634 -0.2596  0.0074
  719POPI   C3B11053  17.478   2.125   7.655  0.0600 -0.1631 -0.5200
  719POPI   C4B11054  17.288   2.082   8.128 -0.2522  0.0345 -0.2003
  720POPI    C111055   4.736  14.976   5.769 -0.0625 -0.0646  0.0822
  720POPI    C211056   4.383  15.147   5.690  0.1112  0.2589 -0.0165
  720POPI    C311057   4.669  15.143   5.411  0.2024  0.0379  0.0780
  720POPI   PO411058   4.797  14.962   6.062 -0.3101  0.2046  0.4737
  720POPI   GL111059   4.864  15.094   6.450 -0.0545 -0.1851  0.0486
  720POPI   GL211060   5.188  15.022   6.310 -0.0156 -0.2498 -0.0547
  720POPI   C1A11061   5.044  15.367   6.747  0.0855  0.0361  0.1570
  720POPI   D2A11062   4.952  15.521   7.163  0.0459 -0.1043 -0.0573
  720POPI   C3A11063   5.051  15.325   7.563  0.3143 -0.4246 -0.1097
  720POPI   C4A11064   5.304  15.289   8.013  0.0052 -0.0367 -0.1537
  720POPI   C1B11065   5.123  14.726   6.685  0.0535 -0.2014 -0.0310
  720POPI   C2B11066   4.997  14.584   7.153  0.1793 -0.0382  0.0035
  720POPI   C3B11067   5.165  14.344   7.427  0.1718  0.1785  0.6105
  720POPI   C4B11068   5.401  14.402   7.817 -0.2885  0.1869 -0.2304
  721POPS   CNO11069   3.269   6.045   6.577 -0.0646  0.0538 -0.0888
  721POPS   PO411070   2.833   5.884   6.518  0.2699  0.2471 -0.2125
  721POPS   GL111071   2.770   5.857   6.885 -0.0538 -0.1764  0.5330
  721POPS   GL211072   3.042   5.941   6.998  0.0610 -0.0837  0.0653
  721POPS   C1A11073   2.660   5.741   7.233 -0.0164 -0.1148 -0.0677
  721POPS   D2A11074   2.582   5.613   7.547 -0.0737  0.1404  0.0924
  721POPS   C3A11075   2.554   5.863   7.872  0.1006  0.3480  0.3115
  721POPS   C4A11076   2.842   5.992   8.083  0.1051 -0.0079 -0.0558
  721POPS   C1B11077   2.978   6.080   7.395 -0.1003  0.1387 -0.1487
  721POPS   C2B11078   3.030   6.235   7.692  0.1049 -0.0172 -0.0296
  721POPS   C3B11079   3.302   6.245   7.954 -0.0599 -0.1633  0.0079
  721POPS   C4B11080   3.286   6.176   8.341  0.2866  0.1112 -0.0084
  722POPS   CNO11081  15.612   8.826   5.822 -0.2073 -0.1983 -0.0813
  722POPS   PO411082  15.552   8.745   6.225  0.1479  0.0951  0.3565
  722POPS   GL111083  15.527   9.046   6.627  0.0773  0.0970  0.0668
  722POPS   GL211084  15.504   9.401   6.637 -0.0636  0.4783  0.1087
  722POPS   C1A11085  15.477   9.062   7.122  0.2471 -0.4816  0.2893
  722POPS   D2A11086  15.459   9.044   7.549 -0.0242  0.0028  0.1301
  722POPS   C3A11087  15.321   9.403   7.726  0.0738 -0.1207  0.1207
  722POPS   C4A11088  15.448   9.787   7.957  0.0524  0.1045 -0.0771
  722POPS   C1B11089  15.617   9.498   6.995  0.2466 -0.0195  0.0493
  722POPS   C2B11090  15.684   9.463   7.330  0.3826  0.1634  0.0358
  722POPS   C3B11091  15.803   9.410   7.744  0.2084 -0.1286 -0.3977
  722POPS   C4B11092  15.958   9.516   8.231  0.0485 -0.1336  0.1534
  723POPS   CNO11093  12.806   4.694   5.929  0.1629  0.2678 -0.0280
  723POPS   PO411094  12.561   4.897   6.098  0.0236 -0.0617  0.1411
  723POPS   GL111095  12.480   5.218   6.347 -0.0173  0.0215  0.0079
  723POPS   GL211096  12.735   5.296   6.491 -0.1919 -0.2391  0.0569
  723POPS   C1A11097  12.105   5.196   6.766 -0.0284  0.3783 -0.0777
  723POPS   D2A11098  11.794   5.026   7.081 -0.0790  0.1565 -0.2367
  723POPS   C3A11099  11.684   5.435   7.292  0.0910  0.1992 -0.1872
  723POPS   C4A11100  11.873   5.799   7.449  0.0690 -0.1111  0.0549
  723POPS   C1B11101  12.615   5.121   6.867 -0.0718  0.0389  0.1384
  723POPS   C2B11102  12.608   5.230   7.156  0.3814 -0.0467  0.0050
  723POPS   C3B11103  12.610   5.142   7.524  0.0743 -0.1790  0.3480
  723POPS   C4B11104  12.490   4.903   7.853  0.0536  0.0930 -0.1224
  724POPS   CNO11105  14.909   3.490   5.906 -0.0729 -0.1658  0.0557
  724POPS   PO411106  14.910   3.063   6.057 -0.1642  0.2910 -0.0221
  724POPS   GL111107  14.957   3.280   6.444 -0.0127  0.0219  0.0558
  724POPS   GL211108  14.733   3.053   6.580 -0.0464  0.1418  0.0188
  724POPS   C1A11109  14.866   3.510   6.852  0.3090 -0.1648  0.0132
  724POPS   D2A11110  14.883   3.567   7.305 -0.0744 -0.0501  0.0035
  724POPS   C3A11111  15.210   3.813   7.617 -0.1290  0.1036  0.0902
  724POPS   C4A11112  15.423   3.827   7.974  0.2746  0.0634  0.3509
  724POPS   C1B11113  14.914   2.656   6.814  0.0954 -0.2070  0.0459
  724POPS   C2B11114  14.776   2.594   7.229  0.0705  0.0578  0.1728
  724POPS   C3B11115  14.786   2.541   7.656  0.1119  0.1978  0.0376
  724POPS   C4B11116  14.799   2.561   8.038  0.1342  0.1967  0.2228
  725POPS   CNO11117   7.257   3.300   6.438 -0.2138  0.0490  0.3307
  725POPS   PO411118   7.611   3.563   6.258 -0.3283  0.1277 -0.0895
  725POPS   GL111119   7.840   3.622   6.539 -0.0459  0.1670  0.0136
  725POPS   GL211120   8.043   3.922   6.451  0.2211  0.0533 -0.2408
  725POPS   C1A11121   7.913   3.511   6.934 -0.1012 -0.0527 -0.1434
  725POPS   D2A11122   8.125   3.454   7.442  0.1018  0.0690 -0.1104
  725POPS   C3A11123   8.043   3.600   7.762 -0.1351  0.1728 -0.1416
  725POPS   C4A11124   8.376   3.726   8.145  0.0344 -0.0250  0.2255
  725POPS   C1B11125   8.175   3.977   6.782  0.0346  0.1238 -0.1630
  725POPS   C2B11126   8.051   3.933   7.309  0.1342 -0.0649  0.1328
  725POPS   C3B11127   8.015   4.141   7.687 -0.4042 -0.0956  0.0906
  725POPS   C4B11128   8.018   4.092   8.129  0.3303 -0.0452  0.1969
  726POPS   CNO11129  15.463   6.839   5.680  0.1379 -0.2018 -0.0968
  726POPS   PO411130  15.941   6.748   5.795 -0.0209  0.1675 -0.1703
  726POPS   GL111131  16.120   6.516   6.218  0.1009  0.1446  0.4041
  726POPS   GL211132  15.842   6.423   6.276  0.2061 -0.0168 -0.2224
  726POPS   C1A11133  16.310   6.492   6.666 -0.0474 -0.0122 -0.1112
  726POPS   D2A11134  16.164   6.481   7.113  0.0968  0.1985  0.0907
  726POPS   C3A11135  15.784   6.334   7.228  0.0706 -0.0726  0.1035
  726POPS   C4A11136  15.462   6.105   7.023 -0.1513 -0.1082  0.1283
  726POPS   C1B11137  15.843   6.269   6.758  0.0406 -0.0488  0.3229
  726POPS   C2B11138  16.166   6.033   6.958 -0.0533 -0.0669  0.0865
  726POPS   C3B11139  16.226   5.958   7.298  0.1624 -0.4841  0.0657
  726POPS   C4B11140  16.433   6.230   7.602 -0.1695  0.1573 -0.0751
  727POPS   CNO11141  12.083  14.687   5.758  0.2734  0.3498 -0.2150
  727POPS   PO411142  12.106  14.346   5.969 -0.2811 -0.2774 -0.1145
  727POPS   GL111143  12.004  14.600   6.278  0.2140 -0.0492 -0.1820
  727POPS   GL211144  11.795  14.801   6.148 -0.0265 -0.1740  0.0937
  727POPS   C1A11145  11.869  14.679   6.808 -0.0342 -0.0816 -0.0908
  727POPS   D2A11146  11.878  14.663   7.291 -0.1733  0.1636  0.1805
  727POPS   C3A11147  11.654  15.034   7.434 -0.0463 -0.1145 -0.1796
  727POPS   C4A11148  11.686  15.453   7.613  0.3896  0.0634  0.1322
  727POPS   C1B11149  11.690  15.029   6.477 -0.2477  0.3553 -0.0663
  727POPS   C2B11150  11.554  15.117   6.814  0.1018  0.1964 -0.1982
  727POPS   C3B11151  11.641  15.521   7.108 -0.3253  0.2459  0.4049
  727POPS   C4B11152  11.377  15.810   7.365  0.0500 -0.3214 -0.1123
  728POPS   CNO11153  14.281   1.478   5.989 -0.1039  0.1786 -0.4418
  728POPS   PO411154  13.978   1.386   6.402  0.2357 -0.1251 -0.1117
  728POPS   GL111155  14.127   1.620   6.759 -0.1449  0.1225 -0.0679
  728POPS   GL211156  14.401   1.546   6.819  0.1720  0.1070  0.0306
  728POPS   C1A11157  13.985   1.456   7.212 -0.2500  0.0210  0.3653
  728POPS   D2A11158  13.953   1.377   7.681 -0.2159  0.0553 -0.3148
  728POPS   C3A11159  13.824   1.307   8.013  0.0324  0.2470 -0.0590
  728POPS   C4A11160  13.830   1.489   8.413 -0.0497  0.0192  0.1714
  728POPS   C1B11161  14.354   1.835   7.183  0.3550 -0.0251 -0.0009
  728POPS   C2B11162  14.511   2.199   7.383 -0.3603  0.0947  0.1276
  728POPS   C3B11163  14.806   2.068   7.770  0.0750  0.0018  0.0657
  728POPS   C4B11164  15.029   2.035   8.119  0.0277 -0.2731  0.2277
  729POPS   CNO11165   9.581   4.736   5.664  0.1661  0.0806  0.3409
  729POPS   PO411166   9.782   4.827   6.034  0.1765 -0.0792  0.0830
  729POPS   GL111167  10.021   5.033   6.344 -0.0035  0.1988 -0.0175
  729POPS   GL211168  10.214   5.194   6.415  0.0028 -0.0521 -0.0457
  729POPS   C1A11169   9.976   5.101   6.827 -0.1272 -0.1120 -0.1237
  729POPS   D2A11170  10.227   5.182   7.216 -0.1045 -0.0391 -0.2238
  729POPS   C3A11171  10.323   4.765   7.503  0.3877 -0.4455 -0.0321
  729POPS   C4A11172  10.262   4.845   8.011  0.2101 -0.2203  0.3665
  729POPS   C1B11173  10.496   4.961   6.763 -0.1093 -0.1504  0.0396
  729POPS   C2B11174  10.766   5.049   7.026  0.0794 -0.1054 -0.0411
  729POPS   C3B11175  10.703   5.137   7.437 -0.0026 -0.0956 -0.0433
  729POPS   C4B11176  10.396   5.232   7.688 -0.0238 -0.2381  0.1006
  730POPS   CNO11177   2.439   3.898   5.675 -0.1327  0.0529  0.0064
  730POPS   PO411178   2.572   3.756   5.978  0.2307  0.1152 -0.0167
  730POPS   GL111179   2.715   3.634   6.440  0.1125 -0.0623 -0.1391
  730POPS   GL211180   2.971   3.853   6.526 -0.0531  0.2994  0.2419
  730POPS   C1A11181   2.636   3.385   6.859 -0.0013 -0.2412 -0.1402
  730POPS   D2A11182   2.476   3.100   7.155  0.0964 -0.0279 -0.2110
  730POPS   C3A11183   2.336   2.902   7.671  0.0861  0.0399 -0.1625
  730POPS   C4A11184   2.217   2.937   8.069  0.3172 -0.2656 -0.2845
  730POPS   C1B11185   2.969   3.800   6.941  0.2904 -0.1751  0.0859
  730POPS   C2B11186   2.838   3.580   7.272  0.2348  0.0771  0.3390
  730POPS   C3B11187   2.617   3.490   7.527  0.0256  0.3403 -0.1220
  730POPS   C4B11188   2.578   3.247   7.923 -0.0346  0.0049 -0.2026
  731POPS   CNO11189   0.843   8.874   5.811  0.2093  0.0967 -0.3583
  731POPS   PO411190   1.280   8.662   5.955 -0.0883  0.2347  0.3585
  731POPS   GL111191   1.058   8.712   6.317  0.0375 -0.1312  0.1953
  731POPS   GL211192   0.804   8.876   6.337 -0.4601  0.0021 -0.2182
  731POPS   C1A11193   1.006   8.760   6.738 -0.2754  0.0048 -0.1091
  731POPS   D2A11194   0.856   8.772   7.122 -0.0022 -0.1439 -0.1593
  731POPS   C3A11195   0.988   8.543   7.470 -0.0629 -0.4090 -0.3926
  731POPS   C4A11196   0.757   8.351   7.775  0.1932 -0.2509  0.1017
  731POPS   C1B11197   0.640   9.083   6.705  0.0238  0.0239 -0.4097
  731POPS   C2B11198   0.546   9.134   7.109 -0.1822  0.1231 -0.0166
  731POPS   C3B11199   0.422   9.360   7.456 -0.1896 -0.1165 -0.0531
  731POPS   C4B11200   0.306   9.542   7.774  0.1695  0.2921  0.0083
  732POPS   CNO11201   2.928   2.545   6.481  0.0696  0.0841  0.2288
  732POPS   PO411202   2.783   2.451   6.108 -0.0626 -0.3103  0.0340
  732POPS   GL111203   2.647   2.150   6.503 -0.2270  0.0209 -0.1873
  732POPS   GL211204   2.486   2.241   6.703 -0.1150 -0.0677  0.0767
  732POPS   C1A11205   2.773   1.806   6.760 -0.1200  0.0013  0.3193
  732POPS   D2A11206   2.718   1.844   7.131  0.4980  0.0269  0.0683
  732POPS   C3A11207   2.806   1.679   7.574 -0.1886 -0.0029 -0.2427
  732POPS   C4A11208   2.958   1.952   7.909 -0.1451  0.0064  0.1322
  732POPS   C1B11209   2.348   2.214   7.155 -0.1108  0.2012 -0.1744
  732POPS   C2B11210   2.397   2.032   7.554 -0.1610  0.1292  0.0670
  732POPS   C3B11211   2.354   1.788   7.936 -0.1921 -0.0080  0.5011
  732POPS   C4B11212   2.462   1.849   8.296  0.0127 -0.0883  0.1049
  733POPS   CNO11213   7.693   0.919   5.795 -0.2779  0.0348 -0.1882
  733POPS   PO411214   8.112   0.759   5.886  0.1565  0.1247  0.0494
  733POPS   GL111215   8.227   0.906   6.260 -0.2193  0.0496  0.1206
  733POPS   GL211216   8.560   0.793   6.389 -0.2390 -0.0944  0.0700
  733POPS   C1A11217   8.184   1.094   6.701 -0.3689 -0.4813 -0.1408
  733POPS   D2A11218   8.260   1.109   7.119 -0.0144 -0.1645 -0.0873
  733POPS   C3A11219   8.097   1.083   7.591  0.0197 -0.2112 -0.0254
  733POPS   C4A11220   7.760   1.210   7.912  0.1577 -0.1108 -0.1511
  733POPS   C1B11221   8.643   0.836   6.810  0.2475  0.0416 -0.0134
  733POPS   C2B11222   8.621   0.720   7.252  0.0940 -0.2683  0.0775
  733POPS   C3B11223   8.466   0.797   7.771  0.1732 -0.3453  0.0052
  733POPS   C4B11224   8.410   0.764   8.194  0.3277  0.1461 -0.0299
  734POPS   CNO11225   7.719  15.169   5.694 -0.1173  0.0965  0.0774
  734POPS   PO411226   7.505  14.897   5.936  0.1391 -0.0645 -0.0416
  734POPS   GL111227   7.847  14.885   6.291  0.1269  0.1546  0.1912
  734POPS   GL211228   7.810  15.124   6.520  0.0172 -0.2823 -0.1738
  734POPS   C1A11229   7.937  14.688   6.719 -0.1486 -0.0507 -0.2428
  734POPS   D2A11230   7.870  14.403   6.918 -0.0146  0.0323  0.1878
  734POPS   C3A11231   7.654  14.501   7.278 -0.2405 -0.4142 -0.2658
  734POPS   C4A11232   7.687  14.756   7.575  0.3392  0.2161 -0.2629
  734POPS   C1B11233   7.564  15.278   6.742 -0.2360 -0.2414  0.2081
  734POPS   C2B11234   7.152  15.277   6.948 -0.0127  0.0319 -0.0189
  734POPS   C3B11235   6.947  15.420   7.300  0.1501 -0.1443  0.0950
  734POPS   C4B11236   6.564  15.548   7.367  0.0639 -0.1625 -0.0105
  735POPS   CNO11237   1.894   0.617   5.985  0.0907 -0.0799  0.2039
  735POPS   PO411238   1.539   0.873   6.205  0.0292 -0.1159 -0.1376
  735POPS   GL111239   1.349   0.973   6.505  0.0138 -0.2014 -0.1530
  735POPS   GL211240   1.099   0.891   6.535  0.1165 -0.0572  0.0929
  735POPS   C1A11241   1.383   1.097   6.936 -0.4056  0.0362  0.1824
  735POPS   D2A11242   1.193   1.116   7.237 -0.0465  0.0871  0.1977
  735POPS   C3A11243   1.277   0.934   7.619 -0.2018 -0.3364  0.0023
  735POPS   C4A11244   1.573   0.660   7.710  0.0476  0.1068  0.2776
  735POPS   C1B11245   0.998   0.755   6.948 -0.0204  0.0350  0.0944
  735POPS   C2B11246   0.680   0.568   7.228 -0.1687  0.0681  0.0170
  735POPS   C3B11247   0.422   0.822   7.450 -0.3837  0.3230  0.0665
  735POPS   C4B11248   0.159   0.884   7.916  0.2533  0.2566  0.3138
  736POPS   CNO11249   3.687  12.220   5.415 -0.0218 -0.0326  0.3041
  736POPS   PO411250   3.736  12.454   5.760  0.4656  0.2592  0.2029
  736POPS   GL111251   3.787  12.332   6.089 -0.1606  0.1033  0.4603
  736POPS   GL211252   4.037  12.518   6.235  0.2266  0.0767  0.1258
  736POPS   C1A11253   3.605  12.185   6.417 -0.0416 -0.1874 -0.0219
  736POPS   D2A11254   3.231  12.033   6.746  0.0779  0.1955  0.1248
  736POPS   C3A11255   2.972  11.814   6.723 -0.0549 -0.0972 -0.1078
  736POPS   C4A11256   2.839  11.424   6.751  0.2226  0.0289  0.0139
  736POPS   C1B11257   4.101  12.251   6.585  0.4090  0.1189 -0.3336
  736POPS   C2B11258   4.090  12.208   6.976 -0.0008  0.0276  0.0849
  736POPS   C3B11259   4.163  12.322   7.360 -0.3347 -0.1448 -0.0145
  736POPS   C4B11260   4.118  12.310   7.754 -0.0616  0.0880  0.0035
  737POPS   CNO11261   5.925  11.312   6.080 -0.1739 -0.1072 -0.2620
  737POPS   PO411262   6.162  11.670   5.893  0.2674 -0.0911  0.1250
  737POPS   GL111263   6.096  11.719   6.384  0.1002  0.1221 -0.1105
  737POPS   GL211264   5.737  11.697   6.434  0.0447 -0.4155  0.0181
  737POPS   C1A11265   6.013  11.753   6.825 -0.0551 -0.0311 -0.1629
  737POPS   D2A11266   6.018  11.837   7.272  0.2145 -0.1987  0.0958
  737POPS   C3A11267   5.953  11.568   7.564 -0.1684  0.2588  0.2650
  737POPS   C4A11268   6.005  11.201   7.530 -0.2757  0.1618 -0.0591
  737POPS   C1B11269   5.470  11.580   6.758 -0.0830 -0.1252  0.0568
  737POPS   C2B11270   5.498  11.382   7.141 -0.1131 -0.3232 -0.3663
  737POPS   C3B11271   5.352  11.464   7.632  0.1129  0.2099  0.0126
  737POPS   C4B11272   5.174  11.217   7.878  0.1016  0.0112 -0.0719
  738POPS   CNO11273  16.231  17.488   6.005  0.2729  0.1181 -0.1111
  738POPS   PO411274  16.410  17.174   6.078  0.0983 -0.1594 -0.1029
  738POPS   GL111275  16.151  16.995   6.527 -0.1224  0.2983 -0.0546
  738POPS   GL211276  16.324  16.797   6.765 -0.0683  0.1985 -0.0186
  738POPS   C1A11277  15.834  16.976   6.789  0.3196  0.0711 -0.2522
  738POPS   D2A11278  15.563  16.900   7.144 -0.2904 -0.0012 -0.3646
  738POPS   C3A11279  15.666  16.751   7.542  0.1785 -0.1624  0.0670
  738POPS   C4A11280  15.531  16.547   8.004 -0.1814  0.1435 -0.2192
  738POPS   C1B11281  16.783  16.744   6.908  0.0879  0.2292  0.2723
  738POPS   C2B11282  16.807  16.610   7.298  0.1103  0.0223  0.1526
  738POPS   C3B11283  16.693  16.366   7.628 -0.3179  0.1218 -0.3029
  738POPS   C4B11284  16.816  16.139   7.970 -0.1077  0.3912  0.0760
  739POPS   CNO11285   0.642   0.920   6.034 -0.2137 -0.0827  0.0248
  739POPS   PO411286   0.599   0.762   6.424 -0.5867  0.2501 -0.1218
  739POPS   GL111287   0.827   0.385   6.693 -0.0695 -0.0623 -0.0257
  739POPS   GL211288   0.561   0.298   6.861  0.1209  0.0825  0.1633
  739POPS   C1A11289   1.011   0.237   7.021  0.1759  0.2769  0.3047
  739POPS   D2A11290   1.229   0.414   7.324  0.1923  0.1904  0.2517
  739POPS   C3A11291   0.908   0.537   7.643 -0.0234  0.2038  0.0652
  739POPS   C4A11292   1.110   0.656   7.961 -0.2388  0.1048  0.0302
  739POPS   C1B11293   0.311   0.171   7.303  0.0921 -0.2706  0.0623
  739POPS   C2B11294   0.433   0.426   7.699  0.1457  0.3674 -0.0861
  739POPS   C3B11295   0.603   0.643   8.089  0.4812 -0.1215 -0.2162
  739POPS   C4B11296   0.723   0.600   8.522  0.1220 -0.0163 -0.2042
  740POPS   CNO11297   2.598  13.431   6.105  0.1815  0.1656  0.3525
  740POPS   PO411298   2.148  13.354   6.122 -0.1254 -0.0536 -0.0214
  740POPS   GL111299   2.138  13.419   6.466  0.1064 -0.3293 -0.0376
  740POPS   GL211300   2.261  13.641   6.585  0.1656 -0.2738  0.1809
  740POPS   C1A11301   2.046  13.288   6.858 -0.0361  0.3233  0.2180
  740POPS   D2A11302   2.069  13.321   7.299  0.2921  0.1455  0.1815
  740POPS   C3A11303   2.125  13.064   7.600  0.0604  0.2230  0.0377
  740POPS   C4A11304   2.487  12.781   7.720  0.2189  0.0233  0.3466
  740POPS   C1B11305   2.341  13.677   7.001 -0.0352  0.0381 -0.3001
  740POPS   C2B11306   2.366  13.673   7.424  0.0016  0.0414  0.3524
  740POPS   C3B11307   2.406  13.885   7.802  0.1023 -0.0484 -0.1950
  740POPS   C4B11308   2.633  14.130   8.137  0.1316  0.0482  0.1370
  741POPS   CNO11309  17.692  14.652   5.855  0.1082  0.0633 -0.1961
  741POPS   PO411310  17.466  14.389   5.874  0.3759 -0.1925 -0.0934
  741POPS   GL111311  17.361  14.142   6.274 -0.5341  0.0877  0.0978
  741POPS   GL211312  17.694  13.978   6.192 -0.0230  0.2234  0.0629
  741POPS   C1A11313  17.355  14.375   6.608  0.3217  0.2810 -0.0457
  741POPS   D2A11314  17.241  14.578   6.944  0.0423 -0.0767  0.1028
  741POPS   C3A11315  17.258  14.547   7.321 -0.0267 -0.1650 -0.0433
  741POPS   C4A11316  17.483  14.478   7.696  0.0427  0.0967  0.3446
  741POPS   C1B11317  17.754  14.065   6.664 -0.0879  0.2179 -0.1279
  741POPS   C2B11318  17.664  14.279   7.010 -0.1106  0.0623  0.1636
  741POPS   C3B11319  17.868  14.296   7.369 -0.1116  0.0568  0.1163
  741POPS   C4B11320  17.987  14.537   7.781 -0.0046 -0.1968 -0.1273
  742POPS   CNO11321   2.605  15.576   5.801  0.1621 -0.0678 -0.1284
  742POPS   PO411322   2.384  15.817   6.044 -0.2390 -0.1176 -0.1230
  742POPS   GL111323   2.206  15.632   6.346 -0.0007  0.0298 -0.1204
  742POPS   GL211324   2.108  15.857   6.512 -0.1032  0.0676 -0.1978
  742POPS   C1A11325   1.937  15.281   6.517 -0.1284 -0.1106 -0.0902
  742POPS   D2A11326   1.658  14.981   6.572 -0.1059 -0.2104 -0.0220
  742POPS   C3A11327   1.676  14.891   7.062  0.1174  0.0917  0.2686
  742POPS   C4A11328   1.501  15.084   7.461 -0.5456 -0.1193 -0.4043
  742POPS   C1B11329   1.726  15.947   6.697  0.3695 -0.1303 -0.1474
  742POPS   C2B11330   1.448  15.883   7.124  0.2153  0.1740 -0.0049
  742POPS   C3B11331   1.164  15.917   7.473 -0.1862 -0.0940 -0.1680
  742POPS   C4B11332   1.165  15.812   7.920 -0.0592 -0.2060  0.2140
  743POPS   CNO11333   0.894  17.559   6.175 -0.0021 -0.0917  0.0288
  743POPS   PO411334   1.377  17.585   6.256  0.1196  0.0887  0.0534
  743POPS   GL111335   1.365  17.637   6.733  0.0766  0.1326 -0.1322
  743POPS   GL211336   1.154  17.839   6.805 -0.0216  0.2689 -0.0326
  743POPS   C1A11337   1.415  17.317   6.995  0.0170 -0.3129 -0.0600
  743POPS   D2A11338   1.203  17.215   7.422 -0.2839  0.1631 -0.1848
  743POPS   C3A11339   1.235  17.476   7.729 -0.0495 -0.0013 -0.0512
  743POPS   C4A11340   1.278  17.639   8.128 -0.1266 -0.1231  0.1355
  743POPS   C1B11341   1.141  17.837   7.293 -0.0811 -0.2081 -0.4566
  743POPS   C2B11342   1.233  18.004   7.744  0.2056  0.0358  0.0901
  743POPS   C3B11343   1.455  18.156   8.009 -0.1707  0.0060  0.0650
  743POPS   C4B11344   1.505  18.488   8.228 -0.1566 -0.1383  0.1739
  744POPS   CNO11345   6.132  14.178   6.194  0.1156  0.0002 -0.0552
  744POPS   PO411346   6.304  13.818   6.102 -0.0189  0.0243 -0.0232
  744POPS   GL111347   6.127  13.600   6.313 -0.1436  0.0238 -0.0171
  744POPS   GL211348   5.780  13.444   6.384 -0.0728  0.2225  0.0788
  744POPS   C1A11349   6.214  13.301   6.590  0.0078 -0.1557 -0.1037
  744POPS   D2A11350   6.170  13.240   6.975  0.4161  0.0615  0.0386
  744POPS   C3A11351   6.284  13.207   7.436 -0.3619  0.0010 -0.2926
  744POPS   C4A11352   6.460  13.006   7.831 -0.1961 -0.0160  0.2183
  744POPS   C1B11353   5.512  13.548   6.795 -0.3078 -0.2834 -0.0145
  744POPS   C2B11354   5.436  13.506   7.237 -0.0952  0.1378  0.3133
  744POPS   C3B11355   5.342  13.384   7.676  0.1857 -0.0905  0.3160
  744POPS   C4B11356   5.100  13.518   8.054 -0.0555  0.2211  0.3802
  745POPS   CNO11357   8.566  12.344   5.728  0.0119 -0.0201 -0.0522
  745POPS   PO411358   8.429  12.416   6.247 -0.0000 -0.0203  0.0613
  745POPS   GL111359   8.376  12.543   6.612 -0.0346 -0.0818 -0.0282
  745POPS   GL211360   8.238  12.920   6.640  0.1675  0.2116  0.0305
  745POPS   C1A11361   8.428  12.587   7.076 -0.0520  0.1031  0.0182
  745POPS   D2A11362   8.311  12.664   7.486 -0.0032 -0.0545 -0.2123
  745POPS   C3A11363   8.416  12.937   7.905 -0.0941  0.3395  0.0808
  745POPS   C4A11364   8.653  12.833   8.357 -0.0414 -0.0739 -0.0933
  745POPS   C1B11365   8.044  12.932   7.032  0.1438  0.1808 -0.0870
  745POPS   C2B11366   7.943  12.953   7.500  0.1481 -0.1799 -0.0926
  745POPS   C3B11367   7.937  12.790   7.904  0.0328 -0.0443  0.2350
  745POPS   C4B11368   8.163  12.665   8.335  0.2120 -0.2165  0.1657
  746POPS   CNO11369  17.244  15.377   5.877  0.2772  0.1609  0.0434
  746POPS   PO411370  17.607  15.148   5.876  0.1096  0.2654 -0.2733
  746POPS   GL111371  17.550  15.039   6.224 -0.0198  0.0160 -0.2229
  746POPS   GL211372  17.447  15.280   6.330  0.3033 -0.3021  0.0009
  746POPS   C1A11373  17.202  14.818   6.454  0.1210 -0.2257  0.4152
  746POPS   D2A11374  16.852  14.998   6.679 -0.1167 -0.0532 -0.0483
  746POPS   C3A11375  16.829  14.969   7.109 -0.0714  0.0153  0.0011
  746POPS   C4A11376  16.800  14.783   7.547 -0.0212  0.2094  0.1227
  746POPS   C1B11377  17.395  15.190   6.718  0.1990 -0.1561 -0.6058
  746POPS   C2B11378  17.333  15.056   7.133 -0.2091 -0.1132  0.2850
  746POPS   C3B11379  17.285  15.029   7.596 -0.1731 -0.1714 -0.1968
  746POPS   C4B11380  17.046  14.929   8.029  0.0285 -0.1998  0.1847
  747POPS   CNO11381   9.261  11.813   6.131  0.4751  0.3452  0.2671
  747POPS   PO411382   9.321  12.298   6.139  0.1445  0.1430  0.0890
  747POPS   GL111383   9.372  12.059   6.597  0.0922  0.1909  0.0447
  747POPS   GL211384   9.382  12.326   6.670 -0.1094  0.1534 -0.4097
  747POPS   C1A11385   9.463  11.864   6.986 -0.2775 -0.1209  0.2558
  747POPS   D2A11386   9.484  11.553   7.205 -0.3599 -0.2973 -0.3420
  747POPS   C3A11387   9.418  11.504   7.611  0.2766 -0.0315 -0.0145
  747POPS   C4A11388   9.520  11.653   8.072  0.2540 -0.0514 -0.0525
  747POPS   C1B11389   9.454  12.377   7.191 -0.0788 -0.2447  0.3458
  747POPS   C2B11390   9.464  12.472   7.628 -0.0905 -0.2618  0.0663
  747POPS   C3B11391   9.198  12.423   7.990 -0.0311 -0.1140  0.1399
  747POPS   C4B11392   8.913  12.243   8.285 -0.2886  0.1091 -0.2100
  748POPS   CNO11393   2.095  10.472   5.481  0.0241  0.3664  0.1298
  748POPS   PO411394   2.326  10.757   5.741  0.1114 -0.0351 -0.1365
  748POPS   GL111395   2.329  10.579   6.148 -0.0251 -0.1403 -0.0902
  748POPS   GL211396   2.596  10.325   6.166  0.1220  0.3914  0.2050
  748POPS   C1A11397   2.349  10.480   6.561 -0.2781 -0.0702 -0.1130
  748POPS   D2A11398   2.121  10.595   6.914 -0.1789  0.3253  0.1603
  748POPS   C3A11399   2.346  10.604   7.347 -0.0545 -0.3182 -0.1276
  748POPS   C4A11400   2.554  10.439   7.759  0.2117  0.3141  0.2531
  748POPS   C1B11401   2.536  10.025   6.466 -0.2145 -0.0900  0.0946
  748POPS   C2B11402   2.780   9.756   6.590 -0.1046  0.0644 -0.0686
  748POPS   C3B11403   2.740   9.675   6.990 -0.1120  0.2127  0.0435
  748POPS   C4B11404   2.476   9.672   7.324 -0.1821  0.2226 -0.0450
  749POPS   CNO11405   7.563   3.737   5.763  0.0050  0.0799 -0.1133
  749POPS   PO411406   7.735   4.007   6.024 -0.1193  0.4282  0.1158
  749POPS   GL111407   7.529   4.046   6.423  0.0653  0.1354  0.1716
  749POPS   GL211408   7.251   3.802   6.608  0.2334  0.0814 -0.0255
  749POPS   C1A11409   7.655   3.950   6.912  0.1712 -0.0156  0.1577
  749POPS   D2A11410   7.668   3.637   7.308  0.1359  0.3456 -0.0456
  749POPS   C3A11411   7.587   3.704   7.834 -0.0118  0.0412  0.0926
  749POPS   C4A11412   7.447   3.847   8.211 -0.0463 -0.1236  0.1852
  749POPS   C1B11413   7.328   3.483   7.003 -0.1573 -0.1271  0.1030
  749POPS   C2B11414   7.280   3.451   7.491 -0.1419 -0.1522 -0.1866
  749POPS   C3B11415   7.112   3.727   7.816  0.0336 -0.0564 -0.1232
  749POPS   C4B11416   6.883   3.861   8.279  0.0848  0.2338  0.2049
  750POPS   CNO11417  15.812  17.209   6.225 -0.0946 -0.0660  0.2126
  750POPS   PO411418  15.409  17.152   6.285  0.0928 -0.0126 -0.1429
  750POPS   GL111419  15.463  17.391   6.642 -0.0932  0.0518 -0.1250
  750POPS   GL211420  15.827  17.501   6.676 -0.0215 -0.2490  0.5318
  750POPS   C1A11421  15.485  17.379   7.008  0.1568  0.0975 -0.1082
  750POPS   D2A11422  15.558  17.287   7.463 -0.0540 -0.1035  0.0641
  750POPS   C3A11423  15.228  16.955   7.561 -0.1354 -0.1862  0.2051
  750POPS   C4A11424  14.825  16.692   7.497  0.0212 -0.1516  0.3460
  750POPS   C1B11425  15.978  17.637   7.088  0.1828  0.0191  0.1511
  750POPS   C2B11426  15.966  17.584   7.571 -0.1495  0.1192  0.0332
  750POPS   C3B11427  15.689  17.825   7.927  0.1334  0.2135  0.3186
  750POPS   C4B11428  15.674  18.088   8.270 -0.0473  0.0821 -0.2855
  751POPS   CNO11429   3.187   5.640   6.254 -0.0474 -0.1139  0.1611
  751POPS   PO411430   3.079   5.362   6.456  0.0524 -0.3717 -0.0981
  751POPS   GL111431   3.243   5.507   6.835  0.3423  0.0807  0.0902
  751POPS   GL211432   3.481   5.765   6.915 -0.3199 -0.2446  0.2275
  751POPS   C1A11433   3.110   5.458   7.223 -0.0900 -0.3840 -0.1570
  751POPS   D2A11434   3.148   5.630   7.634 -0.0619  0.0557 -0.1179
  751POPS   C3A11435   2.997   5.452   7.933 -0.2162 -0.1340 -0.2998
  751POPS   C4A11436   3.124   5.176   8.330  0.0777  0.0231 -0.1380
  751POPS   C1B11437   3.759   5.869   7.161  0.0389  0.3656 -0.1221
  751POPS   C2B11438   4.016   5.978   7.569 -0.2075  0.2145 -0.0475
  751POPS   C3B11439   4.063   6.167   7.980  0.1670  0.0322  0.0166
  751POPS   C4B11440   4.120   6.355   8.346  0.0645  0.0396  0.1237
  752POPS   CNO11441   0.402  12.920   5.838 -0.2600 -0.0536 -0.1935
  752POPS   PO411442   0.092  13.004   5.609  0.2868 -0.0709  0.0185
  752POPS   GL111443  -0.050  12.876   6.019  0.0581 -0.1747 -0.0455
  752POPS   GL211444  -0.245  12.684   6.202 -0.1012  0.2571  0.2186
  752POPS   C1A11445  -0.060  13.069   6.485 -0.3411 -0.0539 -0.1682
  752POPS   D2A11446  -0.050  13.326   6.906  0.1583  0.1568 -0.0871
  752POPS   C3A11447  -0.201  13.306   7.312  0.1739 -0.1507  0.2499
  752POPS   C4A11448  -0.162  13.475   7.715  0.4132 -0.0008 -0.1518
  752POPS   C1B11449  -0.274  12.720   6.680  0.0640  0.0618 -0.1604
  752POPS   C2B11450  -0.195  12.873   7.022  0.1937  0.0134 -0.1032
  752POPS   C3B11451  -0.014  12.783   7.377  0.4362 -0.1814 -0.1766
  752POPS   C4B11452   0.063  13.039   7.733 -0.1514 -0.2465 -0.0107
  753POPS   CNO11453   3.277   4.465   5.950 -0.0130 -0.2323 -0.0199
  753POPS   PO411454   3.332   4.680   6.352 -0.2012  0.0862  0.0912
  753POPS   GL111455   3.023   4.848   6.746  0.2243  0.0916 -0.0620
  753POPS   GL211456   3.250   5.041   6.980 -0.1450  0.0323  0.1498
  753POPS   C1A11457   2.698   4.733   7.000 -0.3502 -0.3349 -0.2292
  753POPS   D2A11458   2.604   4.561   7.403 -0.0879  0.1665 -0.0026
  753POPS   C3A11459   2.891   4.625   7.766  0.1603  0.2241 -0.0319
  753POPS   C4A11460   3.173   4.761   8.075  0.0475 -0.0833 -0.2337
  753POPS   C1B11461   3.051   4.923   7.299  0.0045 -0.5102 -0.1456
  753POPS   C2B11462   3.124   5.083   7.701  0.0666  0.1198  0.3141
  753POPS   C3B11463   3.474   5.186   7.936  0.2582  0.2022 -0.0548
  753POPS   C4B11464   3.653   5.402   8.291 -0.0025  0.0662 -0.1249
  754POPS   CNO11465   1.032   5.088   5.772  0.2621  0.0752  0.2948
  754POPS   PO411466   1.138   4.675   6.074  0.0739 -0.0939 -0.0880
  754POPS   GL111467   1.086   4.875   6.466  0.0876  0.1871 -0.0720
  754POPS   GL211468   1.376   4.816   6.546 -0.0491 -0.1448 -0.1072
  754POPS   C1A11469   0.914   4.907   6.873  0.4013 -0.1807  0.3139
  754POPS   D2A11470   0.817   4.959   7.454 -0.2271 -0.2071  0.2554
  754POPS   C3A11471   1.002   4.884   7.838 -0.1948 -0.1319  0.1181
  754POPS   C4A11472   1.181   4.576   8.110 -0.2864 -0.1408 -0.1960
  754POPS   C1B11473   1.412   4.880   6.963  0.0805 -0.1294 -0.0771
  754POPS   C2B11474   1.426   4.852   7.277 -0.1291 -0.4410 -0.4521
  754POPS   C3B11475   1.499   4.705   7.675  0.3427  0.0519  0.1538
  754POPS   C4B11476   1.692   4.477   7.843  0.4092  0.1259  0.1855
  755POPS   CNO11477  12.189   7.303   6.287 -0.1086 -0.0875 -0.4050
  755POPS   PO411478  12.706   7.240   6.201 -0.2441  0.1260 -0.2351
  755POPS   GL111479  12.735   7.206   6.658  0.0883 -0.0122 -0.0269
  755POPS   GL211480  12.419   7.112   6.695  0.3352 -0.1988  0.1585
  755POPS   C1A11481  12.824   7.164   7.095 -0.2054  0.2658  0.0803
  755POPS   D2A11482  12.589   6.940   7.464 -0.0016 -0.0082  0.1807
  755POPS   C3A11483  12.735   6.882   7.888 -0.0333  0.7200 -0.2468
  755POPS   C4A11484  12.852   6.582   8.161  0.2743  0.1886 -0.1652
  755POPS   C1B11485  12.316   7.217   7.052  0.2189  0.1766  0.2121
  755POPS   C2B11486  12.167   7.388   7.426  0.1845 -0.2643 -0.1037
  755POPS   C3B11487  12.237   7.679   7.655  0.0833 -0.0734  0.0217
  755POPS   C4B11488  12.287   7.902   7.972  0.3092  0.2661 -0.0030
  756POPS   CNO11489   8.150   7.876   6.212  0.1232 -0.2235  0.4152
  756POPS   PO411490   7.984   7.820   6.586 -0.2343  0.1219 -0.1852
  756POPS   GL111491   8.226   7.636   6.764  0.2034  0.1900 -0.1941
  756POPS   GL211492   8.547   7.514   6.749  0.0745 -0.1139  0.0784
  756POPS   C1A11493   8.272   7.621   7.243  0.3631 -0.1480  0.1197
  756POPS   D2A11494   8.085   7.519   7.507  0.0296  0.0689  0.4687
  756POPS   C3A11495   8.199   7.748   7.954 -0.0817 -0.5624  0.3284
  756POPS   C4A11496   8.361   7.717   8.291 -0.0031  0.2206 -0.0410
  756POPS   C1B11497   8.834   7.413   7.122 -0.1769  0.1490 -0.0572
  756POPS   C2B11498   8.657   7.400   7.470  0.0796  0.5209  0.2476
  756POPS   C3B11499   8.529   7.437   7.786  0.1388  0.0420  0.1981
  756POPS   C4B11500   8.795   7.691   8.054  0.1804 -0.2936 -0.1365
  757POPS   CNO11501   3.364  17.731   5.995  0.1193 -0.0520 -0.3228
  757POPS   PO411502   3.044  17.978   6.107 -0.1618 -0.1469 -0.1997
  757POPS   GL111503   2.959  18.137   6.475 -0.0204  0.1553 -0.0975
  757POPS   GL211504   2.925  18.407   6.488  0.0896  0.2465  0.1201
  757POPS   C1A11505   3.075  17.951   6.845  0.1348  0.1733  0.1327
  757POPS   D2A11506   3.115  17.709   7.258  0.2565  0.1184 -0.1103
  757POPS   C3A11507   3.066  17.536   7.677 -0.0420 -0.2891 -0.0380
  757POPS   C4A11508   3.156  17.458   8.083  0.0200  0.1492 -0.1190
  757POPS   C1B11509   2.448  18.312   6.570 -0.2434 -0.3980  0.1866
  757POPS   C2B11510   2.212  17.984   6.730 -0.0796 -0.4031 -0.3077
  757POPS   C3B11511   2.257  17.831   7.189 -0.0046 -0.1654  0.2656
  757POPS   C4B11512   2.182  17.896   7.574 -0.2800  0.0891  0.0637
  758POPS   CNO11513  15.478   1.225   6.021 -0.0936 -0.1739 -0.1776
  758POPS   PO411514  15.867   1.087   6.178  0.1122  0.0629 -0.1937
  758POPS   GL111515  15.629   1.050   6.535 -0.0989  0.0898  0.0075
  758POPS   GL211516  15.485   1.374   6.493  0.0685  0.1819 -0.1945
  758POPS   C1A11517  15.693   0.713   6.971  0.0641 -0.1876  0.1212
  758POPS   D2A11518  15.687   0.898   7.302 -0.0597  0.0728  0.2572
  758POPS   C3A11519  15.972   0.743   7.548  0.1082 -0.2052  0.4077
  758POPS   C4A11520  16.177   0.884   7.815 -0.1026  0.4678 -0.1409
  758POPS   C1B11521  15.441   1.230   6.949  0.1163  0.3356  0.0627
  758POPS   C2B11522  15.440   1.278   7.323  0.1114  0.0664  0.0676
  758POPS   C3B11523  15.653   1.247   7.721 -0.4545 -0.2072 -0.0389
  758POPS   C4B11524  15.748   0.922   8.060  0.0501  0.1270 -0.1136
  759POPS   CNO11525   4.414  11.688   5.764  0.1104 -0.1320 -0.0721
  759POPS   PO411526   4.501  12.106   5.579 -0.1459  0.2281 -0.0173
  759POPS   GL111527   4.340  12.110   6.104  0.1445  0.0649 -0.0190
  759POPS   GL211528   4.424  11.918   6.233 -0.0999 -0.3968  0.0496
  759POPS   C1A11529   4.631  12.247   6.537  0.0023 -0.0870 -0.1075
  759POPS   D2A11530   4.594  12.362   6.877  0.2037  0.1888  0.1119
  759POPS   C3A11531   4.670  12.305   7.299 -0.2336  0.0907  0.1751
  759POPS   C4A11532   4.627  12.349   7.757  0.0133 -0.0781 -0.4467
  759POPS   C1B11533   4.338  11.811   6.742  0.0149  0.3335  0.1629
  759POPS   C2B11534   4.392  11.909   7.226 -0.0388 -0.1045  0.1064
  759POPS   C3B11535   4.527  11.849   7.665 -0.1271 -0.2520 -0.0910
  759POPS   C4B11536   4.384  11.920   7.991 -0.1334 -0.0196 -0.4385
  760POPS   CNO11537   2.335  13.885   6.121  0.3857  0.1033 -0.0568
  760POPS   PO411538   2.355  14.271   5.970  0.2609 -0.0799  0.1458
  760POPS   GL111539   2.089  14.324   6.250  0.1734  0.0147 -0.1864
  760POPS   GL211540   1.931  14.056   6.414  0.0393 -0.0249 -0.3349
  760POPS   C1A11541   2.016  14.423   6.698  0.0954  0.0931  0.0648
  760POPS   D2A11542   1.696  14.383   7.020  0.0296 -0.1413 -0.0604
  760POPS   C3A11543   1.698  14.575   7.491  0.0128  0.2279 -0.3442
  760POPS   C4A11544   1.735  14.718   7.915  0.0056  0.0636  0.0488
  760POPS   C1B11545   1.946  13.967   6.887  0.1805 -0.2229  0.2176
  760POPS   C2B11546   1.917  13.868   7.260  0.0833  0.1896 -0.2549
  760POPS   C3B11547   1.883  13.873   7.678 -0.0212 -0.3690  0.3383
  760POPS   C4B11548   1.837  14.107   7.950  0.0992  0.0677 -0.1296
  761POPS   CNO11549  13.183   0.966   6.005  0.1256 -0.0715 -0.0648
  761POPS   PO411550  13.340   1.308   6.111 -0.0090  0.3731  0.1336
  761POPS   GL111551  13.200   1.207   6.493 -0.0504 -0.0594 -0.1845
  761POPS   GL211552  13.542   1.214   6.635 -0.0757  0.2166  0.0643
  761POPS   C1A11553  13.090   1.292   6.927  0.0132 -0.2095  0.1057
  761POPS   D2A11554  13.046   1.715   7.070  0.1709 -0.1549 -0.0766
  761POPS   C3A11555  12.932   1.745   7.508  0.2125  0.1355 -0.2183
  761POPS   C4A11556  12.606   1.920   7.763  0.4930  0.0246 -0.0649
  761POPS   C1B11557  13.533   1.131   7.121 -0.0184 -0.1546  0.1554
  761POPS   C2B11558  13.571   1.070   7.536 -0.2882 -0.1676 -0.1373
  761POPS   C3B11559  13.406   1.025   7.988  0.2310  0.1366  0.1602
  761POPS   C4B11560  13.086   1.131   8.296  0.1354  0.0821  0.2727
  762POPS   CNO11561  10.869   8.415   5.964  0.2456 -0.2999  0.0606
  762POPS   PO411562  11.310   8.347   6.031 -0.0749  0.0262  0.2515
  762POPS   GL111563  11.430   8.401   6.480  0.0329  0.3087  0.1112
  762POPS   GL211564  11.400   8.125   6.607  0.1427  0.0162 -0.0037
  762POPS   C1A11565  11.324   8.595   6.915  0.2475  0.1261 -0.2860
  762POPS   D2A11566  11.425   8.909   7.267  0.0730  0.1012 -0.0593
  762POPS   C3A11567  11.152   9.035   7.666  0.0468 -0.1587 -0.0311
  762POPS   C4A11568  10.825   8.803   7.949  0.1936 -0.0500 -0.2450
  762POPS   C1B11569  11.900   8.149   6.720  0.1916 -0.2944  0.2234
  762POPS   C2B11570  12.199   8.209   6.926  0.1602  0.0890  0.2781
  762POPS   C3B11571  12.255   8.066   7.317  0.2021  0.2505  0.0892
  762POPS   C4B11572  11.898   8.076   7.620 -0.0330 -0.0361  0.1710
  763POPS   CNO11573   6.508  14.443   5.997 -0.0823 -0.1154  0.1678
  763POPS   PO411574   6.903  14.234   6.059  0.0123  0.0081 -0.0183
  763POPS   GL111575   6.969  14.469   6.442  0.0998  0.1544 -0.0010
  763POPS   GL211576   6.907  14.748   6.468 -0.0300  0.0223  0.1731
  763POPS   C1A11577   6.895  14.301   6.843  0.2492  0.1987  0.1918
  763POPS   D2A11578   6.566  14.053   7.047 -0.2620 -0.1486 -0.2300
  763POPS   C3A11579   6.416  14.153   7.399  0.1696  0.0200  0.1307
  763POPS   C4A11580   6.586  14.224   7.821  0.1850  0.0139  0.2018
  763POPS   C1B11581   6.704  14.780   6.902 -0.1339  0.0075 -0.0855
  763POPS   C2B11582   6.434  14.621   7.152 -0.0740  0.2401 -0.2940
  763POPS   C3B11583   6.212  14.556   7.552 -0.1832 -0.3479  0.1861
  763POPS   C4B11584   5.897  14.663   7.758  0.1795 -0.1088 -0.1291
  764POPS   CNO11585   0.007   4.023   6.314  0.0550 -0.1194 -0.0048
  764POPS   PO411586   0.335   4.268   6.154  0.2001 -0.2482 -0.1032
  764POPS   GL111587   0.322   4.523   6.446 -0.0213 -0.1882  0.0006
  764POPS   GL211588   0.627   4.636   6.597 -0.1091 -0.1650 -0.4175
  764POPS   C1A11589   0.197   4.519   6.867 -0.0393  0.0995 -0.2202
  764POPS   D2A11590  -0.002   4.528   7.297  0.0744 -0.1043 -0.1532
  764POPS   C3A11591   0.082   4.456   7.684 -0.0685  0.0297 -0.0912
  764POPS   C4A11592   0.234   4.343   8.098  0.0386 -0.2593 -0.2820
  764POPS   C1B11593   0.658   4.499   7.020  0.0168 -0.2057 -0.3872
  764POPS   C2B11594   0.499   4.499   7.386  0.3591  0.0487  0.0351
  764POPS   C3B11595   0.618   4.545   7.755  0.1112  0.0852  0.5655
  764POPS   C4B11596   0.664   4.589   8.173 -0.0884 -0.0228 -0.1322
  765POPS   CNO11597   8.078   5.009   6.215  0.2804  0.0332 -0.1373
  765POPS   PO411598   8.357   4.611   6.085 -0.3692  0.1762 -0.2734
  765POPS   GL111599   8.290   4.627   6.551  0.1870 -0.0382 -0.0621
  765POPS   GL211600   7.998   4.451   6.750  0.2466 -0.0415  0.0824
  765POPS   C1A11601   8.199   4.954   6.815  0.1031 -0.0956  0.0266
  765POPS   D2A11602   8.057   5.115   7.266  0.0651  0.2904 -0.1647
  765POPS   C3A11603   8.282   5.109   7.600 -0.1277  0.4121 -0.0324
  765POPS   C4A11604   8.373   4.840   7.871 -0.0559  0.1390 -0.0638
  765POPS   C1B11605   8.000   4.627   7.158 -0.1586 -0.1503  0.0195
  765POPS   C2B11606   7.971   4.658   7.653  0.0880  0.0194 -0.2070
  765POPS   C3B11607   7.798   4.972   7.894 -0.0019  0.3567 -0.0808
  765POPS   C4B11608   7.460   4.932   8.338 -0.2393  0.1528  0.0489
  766POPS   CNO11609   8.104   1.623   5.463  0.0283  0.0564 -0.1965
  766POPS   PO411610   8.153   1.747   5.910 -0.0076 -0.1773 -0.3376
  766POPS   GL111611   7.986   1.789   6.276 -0.2380  0.0816  0.0416
  766POPS   GL211612   7.853   1.511   6.481  0.0464  0.0515 -0.4277
  766POPS   C1A11613   8.037   1.966   6.737 -0.1538  0.3556 -0.0285
  766POPS   D2A11614   8.047   2.054   7.252 -0.0914  0.1077  0.0732
  766POPS   C3A11615   7.816   2.110   7.612  0.2299 -0.1747 -0.1089
  766POPS   C4A11616   7.507   2.183   7.843 -0.0213 -0.1158 -0.1110
  766POPS   C1B11617   8.009   1.490   6.930 -0.3740 -0.2640  0.0759
  766POPS   C2B11618   7.902   1.520   7.355  0.1616  0.1959  0.2186
  766POPS   C3B11619   7.962   1.638   7.714 -0.0465  0.3040  0.0655
  766POPS   C4B11620   7.683   1.793   8.074 -0.0178 -0.1376 -0.2473
  767POPS   CNO11621   7.736  16.843   5.672 -0.2986  0.3138  0.0980
  767POPS   PO411622   7.422  16.497   5.853  0.0975  0.2256  0.2160
  767POPS   GL111623   7.657  16.585   6.171  0.2764 -0.1101 -0.1952
  767POPS   GL211624   7.706  16.285   6.293  0.2229 -0.0309  0.6041
  767POPS   C1A11625   7.993  16.833   6.462 -0.1457  0.0457 -0.1790
  767POPS   D2A11626   8.216  16.977   6.937  0.2436  0.1417  0.0005
  767POPS   C3A11627   8.050  16.901   7.327  0.1730 -0.0366 -0.1718
  767POPS   C4A11628   7.885  17.083   7.722 -0.0465 -0.3041  0.0251
  767POPS   C1B11629   7.777  16.158   6.650  0.0543  0.2020  0.4497
  767POPS   C2B11630   7.764  16.052   7.142  0.2896 -0.2083  0.0741
  767POPS   C3B11631   7.800  15.988   7.572  0.2976  0.0909  0.0875
  767POPS   C4B11632   8.107  16.078   7.916  0.0745 -0.0915  0.1446
  768POPS   CNO11633   8.423  10.795   5.846  0.1308  0.0045  0.1759
  768POPS   PO411634   8.236  10.871   6.056 -0.1890 -0.1458  0.2477
  768POPS   GL111635   8.322  10.847   6.500  0.0373  0.3564  0.1581
  768POPS   GL211636   8.659  10.727   6.669  0.0734 -0.0418  0.1266
  768POPS   C1A11637   8.286  11.090   6.978 -0.1369  0.0151 -0.1498
  768POPS   D2A11638   8.512  11.261   7.201  0.0042  0.3896 -0.1589
  768POPS   C3A11639   8.471  11.191   7.652 -0.2292 -0.1231  0.1089
  768POPS   C4A11640   8.624  11.348   8.021  0.2959 -0.3187  0.1322
  768POPS   C1B11641   8.708  10.786   7.040 -0.1166  0.0843  0.0282
  768POPS   C2B11642   8.822  10.878   7.456  0.1744 -0.1609  0.1160
  768POPS   C3B11643   8.795  10.912   7.867 -0.1372 -0.0149  0.0550
  768POPS   C4B11644   8.873  10.608   8.054  0.0285 -0.2149  0.0748
  769POPS   CNO11645  10.627  16.461   5.647  0.0179 -0.0190 -0.1197
  769POPS   PO411646  10.743  16.107   5.790 -0.0644  0.0874 -0.2402
  769POPS   GL111647  10.590  16.014   6.262 -0.0640  0.0122 -0.0933
  769POPS   GL211648  10.903  15.859   6.437  0.1535 -0.1765  0.0621
  769POPS   C1A11649  10.339  15.885   6.716  0.3665  0.2685  0.0736
  769POPS   D2A11650  10.104  15.726   7.099 -0.0899 -0.0747  0.0564
  769POPS   C3A11651  10.132  15.599   7.599 -0.2186  0.3144 -0.1805
  769POPS   C4A11652  10.250  15.362   7.912  0.1384  0.0505  0.0579
  769POPS   C1B11653  11.013  15.442   6.528  0.2862  0.1579  0.0208
  769POPS   C2B11654  11.160  15.330   7.000  0.3174  0.2332 -0.0863
  769POPS   C3B11655  11.218  15.371   7.397  0.0517  0.1963 -0.2781
  769POPS   C4B11656  11.200  15.370   7.787 -0.2431 -0.1022 -0.1511
  770POPS   CNO11657   5.810   9.066   6.080  0.2019 -0.2341 -0.1130
  770POPS   PO411658   6.188   9.228   6.217 -0.1398 -0.3348  0.0771
  770POPS   GL111659   6.458   9.352   6.529 -0.3062  0.2377 -0.1909
  770POPS   GL211660   6.609   9.110   6.547  0.1177  0.0701 -0.2680
  770POPS   C1A11661   6.504   9.397   6.966 -0.0421 -0.0334  0.3410
  770POPS   D2A11662   6.467   9.649   7.367  0.1905  0.1473  0.4087
  770POPS   C3A11663   6.387   9.780   7.806 -0.2905 -0.0754 -0.0337
  770POPS   C4A11664   6.378   9.817   8.164 -0.3040 -0.0711 -0.0961
  770POPS   C1B11665   6.948   9.037   6.808  0.1253  0.0212  0.1940
  770POPS   C2B11666   7.290   9.179   6.871 -0.1550  0.1869  0.0474
  770POPS   C3B11667   7.482   9.641   6.965  0.0512 -0.1734  0.3312
  770POPS   C4B11668   7.565  10.012   7.122 -0.1186 -0.1746 -0.0289
  771POPS   CNO11669   5.863   8.243   5.876 -0.2265 -0.1018  0.0757
  771POPS   PO411670   6.154   8.240   6.150  0.0053 -0.2123  0.0664
  771POPS   GL111671   6.343   8.261   6.588  0.2639 -0.4256 -0.0648
  771POPS   GL211672   6.143   8.444   6.710 -0.2388  0.0836  0.1180
  771POPS   C1A11673   6.548   8.023   6.853  0.2022 -0.3427 -0.0940
  771POPS   D2A11674   6.725   8.010   7.338 -0.0808  0.0697 -0.0749
  771POPS   C3A11675   6.623   8.237   7.673  0.1528 -0.3413  0.0266
  771POPS   C4A11676   6.652   8.554   7.978 -0.1330  0.1277  0.2058
  771POPS   C1B11677   6.259   8.419   7.140  0.0148 -0.0105 -0.1467
  771POPS   C2B11678   6.305   8.594   7.596  0.1528  0.0168 -0.2822
  771POPS   C3B11679   6.472   9.009   7.841 -0.0204  0.0211 -0.1594
  771POPS   C4B11680   6.631   9.329   7.891  0.0042 -0.0201 -0.1541
  772POPS   CNO11681  14.051   3.917   5.656  0.0031  0.1465 -0.1138
  772POPS   PO411682  14.177   4.140   6.050 -0.1974  0.0639  0.1550
  772POPS   GL111683  14.457   4.089   6.380 -0.3831 -0.0098 -0.0682
  772POPS   GL211684  14.725   4.304   6.263  0.6104 -0.0910 -0.1408
  772POPS   C1A11685  14.487   3.853   6.739  0.2075 -0.2419  0.0898
  772POPS   D2A11686  14.558   3.946   7.174  0.1297 -0.1826 -0.1424
  772POPS   C3A11687  14.607   3.926   7.599 -0.0104 -0.0809 -0.1891
  772POPS   C4A11688  14.287   3.932   7.874 -0.0234  0.1785 -0.0600
  772POPS   C1B11689  14.633   4.364   6.743 -0.1970  0.1060  0.0348
  772POPS   C2B11690  14.500   4.417   7.221 -0.2450  0.2403 -0.2106
  772POPS   C3B11691  14.457   4.485   7.672 -0.2023 -0.0654  0.0339
  772POPS   C4B11692  14.511   4.390   8.051  0.1361  0.3738 -0.3319
  773POPS   CNO11693  15.091   7.077   5.412 -0.0498 -0.2568  0.0736
  773POPS   PO411694  15.004   7.060   5.832 -0.0478  0.2271  0.0451
  773POPS   GL111695  14.919   7.239   6.157  0.1128 -0.1885  0.0228
  773POPS   GL211696  15.004   7.461   6.242  0.0457  0.0123  0.2442
  773POPS   C1A11697  14.850   7.113   6.583 -0.1474 -0.1292  0.3596
  773POPS   D2A11698  14.584   7.156   6.844  0.0439 -0.1061  0.1532
  773POPS   C3A11699  14.541   6.938   7.136  0.1929  0.0091  0.0993
  773POPS   C4A11700  14.360   6.820   7.454 -0.0126 -0.0710 -0.0840
  773POPS   C1B11701  15.099   7.542   6.646  0.0868 -0.0954  0.1995
  773POPS   C2B11702  15.043   7.844   6.923  0.1720  0.0713  0.2110
  773POPS   C3B11703  14.968   7.915   7.316 -0.0593  0.2349 -0.0801
  773POPS   C4B11704  15.022   8.057   7.775 -0.2096  0.4444 -0.1710
  774POPS   CNO11705  10.557   2.384   5.714  0.0498 -0.0798  0.2674
  774POPS   PO411706  10.881   2.309   6.134  0.2031  0.0868  0.0008
  774POPS   GL111707  10.525   2.246   6.434 -0.1182 -0.2350 -0.1945
  774POPS   GL211708  10.359   2.002   6.482 -0.0448  0.2027 -0.0696
  774POPS   C1A11709  10.613   2.339   6.767 -0.0166 -0.1118 -0.1472
  774POPS   D2A11710  10.583   2.348   7.176 -0.2290  0.0545  0.0912
  774POPS   C3A11711  10.578   2.123   7.499  0.1189  0.1358  0.2457
  774POPS   C4A11712  10.408   1.857   7.741  0.1475 -0.3385  0.1447
  774POPS   C1B11713  10.403   1.860   6.977  0.0115  0.0465 -0.3026
  774POPS   C2B11714  10.326   1.571   7.298 -0.0999 -0.2230 -0.1934
  774POPS   C3B11715  10.192   1.441   7.691  0.3391 -0.0178  0.1970
  774POPS   C4B11716  10.079   1.305   8.003  0.0369 -0.1819 -0.0255
  775POPS   CNO11717   7.693  17.820   5.701  0.0387  0.0857  0.0728
  775POPS   PO411718   7.541  18.010   6.072  0.0866  0.0786 -0.3529
  775POPS   GL111719   7.599  17.985   6.453 -0.1385 -0.0413 -0.3545
  775POPS   GL211720   7.894  17.871   6.608  0.3036  0.0754  0.0738
  775POPS   C1A11721   7.586  18.148   6.899 -0.0292  0.2758 -0.1551
  775POPS   D2A11722   7.739  18.289   7.376 -0.0213 -0.1487  0.2825
  775POPS   C3A11723   7.851  18.119   7.748 -0.0500 -0.2840  0.1187
  775POPS   C4A11724   8.071  18.035   8.262 -0.0279  0.1049 -0.0350
  775POPS   C1B11725   8.037  17.963   7.016  0.0390  0.1010 -0.1362
  775POPS   C2B11726   8.141  17.983   7.374 -0.3608  0.2567 -0.2168
  775POPS   C3B11727   8.301  17.826   7.805 -0.3092 -0.0569 -0.0028
  775POPS   C4B11728   8.568  17.625   8.133  0.0726 -0.0739  0.3680
  776POPS   CNO11729   3.014   7.331   6.367  0.0885  0.2264 -0.1002
  776POPS   PO411730   2.946   6.904   6.454 -0.1699 -0.0716 -0.2756
  776POPS   GL111731   2.657   6.908   6.762 -0.1325 -0.0637 -0.1314
  776POPS   GL211732   2.515   6.618   6.826 -0.0679 -0.1014  0.0129
  776POPS   C1A11733   2.553   7.078   7.212  0.0653  0.0499 -0.0166
  776POPS   D2A11734   2.596   7.395   7.547  0.0324 -0.2064 -0.0267
  776POPS   C3A11735   2.890   7.645   7.436 -0.3325 -0.1128  0.1435
  776POPS   C4A11736   3.309   7.712   7.310  0.0280  0.2191 -0.0820
  776POPS   C1B11737   2.218   6.647   7.182  0.2656  0.0363 -0.0921
  776POPS   C2B11738   2.313   6.716   7.592 -0.1263 -0.1839 -0.1433
  776POPS   C3B11739   2.173   7.114   7.712 -0.0348  0.2145 -0.0693
  776POPS   C4B11740   1.995   7.231   8.054  0.1109  0.1678  0.1923
  777POPS   CNO11741  15.806  10.134   5.879  0.0391 -0.2507 -0.1382
  777POPS   PO411742  15.868  10.459   5.750 -0.0136  0.0702  0.0959
  777POPS   GL111743  16.028  10.530   6.128 -0.2081  0.6349  0.0125
  777POPS   GL211744  16.274  10.126   6.161  0.2827  0.0718  0.0043
  777POPS   C1A11745  16.284  10.690   6.448 -0.0473  0.0114 -0.1094
  777POPS   D2A11746  16.359  10.989   6.698 -0.1872  0.3843  0.1937
  777POPS   C3A11747  16.011  10.877   6.879 -0.1266 -0.1610  0.2429
  777POPS   C4A11748  15.873  10.537   7.073  0.0637 -0.1147 -0.1049
  777POPS   C1B11749  16.493  10.254   6.514 -0.1255  0.1635  0.0049
  777POPS   C2B11750  16.598  10.465   6.855  0.1306  0.0993 -0.0051
  777POPS   C3B11751  16.361  10.637   7.213 -0.0277  0.1293 -0.2345
  777POPS   C4B11752  16.005  10.822   7.434 -0.0573  0.1892 -0.1786
  778POPS   CNO11753  17.603  13.829   5.733 -0.2936  0.1374 -0.0882
  778POPS   PO411754  17.419  13.450   5.805  0.2934  0.1856  0.0050
  778POPS   GL111755  17.501  13.523   6.256 -0.2226  0.1603  0.0824
  778POPS   GL211756  17.226  13.671   6.293  0.1242  0.2797  0.1965
  778POPS   C1A11757  17.790  13.549   6.475  0.3172  0.5231 -0.1775
  778POPS   D2A11758  18.102  13.793   6.890 -0.0082  0.0919  0.0844
  778POPS   C3A11759  18.168  14.234   6.943 -0.0477  0.3177  0.1139
  778POPS   C4A11760  18.211  14.609   7.233  0.0593 -0.0675 -0.0406
  778POPS   C1B11761  17.311  13.643   6.776 -0.1564 -0.2127  0.1001
  778POPS   C2B11762  17.610  13.699   7.027 -0.0521 -0.1127  0.2456
  778POPS   C3B11763  17.807  13.816   7.312  0.0755  0.0527 -0.0212
  778POPS   C4B11764  18.079  13.909   7.563  0.0000 -0.2004  0.2638
  779POPS   CNO11765   9.982  15.366   5.717 -0.0181 -0.0084  0.0436
  779POPS   PO411766   9.996  15.736   6.008  0.1830 -0.0612 -0.0526
  779POPS   GL111767   9.933  15.705   6.439 -0.2934 -0.0906  0.2811
  779POPS   GL211768  10.313  15.458   6.333 -0.0761  0.2236  0.1639
  779POPS   C1A11769   9.909  16.093   6.807  0.1563 -0.2016 -0.1960
  779POPS   D2A11770  10.134  16.190   7.130 -0.0736 -0.0526  0.1162
  779POPS   C3A11771  10.057  16.118   7.581 -0.0819  0.1535 -0.1046
  779POPS   C4A11772   9.657  16.271   7.672  0.1984 -0.2316 -0.2676
  779POPS   C1B11773  10.585  15.385   6.723 -0.1796 -0.2155 -0.3363
  779POPS   C2B11774  10.480  15.416   7.132  0.0331  0.0087  0.1655
  779POPS   C3B11775  10.685  15.515   7.607  0.1839  0.1241  0.2337
  779POPS   C4B11776  10.939  15.863   7.649 -0.2393 -0.1853  0.1348
  780POPS   CNO11777   3.687   9.425   5.923  0.3657 -0.1505 -0.2561
  780POPS   PO411778   3.363   9.290   6.179  0.0750 -0.4303  0.2247
  780POPS   GL111779   3.196   9.174   6.534  0.2106 -0.1872 -0.1705
  780POPS   GL211780   3.002   8.895   6.565 -0.1028  0.0949 -0.0153
  780POPS   C1A11781   3.048   9.222   6.947 -0.2913 -0.3099 -0.0986
  780POPS   D2A11782   3.051   9.353   7.337 -0.1717 -0.0361 -0.0870
  780POPS   C3A11783   2.805   9.516   7.631 -0.2993 -0.1922  0.0215
  780POPS   C4A11784   2.401   9.504   7.849  0.0089 -0.1573 -0.3495
  780POPS   C1B11785   2.736   8.808   6.848 -0.0622  0.1240 -0.0829
  780POPS   C2B11786   2.900   8.806   7.253  0.1979 -0.0931  0.2678
  780POPS   C3B11787   3.088   8.600   7.588 -0.0413 -0.1365 -0.2733
  780POPS   C4B11788   3.260   8.430   7.994 -0.0782  0.0058 -0.0441
  781POPS   CNO11789   4.950  12.943   5.519  0.2784 -0.0404 -0.0897
  781POPS   PO411790   5.141  13.007   5.885 -0.1534 -0.0342 -0.1681
  781POPS   GL111791   5.392  12.996   6.353 -0.4771 -0.1445  0.0243
  781POPS   GL211792   5.284  13.367   6.416 -0.2513  0.0077  0.1958
  781POPS   C1A11793   5.254  13.002   6.862  0.0707  0.0392 -0.0852
  781POPS   D2A11794   5.208  12.959   7.261  0.1115  0.1531 -0.1139
  781POPS   C3A11795   4.990  12.768   7.596 -0.1060 -0.0907  0.0755
  781POPS   C4A11796   5.030  12.658   8.031 -0.0658 -0.1842 -0.0973
  781POPS   C1B11797   5.019  13.421   6.746  0.0377  0.2396  0.0358
  781POPS   C2B11798   4.965  13.361   7.224  0.0859  0.0515 -0.0781
  781POPS   C3B11799   4.767  13.194   7.608 -0.0170 -0.0696  0.0865
  781POPS   C4B11800   4.790  13.134   8.133  0.1439 -0.0985  0.1044
  782POPS   CNO11801  16.505   5.629   5.662  0.1394  0.0145 -0.0010
  782POPS   PO411802  16.033   5.710   5.646  0.0087 -0.0670  0.0925
  782POPS   GL111803  15.986   5.848   6.142 -0.0729 -0.0912 -0.1740
  782POPS   GL211804  15.920   5.659   6.328  0.0340 -0.0404 -0.0288
  782POPS   C1A11805  16.222   6.046   6.431  0.0002 -0.2592  0.1569
  782POPS   D2A11806  16.654   5.997   6.783  0.4346 -0.3854 -0.1315
  782POPS   C3A11807  16.715   6.136   7.205 -0.0397  0.0020 -0.2262
  782POPS   C4A11808  16.913   6.058   7.569  0.1648  0.0969  0.0898
  782POPS   C1B11809  15.840   5.724   6.645 -0.2713 -0.1184 -0.2891
  782POPS   C2B11810  15.848   5.687   7.066  0.0088 -0.0833 -0.0446
  782POPS   C3B11811  15.693   5.952   7.471 -0.2577  0.1175  0.1561
  782POPS   C4B11812  15.451   6.172   7.719 -0.3371  0.3466  0.0601
  783POPS   CNO11813   7.183  17.896   5.708 -0.2400  0.1652  0.2486
  783POPS   PO411814   6.861  17.725   5.962  0.0052  0.0462  0.5448
  783POPS   GL111815   6.604  17.628   6.358 -0.0369  0.0317 -0.1151
  783POPS   GL211816   6.406  17.398   6.308 -0.2527 -0.1661  0.0235
  783POPS   C1A11817   6.621  17.747   6.737  0.1091  0.2393 -0.0512
  783POPS   D2A11818   6.869  17.541   7.196  0.1461  0.0903  0.1449
  783POPS   C3A11819   6.695  17.584   7.566  0.0139 -0.0805  0.2299
  783POPS   C4A11820   6.837  17.943   7.756  0.0242 -0.2862 -0.2185
  783POPS   C1B11821   6.287  17.032   6.519  0.0282  0.0213 -0.3395
  783POPS   C2B11822   6.509  16.775   6.922 -0.0061  0.0916  0.0833
  783POPS   C3B11823   6.521  16.748   7.309  0.1147  0.0180 -0.0923
  783POPS   C4B11824   6.400  16.770   7.705  0.0411 -0.0482 -0.2926
  784POPS   CNO11825  13.348   9.876   5.497  0.0736  0.3249 -0.2590
  784POPS   PO411826  13.238   9.550   5.852 -0.0710  0.0486 -0.2070
  784POPS   GL111827  13.236   9.360   6.202 -0.2031  0.1361 -0.2509
  784POPS   GL211828  13.192   9.498   6.498  0.0946  0.2705  0.1088
  784POPS   C1A11829  13.489   9.121   6.452 -0.0071 -0.1219 -0.0362
  784POPS   D2A11830  13.495   8.716   6.634 -0.2056  0.1088 -0.1187
  784POPS   C3A11831  13.571   8.817   7.130 -0.0347  0.0423 -0.2904
  784POPS   C4A11832  13.584   9.015   7.593  0.3328 -0.0131  0.1812
  784POPS   C1B11833  13.279   9.724   6.952 -0.4323  0.2605 -0.0983
  784POPS   C2B11834  13.249   9.806   7.326  0.1788  0.2245 -0.1576
  784POPS   C3B11835  13.364   9.921   7.701  0.2228  0.0540  0.0150
  784POPS   C4B11836  13.679   9.984   7.959 -0.0099 -0.0044 -0.0557
  785POPS   CNO11837  13.683  14.998   5.957  0.0020  0.2250 -0.1606
  785POPS   PO411838  13.865  15.412   5.735 -0.0639 -0.0590 -0.1950
  785POPS   GL111839  13.767  15.427   6.224 -0.3720 -0.1093  0.0869
  785POPS   GL211840  13.560  15.652   6.418 -0.0497  0.1591  0.0353
  785POPS   C1A11841  13.860  15.350   6.680 -0.0151 -0.1168  0.0651
  785POPS   D2A11842  13.681  15.452   7.022  0.3366 -0.1120 -0.2486
  785POPS   C3A11843  13.809  15.609   7.390 -0.1392  0.3605 -0.0924
  785POPS   C4A11844  14.076  15.583   7.730  0.0332 -0.0749 -0.0180
  785POPS   C1B11845  13.621  15.913   6.791 -0.1036  0.1450  0.0469
  785POPS   C2B11846  13.645  16.009   7.167 -0.0722  0.2720  0.4012
  785POPS   C3B11847  13.534  16.076   7.627  0.1380 -0.2600 -0.4081
  785POPS   C4B11848  13.307  16.310   7.886 -0.2267  0.0422 -0.2552
  786POPS   CNO11849  10.623  14.699   5.957  0.2003 -0.3103 -0.0506
  786POPS   PO411850  10.294  14.782   6.196 -0.2902 -0.1647  0.1649
  786POPS   GL111851  10.083  14.921   6.557 -0.1919 -0.0765 -0.0998
  786POPS   GL211852   9.793  14.864   6.502  0.1299  0.1380  0.0822
  786POPS   C1A11853  10.063  15.133   6.912  0.0046 -0.1636  0.0996
  786POPS   D2A11854   9.895  15.270   7.252  0.1068 -0.2686 -0.0598
  786POPS   C3A11855   9.908  15.032   7.621 -0.0120  0.2022 -0.1917
  786POPS   C4A11856   9.930  14.852   8.034  0.2557 -0.5098 -0.0767
  786POPS   C1B11857   9.597  14.979   6.775 -0.0841 -0.1098  0.2362
  786POPS   C2B11858   9.455  15.193   7.038  0.1677  0.1272  0.0177
  786POPS   C3B11859   9.167  15.542   7.139  0.1314  0.2294  0.0547
  786POPS   C4B11860   8.923  15.943   7.193 -0.1368 -0.0204 -0.2043
  787POPS   CNO11861  10.008  11.957   5.844 -0.0444  0.4602 -0.3289
  787POPS   PO411862  10.268  12.208   6.185  0.1293 -0.4038  0.1335
  787POPS   GL111863  10.306  12.314   6.626 -0.1245 -0.0261 -0.1082
  787POPS   GL211864  10.079  12.006   6.687  0.2595  0.0818 -0.1211
  787POPS   C1A11865  10.323  12.486   7.085 -0.0997  0.3955 -0.1207
  787POPS   D2A11866  10.351  12.525   7.539 -0.0576 -0.1578 -0.0240
  787POPS   C3A11867  10.466  12.680   7.893 -0.0725 -0.2325  0.0796
  787POPS   C4A11868  10.570  12.474   8.284 -0.0748  0.0080 -0.1839
  787POPS   C1B11869  10.011  12.132   7.126 -0.2528  0.0743  0.2033
  787POPS   C2B11870  10.273  12.080   7.468 -0.1997 -0.3285  0.1247
  787POPS   C3B11871  10.408  12.153   7.875 -0.1959  0.0311  0.0508
  787POPS   C4B11872  10.653  12.032   8.130 -0.0944  0.2279 -0.0814
  788POPS   CNO11873  14.641  14.787   5.579  0.1966  0.2466 -0.2001
  788POPS   PO411874  15.046  14.564   5.638  0.3150 -0.2113  0.1908
  788POPS   GL111875  15.211  14.612   6.088  0.0988  0.3142  0.0215
  788POPS   GL211876  14.916  14.786   6.175  0.0339 -0.0736 -0.3103
  788POPS   C1A11877  15.270  14.224   6.321  0.0150  0.0248  0.0366
  788POPS   D2A11878  15.179  13.958   6.683 -0.2253 -0.0186  0.0391
  788POPS   C3A11879  15.518  13.784   7.044  0.2078  0.0320 -0.0144
  788POPS   C4A11880  15.778  13.469   7.025  0.2493  0.3916  0.0651
  788POPS   C1B11881  14.634  14.726   6.541  0.1648  0.3013 -0.1656
  788POPS   C2B11882  14.562  14.803   6.967  0.3696 -0.3322  0.1407
  788POPS   C3B11883  14.479  14.798   7.379  0.0247 -0.0998  0.0801
  788POPS   C4B11884  14.505  14.637   7.786 -0.1653  0.1000 -0.0672
  789POPS   CNO11885   5.222   5.747   5.802 -0.2636  0.3023 -0.1986
  789POPS   PO411886   5.151   5.739   6.241 -0.1470 -0.2741 -0.4337
  789POPS   GL111887   5.417   5.594   6.622  0.1299  0.0458  0.1000
  789POPS   GL211888   5.678   5.757   6.675 -0.1179 -0.1832 -0.1173
  789POPS   C1A11889   5.217   5.488   6.947 -0.1251  0.0515  0.1731
  789POPS   D2A11890   4.844   5.238   7.054 -0.0734  0.1619 -0.0136
  789POPS   C3A11891   4.542   5.419   7.073  0.0341  0.0947  0.1261
  789POPS   C4A11892   4.060   5.539   7.314 -0.3405  0.1179  0.0245
  789POPS   C1B11893   5.759   5.698   7.123 -0.2147 -0.0054  0.2057
  789POPS   C2B11894   5.887   5.623   7.548 -0.0437  0.2394 -0.1288
  789POPS   C3B11895   6.079   5.580   7.912 -0.1884  0.0999  0.1585
  789POPS   C4B11896   6.230   5.757   8.298 -0.3189 -0.1967 -0.0555
  790POPS   CNO11897  17.182   1.045   5.924  0.1266  0.1606 -0.1285
  790POPS   PO411898  16.747   1.130   5.918 -0.2144 -0.4593  0.1480
  790POPS   GL111899  16.920   1.171   6.297 -0.0600 -0.1947  0.0148
  790POPS   GL211900  16.813   1.484   6.534  0.0518  0.1627 -0.0409
  790POPS   C1A11901  16.977   1.026   6.781 -0.1264  0.1036  0.3855
  790POPS   D2A11902  16.845   0.879   7.056 -0.1112  0.1785  0.0614
  790POPS   C3A11903  16.923   0.763   7.506  0.0128 -0.0442 -0.1002
  790POPS   C4A11904  16.999   0.885   7.829  0.0716 -0.0326 -0.1078
  790POPS   C1B11905  17.043   1.579   6.852  0.0727  0.1320  0.2439
  790POPS   C2B11906  17.140   1.356   7.177 -0.1989 -0.2084 -0.0819
  790POPS   C3B11907  17.027   1.289   7.579 -0.2613  0.0684  0.1869
  790POPS   C4B11908  17.004   1.400   7.966 -0.2830 -0.4107  0.0220
  791YOPS   CNO11909  10.154  10.677   6.115 -0.1881 -0.1431 -0.3581
  791YOPS   PO411910  10.435  10.760   5.899  0.2367  0.0423 -0.1959
  791YOPS   GL111911  10.538  10.869   6.374  0.2956 -0.0177  0.1701
  791YOPS   GL211912  10.800  10.969   6.548  0.2940  0.4312 -0.0245
  791YOPS   C1A11913  10.384  11.243   6.532 -0.0080 -0.1715  0.1010
  791YOPS   D2A11914  10.458  11.477   6.781 -0.1429 -0.2373 -0.0739
  791YOPS   C3A11915  10.453  11.834   6.975 -0.0519  0.3806 -0.1068
  791YOPS   C4A11916  10.539  11.674   7.328 -0.0956 -0.0132  0.2615
  791YOPS   C1B11917  10.539  10.957   6.894 -0.0903 -0.0392  0.1386
  791YOPS   C2B11918  10.658  10.788   7.272 -0.0522  0.0446 -0.2764
  791YOPS   D3B11919  10.617  10.708   7.695  0.1873  0.1486 -0.0790
  791YOPS   C4B11920  11.030  10.565   7.928 -0.0852 -0.0082  0.1166
  792YOPS   CNO11921   9.960   3.623   5.693  0.1094  0.1916  0.1474
  792YOPS   PO411922  10.245   3.977   5.896 -0.1680 -0.0107 -0.2059
  792YOPS   GL111923  10.287   4.017   6.254 -0.0450 -0.0207  0.0875
  792YOPS   GL211924  10.594   4.152   6.244  0.2933  0.1110 -0.2184
  792YOPS   C1A11925  10.097   4.164   6.647 -0.0896  0.1354  0.0976
  792YOPS   D2A11926  10.207   3.997   7.047 -0.0208 -0.2063  0.0242
  792YOPS   C3A11927  10.277   3.894   7.492 -0.1140  0.2653 -0.2146
  792YOPS   C4A11928  10.190   4.096   7.867 -0.1554  0.4741  0.3488
  792YOPS   C1B11929  10.582   3.930   6.655  0.0623 -0.2549  0.0030
  792YOPS   C2B11930  10.716   3.990   7.017 -0.2948 -0.1367  0.0367
  792YOPS   D3B11931  10.981   4.261   7.292 -0.0260  0.0605 -0.0510
  792YOPS   C4B11932  11.048   4.496   7.591 -0.3733  0.2638  0.0123
  793YOPS   CNO11933  13.435  11.110   5.906  0.0897  0.0965  0.3856
  793YOPS   PO411934  13.786  11.271   5.849  0.1470 -0.0806  0.0208
  793YOPS   GL111935  13.792  11.410   6.251 -0.0165  0.1809  0.1432
  793YOPS   GL211936  13.720  11.674   6.326  0.1454 -0.0606 -0.1463
  793YOPS   C1A11937  13.760  11.155   6.615  0.1488  0.0967  0.0473
  793YOPS   D2A11938  13.751  11.073   6.979  0.2728  0.2522  0.0631
  793YOPS   C3A11939  13.833  11.208   7.316  0.1089  0.1871  0.2414
  793YOPS   C4A11940  13.572  10.910   7.574 -0.2910  0.1623 -0.2226
  793YOPS   C1B11941  13.853  11.609   6.706 -0.2696 -0.5041  0.1761
  793YOPS   C2B11942  13.807  11.700   7.159 -0.1145 -0.2551  0.1304
  793YOPS   D3B11943  13.960  11.643   7.587 -0.1863 -0.0863  0.0469
  793YOPS   C4B11944  13.950  11.618   8.099 -0.0327  0.1446 -0.0369
  794YOPS   CNO11945   5.606  12.749   5.958  0.3282 -0.2537 -0.1281
  794YOPS   PO411946   5.936  12.936   5.735  0.1687  0.0630  0.0486
  794YOPS   GL111947   5.997  13.001   6.267  0.2735  0.2390 -0.0980
  794YOPS   GL211948   6.244  12.874   6.366 -0.0187 -0.1168  0.0232
  794YOPS   C1A11949   5.754  13.085   6.703  0.2735  0.1977  0.2194
  794YOPS   D2A11950   5.668  13.141   7.116  0.0306 -0.1749  0.1418
  794YOPS   C3A11951   5.759  13.125   7.568  0.0322 -0.1816  0.0377
  794YOPS   C4A11952   5.577  13.012   7.889  0.0236  0.0268 -0.4765
  794YOPS   C1B11953   6.249  12.805   6.812  0.0917 -0.2891  0.1243
  794YOPS   C2B11954   6.127  12.749   7.204 -0.0961 -0.4050  0.2669
  794YOPS   D3B11955   6.107  12.690   7.536 -0.0102  0.0568 -0.0030
  794YOPS   C4B11956   6.331  12.395   7.771  0.0017  0.0168  0.3815
  795YOPS   CNO11957   8.633   5.033   6.260  0.0924  0.0790  0.0491
  795YOPS   PO411958   9.043   5.054   6.320  0.0032 -0.2903  0.1392
  795YOPS   GL111959   8.943   5.224   6.653 -0.0288  0.0323 -0.0835
  795YOPS   GL211960   8.605   5.328   6.726  0.1607  0.0093  0.2690
  795YOPS   C1A11961   8.935   5.098   7.107 -0.3165 -0.0114  0.0753
  795YOPS   D2A11962   8.767   4.994   7.513 -0.0256 -0.2709 -0.1597
  795YOPS   C3A11963   8.866   4.777   7.899 -0.0837  0.3324 -0.2917
  795YOPS   C4A11964   8.766   4.511   8.247  0.1666  0.1157  0.0586
  795YOPS   C1B11965   8.484   5.302   7.064 -0.0540  0.0887  0.2186
  795YOPS   C2B11966   8.389   5.560   7.397 -0.3929  0.1247  0.0563
  795YOPS   D3B11967   8.542   5.788   7.740  0.3383  0.2813 -0.1419
  795YOPS   C4B11968   8.489   6.129   8.105 -0.0775 -0.0099 -0.0318
  796YOPS   CNO11969   3.348  16.365   5.447 -0.0054  0.1432 -0.0543
  796YOPS   PO411970   3.686  16.465   5.752  0.2435  0.2026 -0.0951
  796YOPS   GL111971   3.700  16.583   6.151  0.1112  0.0390  0.0568
  796YOPS   GL211972   3.578  16.349   6.333 -0.3396 -0.1077  0.0047
  796YOPS   C1A11973   3.564  16.842   6.568  0.2391  0.1335  0.0152
  796YOPS   D2A11974   3.599  16.924   6.998  0.0618  0.0218  0.3277
  796YOPS   C3A11975   3.720  17.001   7.442  0.3417 -0.2000 -0.0334
  796YOPS   C4A11976   3.292  17.056   7.643 -0.1023 -0.2044 -0.2869
  796YOPS   C1B11977   3.457  16.371   6.670  0.1044  0.0061  0.0066
  796YOPS   C2B11978   3.522  16.462   7.172 -0.1292 -0.0421 -0.1555
  796YOPS   D3B11979   3.462  16.537   7.613  0.0458  0.0726  0.1548
  796YOPS   C4B11980   3.690  16.779   7.935 -0.1052 -0.0117 -0.0524
  797YOPS   CNO11981  10.251  16.951   5.680  0.0306  0.1536  0.0295
  797YOPS   PO411982  10.628  16.926   5.845 -0.2304 -0.2431 -0.2309
  797YOPS   GL111983  10.917  16.794   6.145  0.0911  0.0270 -0.4109
  797YOPS   GL211984  10.786  16.508   6.110 -0.0742  0.0731 -0.2684
  797YOPS   C1A11985  11.074  16.865   6.523 -0.1433  0.1881  0.0390
  797YOPS   D2A11986  11.393  16.859   6.692 -0.2895  0.5050 -0.1957
  797YOPS   C3A11987  11.623  16.817   7.103  0.0763  0.0255  0.3055
  797YOPS   C4A11988  11.347  16.888   7.468  0.2585 -0.0572 -0.3989
  797YOPS   C1B11989  10.761  16.417   6.502 -0.1516 -0.0324 -0.4411
  797YOPS   C2B11990  10.734  16.257   6.897  0.0124  0.4783  0.0222
  797YOPS   D3B11991  10.912  16.218   7.318 -0.1554  0.2888  0.0969
  797YOPS   C4B11992  10.981  16.541   7.449 -0.1165  0.1000  0.0648
  798YOPS   CNO11993   0.032  10.764   6.355 -0.0901 -0.0710  0.2958
  798YOPS   PO411994   0.117  11.114   6.271 -0.1717  0.0912 -0.3747
  798YOPS   GL111995   0.215  11.180   6.740  0.3924 -0.0222  0.0563
  798YOPS   GL211996   0.323  10.888   6.768  0.0501  0.0152 -0.1121
  798YOPS   C1A11997   0.299  11.375   7.184 -0.1231 -0.2139 -0.0406
  798YOPS   D2A11998   0.196  11.493   7.663 -0.1527 -0.1076  0.0376
  798YOPS   C3A11999   0.028  11.755   8.050  0.1265 -0.0091  0.0755
  798YOPS   C4A12000  -0.127  11.697   8.367  0.2027 -0.2812  0.1010
  798YOPS   C1B12001   0.214  10.895   7.216 -0.1811  0.0876 -0.1146
  798YOPS   C2B12002   0.154  10.957   7.673  0.2346 -0.1019  0.0329
  798YOPS   D3B12003   0.182  10.808   8.089  0.0917 -0.3740  0.0029
  798YOPS   C4B12004   0.011  10.478   8.230 -0.1131  0.0532 -0.1802
  799YOPS   CNO12005  10.354   3.019   5.821 -0.1272 -0.3222 -0.1138
  799YOPS   PO412006  10.231   3.053   6.197  0.1998 -0.0269  0.2216
  799YOPS   GL112007  10.470   3.243   6.483 -0.1722  0.2214  0.3803
  799YOPS   GL212008  10.654   3.020   6.644 -0.1324  0.1010  0.0699
  799YOPS   C1A12009  10.865   3.483   6.594 -0.0917 -0.0473  0.1353
  799YOPS   D2A12010  11.095   3.720   6.770  0.0331  0.0098 -0.1696
  799YOPS   C3A12011  11.108   3.643   7.160  0.0361  0.0815  0.0843
  799YOPS   C4A12012  11.192   3.772   7.482 -0.1038 -0.1712  0.1851
  799YOPS   C1B12013  10.454   2.814   6.963  0.1048 -0.2013 -0.0741
  799YOPS   C2B12014  10.687   2.855   7.337 -0.0306 -0.2241  0.1123
  799YOPS   D3B12015  10.746   2.977   7.731 -0.0208 -0.0414  0.1491
  799YOPS   C4B12016  10.512   2.822   8.145 -0.2414  0.4791 -0.1470
  800YOPS   CNO12017   2.864  16.987   5.936 -0.2816  0.1114 -0.0700
  800YOPS   PO412018   2.503  17.041   6.028  0.1123 -0.4189 -0.2065
  800YOPS   GL112019   2.701  17.061   6.447  0.0682  0.3029  0.1359
  800YOPS   GL212020   3.044  16.887   6.539  0.2539  0.1629  0.0898
  800YOPS   C1A12021   2.701  17.064   6.872 -0.1325  0.1542  0.3174
  800YOPS   D2A12022   2.503  16.956   7.301 -0.3232  0.1152 -0.0795
  800YOPS   C3A12023   2.281  16.791   7.760  0.1021 -0.3252  0.4797
  800YOPS   C4A12024   1.803  16.819   7.843  0.1262 -0.1079  0.2137
  800YOPS   C1B12025   3.079  16.715   7.041 -0.2652 -0.0156 -0.3566
  800YOPS   C2B12026   2.995  16.294   7.229  0.2161  0.1278 -0.1612
  800YOPS   D3B12027   2.906  16.092   7.535  0.0752  0.0278 -0.1551
  800YOPS   C4B12028   2.692  15.675   7.664 -0.0434 -0.0328 -0.0524
  801YOPS   CNO12029   8.524   0.322   6.143 -0.1331  0.1392 -0.2338
  801YOPS   PO412030   8.867   0.437   6.002 -0.2226  0.0236  0.2583
  801YOPS   GL112031   8.870   0.445   6.505 -0.2452 -0.0813  0.0216
  801YOPS   GL212032   8.675   0.257   6.655 -0.0777 -0.1142  0.1586
  801YOPS   C1A12033   8.989   0.519   6.957  0.0864  0.0750 -0.2006
  801YOPS   D2A12034   9.065   0.505   7.326  0.2809  0.0695 -0.0272
  801YOPS   C3A12035   8.930   0.544   7.666 -0.0709 -0.1123 -0.0453
  801YOPS   C4A12036   8.909   0.209   7.899  0.1160  0.2994 -0.0598
  801YOPS   C1B12037   8.579   0.198   7.091  0.3056 -0.1550 -0.0043
  801YOPS   C2B12038   8.571   0.254   7.470 -0.0659  0.0749 -0.0274
  801YOPS   D3B12039   8.383   0.326   7.892 -0.3729 -0.0381 -0.0459
  801YOPS   C4B12040   8.545   0.205   8.312 -0.0161  0.1320  0.3351
  802YOPS   CNO12041  17.170  12.563   6.034 -0.0143 -0.0715 -0.1585
  802YOPS   PO412042  17.341  12.333   6.157 -0.2345  0.1578 -0.1946
  802YOPS   GL112043  17.232  12.488   6.546  0.0083 -0.0264  0.0523
  802YOPS   GL212044  16.966  12.722   6.585 -0.0586  0.1649 -0.0460
  802YOPS   C1A12045  17.326  12.502   6.957 -0.0322  0.0276 -0.0287
  802YOPS   D2A12046  17.329  12.612   7.342 -0.2313  0.1393  0.1110
  802YOPS   C3A12047  17.560  12.878   7.621  0.1032  0.0226 -0.0916
  802YOPS   C4A12048  17.194  13.142   7.770 -0.0117  0.0420 -0.0103
  802YOPS   C1B12049  16.890  12.857   7.042 -0.3239  0.2795 -0.0951
  802YOPS   C2B12050  16.906  12.869   7.495  0.1620 -0.0034  0.1205
  802YOPS   D3B12051  16.828  12.812   7.871 -0.2283  0.1139  0.1391
  802YOPS   C4B12052  16.512  12.657   7.795 -0.1974  0.2164  0.2901
  803YOPS   CNO12053  11.909   0.758   6.056  0.3167 -0.0979  0.2320
  803YOPS   PO412054  11.913   1.189   6.186  0.0799  0.4143 -0.0186
  803YOPS   GL112055  12.146   1.319   6.586  0.2022 -0.2213 -0.0172
  803YOPS   GL212056  12.449   1.399   6.561  0.2358  0.1048 -0.0212
  803YOPS   C1A12057  12.097   1.296   7.075  0.1733 -0.3520  0.0674
  803YOPS   D2A12058  12.111   1.154   7.528 -0.2235  0.3619  0.0441
  803YOPS   C3A12059  12.196   0.969   7.938  0.2242 -0.1409  0.2274
  803YOPS   C4A12060  12.653   1.019   7.928 -0.1154  0.0411  0.0947
  803YOPS   C1B12061  12.568   1.407   7.018 -0.2221  0.0082  0.0677
  803YOPS   C2B12062  12.788   1.341   7.355 -0.0172 -0.3244 -0.1390
  803YOPS   D3B12063  13.022   1.269   7.689 -0.0879  0.1863  0.3162
  803YOPS   C4B12064  13.288   1.535   7.910  0.0552  0.1186  0.2899
  804YOPS   CNO12065  10.243   6.533   5.798  0.1622 -0.1625  0.2924
  804YOPS   PO412066  10.109   6.601   6.193  0.3801  0.2131  0.1714
  804YOPS   GL112067   9.871   6.710   6.602  0.0684  0.0369  0.3068
  804YOPS   GL212068   9.568   6.575   6.722 -0.1498 -0.1088  0.0421
  804YOPS   C1A12069   9.791   6.851   7.084 -0.0156 -0.0168 -0.0929
  804YOPS   D2A12070   9.897   7.005   7.469  0.0519 -0.2676  0.0268
  804YOPS   C3A12071  10.227   7.320   7.654 -0.0204 -0.0423  0.1040
  804YOPS   C4A12072  10.431   7.145   8.052 -0.0735  0.0385 -0.0352
  804YOPS   C1B12073   9.626   6.376   7.141  0.0304 -0.0744 -0.0845
  804YOPS   C2B12074   9.760   6.259   7.585 -0.0058 -0.4169 -0.1810
  804YOPS   D3B12075   9.808   6.522   7.985 -0.1331 -0.0294  0.0657
  804YOPS   C4B12076   9.954   7.002   8.000  0.0200 -0.1784 -0.3570
  805YOPS   CNO12077   3.532  11.919   5.858 -0.0981 -0.1349 -0.2028
  805YOPS   PO412078   3.080  11.914   5.958 -0.0940  0.3893  0.2024
  805YOPS   GL112079   3.152  12.197   6.259  0.1118 -0.1134 -0.5364
  805YOPS   GL212080   2.834  12.133   6.404  0.0535 -0.0425 -0.0715
  805YOPS   C1A12081   3.145  12.499   6.586 -0.0367 -0.0377  0.0198
  805YOPS   D2A12082   3.152  12.952   6.581 -0.0466 -0.0550  0.1754
  805YOPS   C3A12083   3.157  13.331   6.755  0.0511  0.0880  0.0978
  805YOPS   C4A12084   3.217  13.300   7.197  0.2405  0.1440 -0.3222
  805YOPS   C1B12085   2.730  12.214   6.879  0.0642 -0.1848  0.0206
  805YOPS   C2B12086   2.717  12.403   7.393  0.1581  0.2535 -0.1029
  805YOPS   D3B12087   2.979  12.650   7.771  0.0672 -0.1631  0.2198
  805YOPS   C4B12088   3.363  12.570   7.880  0.3226 -0.1494 -0.1868
  806YOPS   CNO12089  15.314  12.744   5.607 -0.2955  0.1647 -0.0885
  806YOPS   PO412090  15.439  12.725   6.072  0.0431  0.1006  0.1630
  806YOPS   GL112091  15.137  12.677   6.394  0.2989 -0.3584  0.0414
  806YOPS   GL212092  14.826  12.530   6.240 -0.1718 -0.0968  0.3839
  806YOPS   C1A12093  15.116  12.562   6.845  0.1366 -0.0322  0.0215
  806YOPS   D2A12094  15.083  12.566   7.286  0.2951 -0.1249  0.3117
  806YOPS   C3A12095  14.903  12.665   7.663 -0.2464 -0.1968  0.2355
  806YOPS   C4A12096  14.589  12.381   7.901 -0.3826 -0.0637  0.1707
  806YOPS   C1B12097  14.813  12.230   6.551 -0.0882 -0.0678 -0.0830
  806YOPS   C2B12098  14.818  12.196   7.001 -0.0596  0.2859  0.0723
  806YOPS   D3B12099  14.812  12.116   7.401  0.0048  0.2513  0.0024
  806YOPS   C4B12100  14.530  11.884   7.676 -0.1466  0.0872  0.1274
  807YOPS   CNO12101  16.215   4.305   5.920  0.1553 -0.0050 -0.0614
  807YOPS   PO412102  16.490   3.959   6.087  0.2462 -0.0137 -0.2076
  807YOPS   GL112103  16.744   4.067   6.467  0.0180 -0.0553  0.1067
  807YOPS   GL212104  16.770   4.395   6.515  0.2011 -0.0710 -0.0244
  807YOPS   C1A12105  16.772   4.041   6.961 -0.1814  0.2028  0.1372
  807YOPS   D2A12106  16.619   4.167   7.398 -0.1000  0.1230 -0.0399
  807YOPS   C3A12107  16.653   4.320   7.736 -0.1333 -0.2325 -0.3587
  807YOPS   C4A12108  16.427   4.410   8.019  0.4249  0.1434 -0.2410
  807YOPS   C1B12109  16.751   4.607   6.896  0.0875  0.3598 -0.0428
  807YOPS   C2B12110  16.652   4.666   7.315  0.2581  0.1322 -0.1117
  807YOPS   D3B12111  16.865   4.855   7.581 -0.1869 -0.0664 -0.2918
  807YOPS   C4B12112  16.737   4.784   7.981  0.2658 -0.1632  0.2039
  808YOPS   CNO12113  10.011   1.016   6.109 -0.1710 -0.0373  0.1623
  808YOPS   PO412114  10.368   0.963   5.930  0.0886 -0.2684 -0.2614
  808YOPS   GL112115  10.487   0.677   6.260  0.2388  0.0620 -0.2823
  808YOPS   GL212116  10.246   0.503   6.408 -0.3904  0.0023 -0.2367
  808YOPS   C1A12117  10.773   0.470   6.510  0.0087  0.4469 -0.0539
  808YOPS   D2A12118  11.224   0.341   6.574 -0.0188 -0.0161 -0.5027
  808YOPS   C3A12119  11.376   0.142   6.854 -0.1458 -0.1906 -0.1352
  808YOPS   C4A12120  11.257   0.192   7.218  0.1187 -0.2127 -0.1045
  808YOPS   C1B12121  10.433   0.536   6.843 -0.3347 -0.0700  0.0842
  808YOPS   C2B12122  10.489   0.492   7.301  0.0270  0.0916 -0.0615
  808YOPS   D3B12123  10.520   0.354   7.636  0.0147 -0.3114  0.1294
  808YOPS   C4B12124  10.704   0.614   7.945  0.2024 -0.3300 -0.1413
  809YOPS   CNO12125   8.951  12.632   5.993 -0.1954 -0.0368 -0.0986
  809YOPS   PO412126   9.006  13.062   6.289  0.1665 -0.0647  0.1844
  809YOPS   GL112127   8.789  13.333   6.586  0.2153  0.1210  0.1826
  809YOPS   GL212128   8.678  13.108   6.713 -0.0263  0.0469 -0.2530
  809YOPS   C1A12129   8.641  13.562   7.004  0.0056 -0.1705  0.0429
  809YOPS   D2A12130   8.476  13.724   7.424  0.1861 -0.0043 -0.0341
  809YOPS   C3A12131   8.418  13.946   7.767  0.0910  0.0270  0.0420
  809YOPS   C4A12132   8.189  14.191   8.052 -0.0068  0.2112  0.1378
  809YOPS   C1B12133   8.503  13.090   7.123 -0.0484  0.1214 -0.1673
  809YOPS   C2B12134   8.368  13.201   7.506  0.1087 -0.0997  0.0635
  809YOPS   D3B12135   8.292  13.465   7.857 -0.2026 -0.1118 -0.0168
  809YOPS   C4B12136   8.200  13.223   8.271  0.2424 -0.3074 -0.0473
  810YOPS   CNO12137   4.935   6.996   6.090  0.0532  0.0410  0.0301
  810YOPS   PO412138   5.197   6.918   6.456  0.0498  0.0700 -0.1153
  810YOPS   GL112139   5.244   7.056   6.887 -0.0001  0.2747 -0.1080
  810YOPS   GL212140   5.152   7.343   6.919  0.0002  0.2594  0.2644
  810YOPS   C1A12141   5.430   7.071   7.271  0.3546  0.1099  0.0126
  810YOPS   D2A12142   5.637   7.142   7.590 -0.2446 -0.0382  0.3482
  810YOPS   C3A12143   5.607   7.308   7.960 -0.2011 -0.0146 -0.2188
  810YOPS   C4A12144   5.738   7.013   8.327 -0.0940 -0.3369 -0.0641
  810YOPS   C1B12145   5.268   7.514   7.354  0.2344  0.0185  0.2005
  810YOPS   C2B12146   5.314   7.651   7.749  0.0267 -0.0631  0.3086
  810YOPS   D3B12147   5.252   7.861   8.093 -0.1973  0.1677 -0.0227
  810YOPS   C4B12148   5.508   7.549   8.373 -0.2267  0.0360 -0.0957
  811YOPS   CNO12149   1.040   5.980   5.803 -0.1171  0.2351  0.2135
  811YOPS   PO412150   1.314   6.333   5.878  0.1106 -0.0449  0.2322
  811YOPS   GL112151   1.252   6.328   6.330  0.3768 -0.4333  0.0383
  811YOPS   GL212152   0.957   6.216   6.253  0.1240  0.1252  0.0997
  811YOPS   C1A12153   1.093   6.485   6.709  0.1727 -0.0272 -0.1834
  811YOPS   D2A12154   0.936   6.280   7.021  0.1164  0.5143 -0.1872
  811YOPS   C3A12155   1.280   5.948   7.250  0.0290 -0.2512 -0.1638
  811YOPS   C4A12156   1.201   5.756   7.711 -0.1611 -0.0416 -0.2784
  811YOPS   C1B12157   0.722   6.070   6.574  0.0369 -0.2082  0.2695
  811YOPS   C2B12158   0.694   5.805   6.931 -0.1538 -0.1144 -0.1288
  811YOPS   D3B12159   0.829   5.875   7.447  0.2028  0.0421  0.0097
  811YOPS   C4B12160   1.117   6.224   7.682 -0.0371  0.0169 -0.0824
  812YOPS   CNO12161   4.605  15.610   6.218  0.0913 -0.0100  0.1028
  812YOPS   PO412162   4.300  15.632   5.916  0.0484 -0.1727 -0.0971
  812YOPS   GL112163   4.046  15.490   6.314 -0.0116 -0.0196  0.1492
  812YOPS   GL212164   4.115  15.678   6.538 -0.1409 -0.0613 -0.2043
  812YOPS   C1A12165   3.925  15.233   6.611  0.0115  0.0411 -0.1580
  812YOPS   D2A12166   4.093  15.298   7.057 -0.3321 -0.1962 -0.0443
  812YOPS   C3A12167   4.001  15.704   7.336  0.1424  0.0726  0.1844
  812YOPS   C4A12168   3.707  15.676   7.657 -0.1612  0.0414 -0.1078
  812YOPS   C1B12169   4.267  15.735   6.914 -0.0044 -0.0371  0.1120
  812YOPS   C2B12170   4.476  15.531   7.328  0.2427  0.2151 -0.0337
  812YOPS   D3B12171   4.675  15.692   7.740  0.1646 -0.0059  0.3711
  812YOPS   C4B12172   4.919  16.166   7.753  0.1022 -0.1045 -0.2517
  813YOPS   CNO12173   0.377   9.078   5.789  0.1241  0.1345  0.0368
  813YOPS   PO412174   0.686   9.296   6.046 -0.2072 -0.0085 -0.2067
  813YOPS   GL112175   0.284   9.121   6.320 -0.1004 -0.0428 -0.0501
  813YOPS   GL212176   0.067   9.365   6.387 -0.2305 -0.6070 -0.0371
  813YOPS   C1A12177   0.122   8.999   6.761 -0.0738 -0.0692 -0.2058
  813YOPS   D2A12178   0.034   9.005   7.315 -0.1202 -0.1111  0.2795
  813YOPS   C3A12179   0.151   9.060   7.776 -0.1716  0.0438 -0.1742
  813YOPS   C4A12180   0.203   9.224   8.247 -0.2907  0.0575  0.2517
  813YOPS   C1B12181  -0.054   9.584   6.756 -0.1405  0.0398  0.3658
  813YOPS   C2B12182  -0.089   9.503   7.161 -0.1302 -0.1731  0.1262
  813YOPS   D3B12183  -0.143   9.447   7.581  0.0178  0.1149  0.0225
  813YOPS   C4B12184  -0.076   9.733   8.033 -0.0924 -0.1800  0.0726
  814YOPS   CNO12185   5.071   0.518   5.795 -0.0397  0.0495  0.1098
  814YOPS   PO412186   4.967   0.156   6.035  0.2348 -0.0552 -0.0737
  814YOPS   GL112187   5.046   0.056   6.416  0.1662  0.1348  0.0762
  814YOPS   GL212188   5.202  -0.133   6.497  0.2392  0.1522  0.0134
  814YOPS   C1A12189   4.866   0.220   6.761  0.1238 -0.0577 -0.0035
  814YOPS   D2A12190   4.770   0.372   7.182  0.2282 -0.1159 -0.2333
  814YOPS   C3A12191   4.885   0.263   7.617 -0.0825  0.1619 -0.1082
  814YOPS   C4A12192   4.830   0.042   7.968  0.1944 -0.0120  0.0224
  814YOPS   C1B12193   5.151  -0.119   6.989  0.0683  0.3340 -0.1424
  814YOPS   C2B12194   5.233  -0.343   7.339 -0.0364  0.1433  0.1636
  814YOPS   D3B12195   5.263  -0.796   7.467 -0.1092 -0.2978  0.0894
  814YOPS   C4B12196   5.311  -0.875   7.964 -0.3381  0.0154 -0.3852
  815YOPS   CNO12197   9.527   6.938   6.283  0.3199 -0.1707 -0.1518
  815YOPS   PO412198   9.306   6.565   6.250 -0.0617  0.0278 -0.3060
  815YOPS   GL112199   9.153   6.914   6.597 -0.0471 -0.3119  0.2173
  815YOPS   GL212200   8.895   7.054   6.666 -0.1442  0.1614  0.0281
  815YOPS   C1A12201   9.286   6.912   7.074  0.0222  0.2255  0.0206
  815YOPS   D2A12202   9.497   6.744   7.456  0.1834  0.0401 -0.1403
  815YOPS   C3A12203   9.422   6.812   7.874 -0.2793 -0.1663 -0.3071
  815YOPS   C4A12204   9.131   6.781   8.034 -0.0079  0.0051 -0.0457
  815YOPS   C1B12205   8.765   6.868   7.033  0.3351  0.4046 -0.0063
  815YOPS   C2B12206   8.425   6.954   7.295 -0.5253 -0.0600  0.2711
  815YOPS   D3B12207   8.165   7.017   7.610 -0.4173 -0.0626 -0.0547
  815YOPS   C4B12208   8.104   7.238   7.931  0.0055  0.1247 -0.0372
  816YOPS   CNO12209  16.352   3.516   5.949 -0.0530  0.2022  0.0183
  816YOPS   PO412210  16.742   3.253   6.177  0.0192 -0.3147 -0.0401
  816YOPS   GL112211  16.810   3.285   6.670 -0.0785 -0.0989  0.1093
  816YOPS   GL212212  16.979   3.690   6.679 -0.2211  0.0157  0.2644
  816YOPS   C1A12213  16.859   3.202   7.047 -0.0587  0.1287  0.0323
  816YOPS   D2A12214  16.601   3.165   7.244 -0.2991 -0.3180 -0.0506
  816YOPS   C3A12215  16.191   3.076   7.346 -0.1553 -0.1233 -0.2975
  816YOPS   C4A12216  16.065   2.927   7.757  0.2108  0.0102  0.1430
  816YOPS   C1B12217  16.994   3.672   7.088  0.0815  0.1347  0.2070
  816YOPS   C2B12218  16.833   3.504   7.466 -0.0392  0.0246 -0.0628
  816YOPS   D3B12219  16.629   3.384   7.806  0.1951  0.0321 -0.1234
  816YOPS   C4B12220  16.828   3.288   8.217 -0.2204  0.0192 -0.3131
  817YOPS   CNO12221   6.338   5.370   6.057  0.2441  0.3244  0.3729
  817YOPS   PO412222   5.910   5.244   5.861  0.1362 -0.3814  0.3245
  817YOPS   GL112223   5.865   5.117   6.272 -0.0497  0.1237 -0.2440
  817YOPS   GL212224   5.839   5.372   6.381 -0.0100  0.3287  0.0104
  817YOPS   C1A12225   5.578   5.043   6.654 -0.1152  0.0056 -0.2298
  817YOPS   D2A12226   5.616   5.214   7.102  0.1445 -0.3249 -0.0073
  817YOPS   C3A12227   5.317   5.266   7.368 -0.2809 -0.0041 -0.2302
  817YOPS   C4A12228   4.957   5.006   7.463  0.0725  0.0974  0.2917
  817YOPS   C1B12229   6.008   5.357   6.807  0.0290  0.1315  0.1378
  817YOPS   C2B12230   6.176   5.314   7.188 -0.1626  0.1112  0.1740
  817YOPS   D3B12231   6.134   5.167   7.631 -0.2548 -0.0536  0.0260
  817YOPS   C4B12232   5.951   4.911   7.915  0.2921  0.0669 -0.0382
  818YOPS   CNO12233   0.579  17.093   5.991 -0.1367  0.1113 -0.1341
  818YOPS   PO412234   0.609  17.145   6.292  0.0651  0.1438  0.0125
  818YOPS   GL112235   1.005  17.306   6.585  0.1658 -0.1764 -0.0862
  818YOPS   GL212236   0.853  17.423   6.732  0.1545 -0.0580 -0.0750
  818YOPS   C1A12237   1.057  17.001   6.855 -0.0330  0.0292  0.0049
  818YOPS   D2A12238   1.228  16.821   7.125 -0.2017 -0.0788 -0.1360
  818YOPS   C3A12239   1.423  16.744   7.544  0.3031  0.2830  0.1211
  818YOPS   C4A12240   1.165  16.403   7.701  0.2141 -0.4333  0.1882
  818YOPS   C1B12241   0.940  17.433   7.103  0.0952 -0.0231 -0.1411
  818YOPS   C2B12242   0.815  17.523   7.505 -0.3070  0.1319  0.1232
  818YOPS   D3B12243   0.792  17.674   7.935 -0.1923 -0.1519  0.3053
  818YOPS   C4B12244   0.889  17.307   8.233  0.1102 -0.0877  0.4930
  819YOPS   CNO12245  12.556   5.392   5.881  0.1023 -0.1730  0.2255
  819YOPS   PO412246  12.885   5.663   5.836  0.0972 -0.3521 -0.0581
  819YOPS   GL112247  13.103   5.825   6.207 -0.0106 -0.0347  0.4214
  819YOPS   GL212248  13.375   5.695   6.287 -0.1516  0.0411 -0.2746
  819YOPS   C1A12249  12.981   5.728   6.562 -0.1211 -0.1658  0.0853
  819YOPS   D2A12250  12.860   5.581   6.916  0.1289  0.2604 -0.1266
  819YOPS   C3A12251  12.704   5.700   7.338 -0.0315  0.1709  0.0323
  819YOPS   C4A12252  12.701   5.560   7.771 -0.0932 -0.2845  0.1421
  819YOPS   C1B12253  13.494   5.676   6.761  0.0313  0.1319  0.1035
  819YOPS   C2B12254  13.629   5.600   7.245 -0.1903 -0.2709  0.2982
  819YOPS   D3B12255  13.970   5.558   7.588 -0.2299 -0.3489  0.3655
  819YOPS   C4B12256  13.934   5.958   7.814  0.3050 -0.0730 -0.2289
  820YOPS   CNO12257   5.375  13.845   6.024 -0.1409  0.2324  0.1538
  820YOPS   PO412258   5.154  14.146   6.180 -0.0369 -0.0296 -0.2901
  820YOPS   GL112259   5.051  13.908   6.549 -0.0422 -0.0765  0.1361
  820YOPS   GL212260   4.730  13.902   6.635  0.1621 -0.2773  0.1162
  820YOPS   C1A12261   5.079  13.864   7.030 -0.1293  0.2025 -0.0202
  820YOPS   D2A12262   5.065  13.822   7.442 -0.2769 -0.1863  0.0159
  820YOPS   C3A12263   5.159  13.994   7.844 -0.1703 -0.1732  0.0335
  820YOPS   C4A12264   4.855  14.140   8.129 -0.0647 -0.2505 -0.0087
  820YOPS   C1B12265   4.530  13.739   6.969  0.0229  0.0586 -0.0505
  820YOPS   C2B12266   4.501  13.682   7.379  0.1075  0.0211 -0.1254
  820YOPS   D3B12267   4.646  13.796   7.751  0.1751  0.1869  0.1284
  820YOPS   C4B12268   4.598  13.630   8.164  0.0504 -0.0789 -0.0671
  821POPE   NH312269   5.595   1.815   5.837 -0.3819 -0.0385 -0.0630
  821POPE   PO412270   5.336   1.511   5.627 -0.0267  0.2425 -0.2762
  821POPE   GL112271   5.209   1.579   6.041  0.3380  0.1113 -0.1519
  821POPE   GL212272   5.193   1.246   6.166 -0.2625  0.1614  0.0633
  821POPE   C1A12273   5.067   1.812   6.414 -0.2168  0.0104  0.2088
  821POPE   D2A12274   4.787   1.848   6.706 -0.2084  0.2676 -0.1766
  821POPE   C3A12275   4.764   1.893   7.190 -0.0314  0.1523  0.1097
  821POPE   C4A12276   4.892   2.010   7.654 -0.0457  0.0536 -0.2160
  821POPE   C1B12277   4.950   1.342   6.540 -0.0263 -0.2687  0.1333
  821POPE   C2B12278   4.745   1.387   6.976  0.2981 -0.1990  0.0315
  821POPE   C3B12279   4.621   1.299   7.459  0.0377  0.0573  0.0320
  821POPE   C4B12280   4.474   0.970   7.805 -0.2672 -0.2332 -0.0401
  822POPE   NH312281   2.152   5.765   6.344  0.2219  0.1567 -0.0748
  822POPE   PO412282   1.733   5.541   6.180  0.3639  0.0151  0.0929
  822POPE   GL112283   1.888   5.482   6.623 -0.1283 -0.1502 -0.0827
  822POPE   GL212284   1.817   5.680   6.774 -0.0350 -0.1794 -0.2462
  822POPE   C1A12285   1.784   5.237   7.055  0.2540 -0.1798 -0.2808
  822POPE   D2A12286   1.710   5.204   7.546 -0.1211 -0.0355 -0.0272
  822POPE   C3A12287   1.553   5.281   7.855 -0.2310  0.3335  0.2847
  822POPE   C4A12288   1.353   5.158   8.087  0.1287 -0.2785 -0.1212
  822POPE   C1B12289   1.716   5.756   7.050 -0.1102  0.2905  0.0582
  822POPE   C2B12290   1.676   5.741   7.519 -0.0613  0.0370  0.1343
  822POPE   C3B12291   1.657   5.739   8.015 -0.2630 -0.2242  0.2030
  822POPE   C4B12292   1.768   5.398   8.348 -0.0656 -0.0405  0.0858
  823POPE   NH312293   2.905   4.119   6.088  0.0341 -0.3825  0.1472
  823POPE   PO412294   3.347   4.009   6.149 -0.1588 -0.0258  0.0417
  823POPE   GL112295   3.575   3.891   6.601  0.0972  0.0862 -0.3939
  823POPE   GL212296   3.747   4.137   6.772 -0.1008 -0.2481  0.1073
  823POPE   C1A12297   3.488   3.847   7.087  0.1105 -0.0044  0.3151
  823POPE   D2A12298   3.203   3.820   7.514  0.1707 -0.2570 -0.0292
  823POPE   C3A12299   3.156   3.595   7.670  0.3968 -0.0610 -0.0132
  823POPE   C4A12300   3.300   3.192   7.694 -0.1638 -0.1478  0.0591
  823POPE   C1B12301   3.774   4.234   7.185  0.5550  0.0401  0.1185
  823POPE   C2B12302   3.789   4.183   7.542 -0.0498 -0.1153  0.0778
  823POPE   C3B12303   3.637   3.921   7.764  0.2202  0.0166  0.1919
  823POPE   C4B12304   3.561   3.498   7.990  0.0010 -0.0273 -0.0484
  824POPE   NH312305   5.555  10.558   6.073 -0.0746  0.1228 -0.4096
  824POPE   PO412306   5.083  10.551   6.013 -0.2150  0.1284 -0.1053
  824POPE   GL112307   4.787  10.395   6.336  0.2714  0.0585  0.3963
  824POPE   GL212308   4.677  10.729   6.354  0.0605 -0.1452  0.1600
  824POPE   C1A12309   4.564  10.367   6.774 -0.1398 -0.2138  0.0045
  824POPE   D2A12310   4.372  10.679   7.057 -0.0580 -0.3257  0.2289
  824POPE   C3A12311   4.332  10.612   7.548  0.1794  0.0842  0.0287
  824POPE   C4A12312   4.198  10.774   7.949  0.2999  0.0032 -0.0564
  824POPE   C1B12313   4.367  11.065   6.613 -0.2362  0.1674 -0.1252
  824POPE   C2B12314   4.019  11.045   6.927 -0.1450 -0.1416  0.0516
  824POPE   C3B12315   3.961  10.856   7.261 -0.3216 -0.2361 -0.0976
  824POPE   C4B12316   3.824  10.766   7.645 -0.2062 -0.3400 -0.0464
  825POPE   NH312317  14.594   2.643   5.944 -0.4043 -0.0438  0.2060
  825POPE   PO412318  14.219   2.671   6.045 -0.4209 -0.0013 -0.1748
  825POPE   GL112319  14.212   2.934   6.470  0.1684  0.3690  0.1974
  825POPE   GL212320  14.052   3.291   6.498 -0.1330  0.0779  0.0647
  825POPE   C1A12321  14.376   2.832   6.928  0.3196 -0.0428  0.0969
  825POPE   D2A12322  14.616   3.090   7.085 -0.3570 -0.0537  0.2136
  825POPE   C3A12323  14.690   3.098   7.539  0.0762  0.1258 -0.4476
  825POPE   C4A12324  14.893   3.272   7.825 -0.0837  0.2334 -0.0743
  825POPE   C1B12325  14.293   3.372   6.850  0.1766 -0.0320 -0.0749
  825POPE   C2B12326  14.320   3.471   7.224  0.1455 -0.1322 -0.0291
  825POPE   C3B12327  14.420   3.473   7.581 -0.1527  0.0046  0.0015
  825POPE   C4B12328  14.385   3.335   8.025  0.1166  0.0724 -0.2328
  826POPE   NH312329   5.649   1.301   5.946 -0.0232 -0.0982 -0.2282
  826POPE   PO412330   5.660   0.822   5.974  0.0267  0.1153 -0.2710
  826POPE   GL112331   5.632   0.910   6.287 -0.2298  0.4785 -0.1462
  826POPE   GL212332   5.756   0.936   6.541  0.1542  0.1055  0.0492
  826POPE   C1A12333   5.313   1.062   6.664  0.0394  0.2360  0.1254
  826POPE   D2A12334   5.147   1.049   7.118 -0.1487 -0.1328 -0.3931
  826POPE   C3A12335   5.122   1.193   7.507  0.0663 -0.0473  0.2286
  826POPE   C4A12336   5.014   1.433   7.716  0.1562  0.0043  0.1063
  826POPE   C1B12337   5.744   0.905   6.992 -0.2543  0.0447 -0.1831
  826POPE   C2B12338   5.593   1.187   7.379  0.1214  0.1248 -0.1024
  826POPE   C3B12339   5.487   1.087   7.900  0.0644 -0.1824 -0.0172
  826POPE   C4B12340   5.677   1.322   8.261  0.0796 -0.1481  0.0050
  827POPE   NH312341   0.641  11.243   6.484 -0.1362 -0.0577  0.0507
  827POPE   PO412342   0.925  10.919   6.363 -0.0947  0.0269 -0.0107
  827POPE   GL112343   0.854  10.880   6.789 -0.1269 -0.1163  0.1489
  827POPE   GL212344   0.710  11.177   6.986  0.1762  0.0199 -0.0599
  827POPE   C1A12345   1.106  10.862   7.197 -0.0124 -0.6038 -0.0796
  827POPE   D2A12346   1.379  10.831   7.472 -0.4762  0.2959 -0.0250
  827POPE   C3A12347   1.445  11.116   7.786  0.3314 -0.1955 -0.0945
  827POPE   C4A12348   1.778  11.047   8.102  0.0299  0.1102  0.2593
  827POPE   C1B12349   0.869  11.321   7.480 -0.1716  0.1012 -0.0456
  827POPE   C2B12350   0.681  11.717   7.815  0.3082 -0.0806 -0.2488
  827POPE   C3B12351   0.786  11.732   8.296 -0.2546  0.3136 -0.3443
  827POPE   C4B12352   0.487  11.603   8.666 -0.5824  0.1608  0.2133
  828POPE   NH312353  12.031  13.147   5.868  0.2792 -0.1119  0.1702
  828POPE   PO412354  12.111  12.792   5.786 -0.0587  0.0478  0.1676
  828POPE   GL112355  12.146  12.821   6.235  0.2431  0.0381  0.0461
  828POPE   GL212356  12.262  13.079   6.304  0.0482 -0.1438  0.0129
  828POPE   C1A12357  11.956  12.833   6.752 -0.0796  0.0412 -0.0029
  828POPE   D2A12358  11.880  12.891   7.288  0.0330 -0.3398  0.3092
  828POPE   C3A12359  12.189  12.773   7.544  0.1293 -0.0712 -0.3687
  828POPE   C4A12360  12.667  12.585   7.672  0.0425 -0.1794  0.4015
  828POPE   C1B12361  12.439  12.795   6.629 -0.0645 -0.0002  0.1702
  828POPE   C2B12362  12.435  12.645   7.063  0.3849 -0.0839  0.2945
  828POPE   C3B12363  12.390  12.282   7.291  0.2188  0.0881 -0.0700
  828POPE   C4B12364  12.466  11.915   7.500 -0.2033  0.0485  0.1903
  829POPE   NH312365   9.018  15.159   6.253 -0.2749  0.0496 -0.3359
  829POPE   PO412366   9.466  14.982   6.128 -0.5015  0.1589  0.0959
  829POPE   GL112367   9.535  15.334   6.482 -0.1731 -0.0347 -0.0824
  829POPE   GL212368   9.295  15.415   6.598  0.0058 -0.1922 -0.1892
  829POPE   C1A12369   9.684  15.538   6.862 -0.0585 -0.2369  0.0150
  829POPE   D2A12370   9.654  15.682   7.359 -0.0886 -0.0138 -0.0778
  829POPE   C3A12371   9.423  15.486   7.625 -0.1294 -0.5224 -0.1534
  829POPE   C4A12372   9.024  15.350   7.671 -0.0916 -0.1313  0.1569
  829POPE   C1B12373   8.951  15.184   6.901  0.2000  0.2520  0.0523
  829POPE   C2B12374   8.656  14.961   7.074  0.0403 -0.1044  0.0827
  829POPE   C3B12375   8.316  15.143   7.290 -0.1188 -0.2050  0.1385
  829POPE   C4B12376   7.965  15.191   7.703 -0.2750 -0.3008  0.0894
  830POPE   NH312377  12.843   0.599   5.930  0.1223 -0.0216 -0.1992
  830POPE   PO412378  12.381   0.620   5.913 -0.7270  0.2288 -0.1618
  830POPE   GL112379  12.342   0.570   6.361  0.4671 -0.1966 -0.2731
  830POPE   GL212380  12.093   0.789   6.552  0.2250 -0.0288 -0.0959
  830POPE   C1A12381  12.366   0.406   6.741 -0.0882  0.0217  0.1532
  830POPE   D2A12382  12.497   0.365   7.150 -0.3054  0.1410  0.1724
  830POPE   C3A12383  12.297   0.193   7.539  0.2463 -0.0077 -0.2656
  830POPE   C4A12384  12.073   0.022   7.879  0.0546 -0.0360 -0.1637
  830POPE   C1B12385  11.966   0.844   6.942  0.2183  0.1921  0.3743
  830POPE   C2B12386  11.969   0.633   7.367 -0.0646  0.1036 -0.1447
  830POPE   C3B12387  11.910   0.520   7.828 -0.2932  0.1878  0.3236
  830POPE   C4B12388  11.662   0.142   8.136 -0.1142  0.0198 -0.0881
  831POPE   NH312389   8.081   2.263   6.126 -0.4327 -0.1729  0.0375
  831POPE   PO412390   8.029   2.599   6.038  0.5398 -0.3868 -0.1150
  831POPE   GL112391   8.202   2.740   6.513  0.3264 -0.1427  0.1887
  831POPE   GL212392   8.268   2.386   6.575 -0.4660  0.0898  0.1033
  831POPE   C1A12393   8.246   3.091   6.828 -0.2249  0.0287  0.0573
  831POPE   D2A12394   8.489   3.105   7.284  0.2814 -0.0600 -0.1581
  831POPE   C3A12395   8.309   2.984   7.752 -0.2084 -0.0662 -0.3429
  831POPE   C4A12396   8.537   2.724   8.129  0.0852 -0.2329  0.0558
  831POPE   C1B12397   8.186   2.437   6.981 -0.1629  0.2051 -0.2558
  831POPE   C2B12398   8.008   2.771   7.094  0.0853  0.0316  0.2023
  831POPE   C3B12399   7.889   3.030   7.420  0.2531  0.0627  0.2345
  831POPE   C4B12400   7.660   3.167   7.700 -0.0907 -0.0874  0.0549
  832POPE   NH312401  13.793   1.654   6.014 -0.2815 -0.1039  0.2766
  832POPE   PO412402  13.603   2.033   6.245  0.2835 -0.1032 -0.0520
  832POPE   GL112403  13.334   1.937   6.639 -0.2471  0.0463  0.0033
  832POPE   GL212404  13.381   1.656   6.545  0.1575 -0.2316  0.1853
  832POPE   C1A12405  13.356   2.105   7.116 -0.1529  0.0510 -0.0296
  832POPE   D2A12406  13.487   2.343   7.398  0.0623  0.0258  0.0183
  832POPE   C3A12407  13.636   2.640   7.177  0.0654 -0.3773  0.0265
  832POPE   C4A12408  13.894   2.585   6.886  0.0514 -0.3143 -0.1705
  832POPE   C1B12409  13.590   1.668   7.003 -0.2054  0.0198  0.1047
  832POPE   C2B12410  13.463   1.538   7.465  0.2814 -0.1989  0.1792
  832POPE   C3B12411  13.395   1.941   7.638  0.1273  0.0435  0.2297
  832POPE   C4B12412  13.088   1.977   7.993  0.0184  0.1229  0.2299
  833POPE   NH312413   0.664   4.705   6.072  0.1704  0.0124  0.1071
  833POPE   PO412414   0.595   5.087   6.334 -0.3108  0.1889  0.3151
  833POPE   GL112415   0.743   5.343   6.742  0.2764 -0.1785  0.1837
  833POPE   GL212416   0.615   5.532   6.497 -0.2661 -0.3789 -0.0515
  833POPE   C1A12417   0.659   5.338   7.148 -0.1184 -0.2616 -0.0176
  833POPE   D2A12418   0.589   5.431   7.560  0.0821  0.2890  0.1445
  833POPE   C3A12419   0.393   5.730   7.805 -0.0711  0.0087 -0.0118
  833POPE   C4A12420   0.369   5.926   8.106  0.0564  0.0869 -0.4360
  833POPE   C1B12421   1.038   5.717   6.494  0.1943 -0.2531  0.1355
  833POPE   C2B12422   1.209   5.978   6.724  0.2323  0.3904  0.2224
  833POPE   C3B12423   1.501   6.148   6.856  0.1612  0.1168  0.0439
  833POPE   C4B12424   1.406   6.403   7.255 -0.4096 -0.1749 -0.1779
  834POPE   NH312425   3.106   2.868   6.075 -0.3956  0.4240 -0.3897
  834POPE   PO412426   2.823   3.210   6.234 -0.0397 -0.1382 -0.1593
  834POPE   GL112427   2.492   3.056   6.526 -0.0736 -0.1614  0.1561
  834POPE   GL212428   2.501   2.767   6.525 -0.0076 -0.1487 -0.1812
  834POPE   C1A12429   2.073   2.997   6.721  0.0871  0.1682 -0.0136
  834POPE   D2A12430   1.711   2.913   6.955  0.0023 -0.0546 -0.1077
  834POPE   C3A12431   1.817   2.950   7.441  0.1514  0.2003 -0.0525
  834POPE   C4A12432   1.813   2.790   7.888  0.1650 -0.3975  0.1266
  834POPE   C1B12433   2.541   2.668   6.923  0.0323 -0.0617  0.2592
  834POPE   C2B12434   2.528   2.615   7.365 -0.1962  0.1864 -0.0437
  834POPE   C3B12435   2.547   2.413   7.806 -0.0654  0.3439  0.1389
  834POPE   C4B12436   2.778   2.259   8.255 -0.1320  0.1003 -0.0901
  835POPE   NH312437  12.455  13.982   6.142  0.0123 -0.0718 -0.0040
  835POPE   PO412438  12.297  13.600   6.017  0.2735  0.1129 -0.2508
  835POPE   GL112439  12.338  13.575   6.429 -0.1875  0.0301  0.0365
  835POPE   GL212440  12.357  13.872   6.626  0.2005  0.0362 -0.0085
  835POPE   C1A12441  12.258  13.406   6.768 -0.0465 -0.0352 -0.2717
  835POPE   D2A12442  12.276  13.117   7.053 -0.0116  0.0091  0.1092
  835POPE   C3A12443  12.554  13.108   7.333  0.4511  0.0351  0.3207
  835POPE   C4A12444  12.636  13.080   7.637  0.1098 -0.1882 -0.0958
  835POPE   C1B12445  12.523  13.899   7.032 -0.1435 -0.0426 -0.1933
  835POPE   C2B12446  12.715  13.629   7.362 -0.0469 -0.1793 -0.1387
  835POPE   C3B12447  12.594  13.583   7.750  0.1230  0.0074  0.1545
  835POPE   C4B12448  12.599  13.353   8.046  0.3764  0.1168 -0.2929
  836POPE   NH312449  11.552   7.921   6.203 -0.1380 -0.1248  0.1866
  836POPE   PO412450  11.912   7.748   6.233  0.3819 -0.0075  0.1579
  836POPE   GL112451  11.968   7.660   6.592  0.3581  0.1024  0.2919
  836POPE   GL212452  11.634   7.715   6.759 -0.3386  0.0308 -0.0556
  836POPE   C1A12453  11.972   7.768   7.140  0.0537 -0.2761  0.1553
  836POPE   D2A12454  11.667   7.626   7.485 -0.1628  0.1470  0.0195
  836POPE   C3A12455  11.349   7.471   7.374  0.0501  0.2090  0.1307
  836POPE   C4A12456  10.930   7.442   7.164  0.1311 -0.2889 -0.0386
  836POPE   C1B12457  11.648   8.107   7.093  0.2485  0.0936  0.0529
  836POPE   C2B12458  11.515   8.318   7.390  0.1257  0.0455 -0.1895
  836POPE   C3B12459  11.347   8.573   7.711  0.1029  0.0660 -0.1215
  836POPE   C4B12460  11.083   8.421   8.013  0.0932 -0.1299  0.1892
  837POPE   NH312461  14.751   9.851   6.180 -0.0836  0.0674 -0.0101
  837POPE   PO412462  15.165  10.043   6.040 -0.1671  0.4575 -0.0808
  837POPE   GL112463  15.124  10.180   6.390 -0.0374  0.0469 -0.0491
  837POPE   GL212464  15.406  10.275   6.521  0.2583 -0.2591  0.0938
  837POPE   C1A12465  14.950  10.212   6.814 -0.0548 -0.0051  0.3167
  837POPE   D2A12466  14.860  10.101   7.189  0.0423  0.1093  0.0513
  837POPE   C3A12467  14.758   9.721   7.143 -0.2885  0.1429 -0.2306
  837POPE   C4A12468  14.565   9.352   7.314 -0.0287  0.3209  0.0882
  837POPE   C1B12469  15.421  10.548   6.849 -0.5214  0.1369  0.1481
  837POPE   C2B12470  15.466  10.718   7.221 -0.2726 -0.0687  0.2408
  837POPE   C3B12471  15.614  10.508   7.571 -0.1295  0.0932  0.0210
  837POPE   C4B12472  15.782  10.537   7.977 -0.1016 -0.1738  0.0338
  838POPE   NH312473  15.355  13.257   6.212  0.0415  0.0475  0.1649
  838POPE   PO412474  15.039  12.973   5.980 -0.1977  0.0988 -0.0777
  838POPE   GL112475  14.860  13.112   6.375  0.0854 -0.0957  0.1322
  838POPE   GL212476  14.566  13.297   6.478 -0.1424  0.0459  0.3134
  838POPE   C1A12477  14.956  13.006   6.806  0.0995  0.0971  0.2929
  838POPE   D2A12478  14.984  13.076   7.207  0.3930 -0.1749 -0.1715
  838POPE   C3A12479  14.887  13.299   7.641 -0.0879 -0.0837 -0.1409
  838POPE   C4A12480  15.240  13.485   7.916  0.0760  0.1558 -0.1352
  838POPE   C1B12481  14.490  13.142   6.923  0.1676  0.0872  0.1443
  838POPE   C2B12482  14.514  13.015   7.410 -0.0056  0.0466 -0.0322
  838POPE   C3B12483  14.401  13.117   7.865 -0.1357 -0.1732 -0.1570
  838POPE   C4B12484  14.136  13.232   8.132 -0.0965 -0.0250  0.2669
  839POPE   NH312485   7.901  17.669   6.123 -0.0673 -0.0216  0.1738
  839POPE   PO412486   7.805  17.266   6.001 -0.0800 -0.1640 -0.2489
  839POPE   GL112487   7.675  17.183   6.350 -0.0999 -0.0629 -0.2550
  839POPE   GL212488   7.593  17.489   6.473 -0.0865 -0.0668  0.2211
  839POPE   C1A12489   7.690  17.148   6.813  0.2035  0.0760 -0.0603
  839POPE   D2A12490   7.642  17.137   7.207 -0.0420 -0.0219 -0.1354
  839POPE   C3A12491   7.316  16.927   7.293  0.0575 -0.1510  0.1675
  839POPE   C4A12492   7.012  16.590   7.271 -0.0632 -0.2079 -0.4378
  839POPE   C1B12493   7.636  17.628   6.899  0.0795  0.1622  0.1450
  839POPE   C2B12494   7.706  17.696   7.342 -0.0436 -0.1280 -0.1140
  839POPE   C3B12495   7.817  17.614   7.737  0.2858  0.1013 -0.2048
  839POPE   C4B12496   8.059  17.545   8.161  0.4415  0.2996 -0.2706
  840POPE   NH312497   7.742   1.463   5.764 -0.0234 -0.1645  0.1932
  840POPE   PO412498   7.303   1.390   5.587  0.0519 -0.2878  0.0510
  840POPE   GL112499   7.394   1.413   6.120  0.4391 -0.1536 -0.0787
  840POPE   GL212500   7.656   1.146   6.200 -0.0216 -0.2721 -0.2619
  840POPE   C1A12501   7.319   1.435   6.561  0.0828 -0.0339  0.1494
  840POPE   D2A12502   7.396   1.284   7.022 -0.1994  0.1287  0.2293
  840POPE   C3A12503   7.425   1.315   7.403  0.1738 -0.1395 -0.2963
  840POPE   C4A12504   7.329   1.623   7.775  0.0965  0.0420 -0.1086
  840POPE   C1B12505   7.695   1.084   6.703 -0.1264 -0.0817  0.4564
  840POPE   C2B12506   7.791   0.969   7.049  0.0737  0.0451 -0.2657
  840POPE   C3B12507   7.605   0.824   7.394 -0.3216 -0.2093 -0.1901
  840POPE   C4B12508   7.519   0.814   7.793 -0.1784 -0.0106 -0.1680
  841POPE   NH312509  16.926   3.722   6.119  0.2066  0.2287  0.2756
  841POPE   PO412510  17.200   4.090   6.356  0.0269  0.3081  0.1694
  841POPE   GL112511  17.172   4.271   6.769  0.0832  0.4099  0.1547
  841POPE   GL212512  17.172   4.521   6.664 -0.3513  0.0452 -0.3803
  841POPE   C1A12513  17.580   4.375   7.092 -0.0766 -0.0500  0.0627
  841POPE   D2A12514  17.575   4.450   7.482  0.0246 -0.1481  0.2326
  841POPE   C3A12515  17.681   4.448   7.889  0.4159  0.4150  0.0458
  841POPE   C4A12516  17.508   4.642   8.312  0.0323  0.0231  0.0765
  841POPE   C1B12517  17.188   4.691   7.178  0.1082  0.2936  0.2346
  841POPE   C2B12518  17.105   4.379   7.490  0.1555 -0.0883 -0.1278
  841POPE   C3B12519  17.070   4.476   7.977  0.0413  0.0717 -0.0864
  841POPE   C4B12520  17.000   4.337   8.398  0.1337 -0.0493  0.0026
  842POPE   NH312521  10.319   4.943   5.950  0.4060 -0.1788  0.0917
  842POPE   PO412522  10.775   5.291   5.889  0.1793  0.1737 -0.1010
  842POPE   GL112523  10.947   5.442   6.244  0.2172 -0.0813  0.0690
  842POPE   GL212524  10.623   5.498   6.424 -0.1069  0.0671  0.0726
  842POPE   C1A12525  11.278   5.392   6.353  0.2828 -0.1234  0.0532
  842POPE   D2A12526  11.595   4.968   6.407  0.2238 -0.2900  0.0620
  842POPE   C3A12527  11.696   4.773   6.670 -0.0272 -0.0170 -0.0254
  842POPE   C4A12528  11.759   4.527   7.113 -0.1036 -0.0620  0.0433
  842POPE   C1B12529  10.920   5.475   6.794 -0.1164  0.2166 -0.1266
  842POPE   C2B12530  11.098   5.402   7.179  0.0161 -0.1791 -0.1499
  842POPE   C3B12531  11.230   5.398   7.574 -0.2136  0.0382  0.2378
  842POPE   C4B12532  11.573   5.213   7.704 -0.1556 -0.1158  0.2507
  843POPE   NH312533   1.147  16.385   5.945  0.0340 -0.3336  0.4409
  843POPE   PO412534   0.848  16.679   5.881  0.0873 -0.1270 -0.0878
  843POPE   GL112535   0.849  16.683   6.351  0.0049  0.3437  0.0576
  843POPE   GL212536   1.226  16.693   6.437 -0.0574  0.2256  0.1719
  843POPE   C1A12537   0.914  16.533   6.818 -0.0375 -0.1212  0.3632
  843POPE   D2A12538   0.955  16.371   7.221 -0.1058 -0.0564  0.0442
  843POPE   C3A12539   0.689  16.372   7.517  0.2554  0.3418  0.1913
  843POPE   C4A12540   0.403  16.467   7.810  0.0396  0.1233 -0.3447
  843POPE   C1B12541   1.499  16.838   6.738 -0.0689 -0.3180 -0.0872
  843POPE   C2B12542   1.761  16.994   7.178  0.0890 -0.0049  0.0990
  843POPE   C3B12543   1.670  17.225   7.577  0.0854  0.0883 -0.2524
  843POPE   C4B12544   1.728  17.368   7.982 -0.2219 -0.3207  0.3127
  844POPE   NH312545   8.435   8.973   5.773 -0.3741  0.0592 -0.0355
  844POPE   PO412546   8.799   8.638   5.873 -0.0176  0.2541  0.2984
  844POPE   GL112547   9.003   8.399   6.298 -0.0144 -0.2356 -0.0173
  844POPE   GL212548   9.118   8.696   6.256  0.0057 -0.1928  0.0062
  844POPE   C1A12549   9.277   8.482   6.659  0.1661 -0.0537 -0.0426
  844POPE   D2A12550   9.371   8.801   6.901 -0.1139  0.0946 -0.2734
  844POPE   C3A12551   9.484   8.788   7.285  0.2797  0.0968  0.1275
  844POPE   C4A12552   9.489   8.708   7.743  0.0946  0.1244 -0.1939
  844POPE   C1B12553   8.902   8.800   6.648  0.1983  0.0869 -0.1906
  844POPE   C2B12554   8.633   8.690   7.082  0.1169 -0.1329  0.0839
  844POPE   C3B12555   8.483   8.403   7.478 -0.0554 -0.5104  0.1746
  844POPE   C4B12556   8.488   8.030   7.615  0.2681  0.0351 -0.1652
  845POPE   NH312557  14.118  17.230   6.029 -0.1564  0.1342 -0.1043
  845POPE   PO412558  13.925  16.882   6.019  0.2239 -0.2758 -0.0758
  845POPE   GL112559  13.934  17.014   6.519 -0.1530 -0.3159 -0.1035
  845POPE   GL212560  14.049  17.297   6.656 -0.0678 -0.2361 -0.1477
  845POPE   C1A12561  13.966  16.925   6.959  0.1531  0.1015  0.0689
  845POPE   D2A12562  13.831  17.040   7.301  0.2124  0.0261 -0.1709
  845POPE   C3A12563  13.477  16.930   7.424  0.0278 -0.0861  0.3414
  845POPE   C4A12564  12.950  16.979   7.248  0.0667  0.2094  0.0977
  845POPE   C1B12565  13.901  17.517   7.017  0.0138 -0.1168  0.3560
  845POPE   C2B12566  14.034  17.628   7.399 -0.1427  0.1259 -0.0622
  845POPE   C3B12567  13.875  17.739   7.738 -0.2528 -0.0471 -0.1412
  845POPE   C4B12568  13.620  17.936   8.110  0.3444 -0.1386  0.2811
  846POPE   NH312569   3.085  13.564   6.077 -0.0862  0.0999  0.0286
  846POPE   PO412570   3.093  13.093   6.100 -0.4565 -0.0993 -0.0695
  846POPE   GL112571   3.491  13.172   6.275  0.0758  0.2259 -0.2722
  846POPE   GL212572   3.720  12.878   6.283 -0.0096 -0.0967  0.3730
  846POPE   C1A12573   3.637  13.093   6.727 -0.2988  0.1954  0.1444
  846POPE   D2A12574   3.381  12.843   7.058 -0.0696 -0.0624 -0.2904
  846POPE   C3A12575   3.145  12.432   7.072 -0.1253  0.0198 -0.1703
  846POPE   C4A12576   3.181  11.997   7.247 -0.1095  0.3657  0.0093
  846POPE   C1B12577   3.696  12.642   6.610 -0.1942  0.1950  0.0637
  846POPE   C2B12578   3.616  12.348   6.918  0.1873  0.3179  0.0126
  846POPE   C3B12579   3.632  12.428   7.321  0.1776  0.2434  0.0766
  846POPE   C4B12580   3.637  12.189   7.664 -0.1389  0.3060  0.3104
  847POPE   NH312581  14.762  11.732   5.584  0.1709 -0.0623  0.0194
  847POPE   PO412582  15.080  11.594   5.863  0.1064 -0.2907  0.0205
  847POPE   GL112583  15.287  11.378   6.229  0.2873  0.1083  0.0655
  847POPE   GL212584  15.155  11.127   6.342  0.0140  0.0201 -0.5293
  847POPE   C1A12585  15.671  11.256   6.518 -0.1203 -0.2515  0.0025
  847POPE   D2A12586  15.539  11.084   6.848  0.2920 -0.1559  0.1752
  847POPE   C3A12587  15.685  11.197   7.299 -0.0203  0.0441 -0.0022
  847POPE   C4A12588  15.992  11.292   7.507  0.0440 -0.3630 -0.1370
  847POPE   C1B12589  15.234  11.432   6.701 -0.2358 -0.1093 -0.0884
  847POPE   C2B12590  15.323  11.499   7.079  0.0376  0.0548 -0.2699
  847POPE   C3B12591  15.427  11.556   7.554 -0.0756  0.1927  0.0764
  847POPE   C4B12592  15.729  11.582   7.809  0.1022 -0.0796  0.0889
  848POPE   NH312593  10.933  13.986   5.568  0.0409 -0.2166 -0.2562
  848POPE   PO412594  11.356  14.010   5.787 -0.0360  0.1852  0.2186
  848POPE   GL112595  11.424  14.080   6.151  0.0212 -0.3090  0.0450
  848POPE   GL212596  11.437  13.840   6.303  0.0248 -0.0073  0.3063
  848POPE   C1A12597  11.152  14.186   6.528  0.0575 -0.0306 -0.3685
  848POPE   D2A12598  11.015  14.396   6.858 -0.1132  0.3313  0.1279
  848POPE   C3A12599  10.918  14.446   7.187 -0.0055 -0.3146 -0.2470
  848POPE   C4A12600  10.716  14.585   7.532 -0.1416 -0.0213  0.1723
  848POPE   C1B12601  11.375  13.652   6.645 -0.1511  0.1244  0.2976
  848POPE   C2B12602  11.427  13.711   7.137  0.0310 -0.2126  0.2258
  848POPE   C3B12603  11.678  13.946   7.457  0.3252 -0.2151 -0.1404
  848POPE   C4B12604  11.931  14.290   7.730 -0.3547 -0.2622  0.0943
  849POPE   NH312605   7.213   2.846   5.903  0.2245  0.3927  0.0161
  849POPE   PO412606   6.788   2.691   5.879  0.1470  0.2589  0.3064
  849POPE   GL112607   6.894   2.796   6.260 -0.1709  0.0216  0.0128
  849POPE   GL212608   7.166   2.792   6.418 -0.1554  0.1471  0.0933
  849POPE   C1A12609   6.610   2.808   6.580  0.1295  0.0058 -0.1392
  849POPE   D2A12610   6.605   2.623   7.034  0.1431  0.1705 -0.1788
  849POPE   C3A12611   6.644   2.426   7.370  0.1154  0.1741  0.0492
  849POPE   C4A12612   6.519   2.138   7.687 -0.2528 -0.0280  0.0959
  849POPE   C1B12613   7.049   2.559   6.717  0.2007 -0.0855  0.0218
  849POPE   C2B12614   7.128   2.593   7.167 -0.5001  0.1702 -0.1037
  849POPE   C3B12615   7.152   2.432   7.576 -0.1807  0.0425  0.0296
  849POPE   C4B12616   7.164   2.493   8.032 -0.0316 -0.2451 -0.0447
  850POPE   NH312617   7.479  15.394   6.082  0.0094 -0.1532  0.0844
  850POPE   PO412618   7.042  15.653   5.849  0.0647  0.1014  0.0408
  850POPE   GL112619   6.906  15.723   6.243 -0.0139 -0.1215  0.0820
  850POPE   GL212620   7.000  15.489   6.458 -0.1437 -0.1430 -0.0152
  850POPE   C1A12621   6.528  15.773   6.531  0.0727  0.1172  0.0740
  850POPE   D2A12622   6.476  15.885   6.905 -0.0457  0.1969 -0.0263
  850POPE   C3A12623   6.239  15.975   7.353  0.0921  0.0415  0.2175
  850POPE   C4A12624   6.086  16.135   7.670 -0.1113 -0.0285  0.4368
  850POPE   C1B12625   6.968  15.741   6.736  0.1244  0.0565 -0.0089
  850POPE   C2B12626   6.888  15.869   7.150  0.0550 -0.2679 -0.1358
  850POPE   C3B12627   6.919  15.903   7.554  0.0102 -0.2183 -0.1935
  850POPE   C4B12628   6.901  16.183   7.901  0.0938 -0.0685 -0.2572
  851YOPE   NH312629   8.159  14.982   5.890  0.2227  0.0638 -0.1411
  851YOPE   PO412630   8.623  15.093   5.949  0.1578 -0.3136  0.0546
  851YOPE   GL112631   8.525  15.087   6.286 -0.0718  0.0037 -0.0317
  851YOPE   GL212632   8.281  15.157   6.440  0.0181  0.0177  0.1774
  851YOPE   C1A12633   8.589  14.750   6.581 -0.1905 -0.2549 -0.4317
  851YOPE   D2A12634   8.843  14.500   6.823  0.0099 -0.0260 -0.0997
  851YOPE   C3A12635   8.958  14.471   7.270  0.0505 -0.1335  0.3201
  851YOPE   C4A12636   9.097  14.530   7.711 -0.2996  0.0122 -0.2719
  851YOPE   C1B12637   8.209  15.087   6.823 -0.1377 -0.2965  0.0669
  851YOPE   C2B12638   7.799  14.953   7.093 -0.2652 -0.0238 -0.2939
  851YOPE   D3B12639   7.691  15.202   7.294  0.2982  0.2621  0.3123
  851YOPE   C4B12640   7.394  15.154   7.620 -0.1917  0.2121  0.0908
  852YOPE   NH312641  16.867  13.368   6.047  0.3351 -0.1361  0.1303
  852YOPE   PO412642  16.521  13.577   5.840  0.2509  0.2032  0.0799
  852YOPE   GL112643  16.515  13.812   6.166  0.0222 -0.0273 -0.0191
  852YOPE   GL212644  16.248  13.935   6.321  0.0961  0.0676  0.1146
  852YOPE   C1A12645  16.936  13.937   6.583  0.1285 -0.0111 -0.0110
  852YOPE   D2A12646  17.037  14.014   6.971  0.0051  0.4814 -0.0094
  852YOPE   C3A12647  17.267  13.966   7.307  0.0164  0.0718  0.1926
  852YOPE   C4A12648  17.546  13.932   7.690 -0.1946  0.0143  0.1905
  852YOPE   C1B12649  16.452  13.904   6.645 -0.2826 -0.1156 -0.1784
  852YOPE   C2B12650  16.538  13.953   7.063  0.0084  0.1233  0.0315
  852YOPE   D3B12651  16.440  13.901   7.578 -0.0845  0.1090 -0.0009
  852YOPE   C4B12652  16.666  13.926   7.959 -0.2324  0.0620 -0.0213
  853YOPE   NH312653  10.648   1.447   5.797  0.2982  0.3639  0.1021
  853YOPE   PO412654  10.203   1.464   5.735 -0.1683 -0.0365  0.0038
  853YOPE   GL112655  10.349   1.395   6.190 -0.0426 -0.2958 -0.1663
  853YOPE   GL212656  10.002   1.449   6.454  0.0896  0.0679  0.2517
  853YOPE   C1A12657  10.484   1.539   6.622  0.0415 -0.1710  0.2542
  853YOPE   D2A12658  10.723   1.422   6.984 -0.1872 -0.1177  0.3798
  853YOPE   C3A12659  10.763   0.964   6.793 -0.1795  0.1533  0.0267
  853YOPE   C4A12660  11.011   0.582   6.941  0.1880 -0.1091 -0.1378
  853YOPE   C1B12661   9.948   1.444   6.937 -0.0157  0.0136 -0.0456
  853YOPE   C2B12662   9.875   1.339   7.343 -0.0068  0.0041 -0.3313
  853YOPE   D3B12663   9.590   1.370   7.660 -0.0153  0.0884 -0.2072
  853YOPE   C4B12664   9.193   1.415   7.902 -0.0473  0.0249 -0.1171
  854YOPE   NH312665   1.636  16.333   5.924 -0.0715 -0.2121  0.0000
  854YOPE   PO412666   1.543  16.793   6.025 -0.0740 -0.1730 -0.0436
  854YOPE   GL112667   1.854  16.727   6.290 -0.1393  0.1051  0.0669
  854YOPE   GL212668   2.163  16.840   6.424 -0.1091  0.0972  0.0776
  854YOPE   C1A12669   1.833  16.461   6.608 -0.1261 -0.1647 -0.1867
  854YOPE   D2A12670   2.174  16.257   6.790  0.0709 -0.3223 -0.3573
  854YOPE   C3A12671   1.947  16.105   7.098 -0.1024 -0.0587  0.0982
  854YOPE   C4A12672   1.922  15.867   7.273  0.0988  0.1556  0.1195
  854YOPE   C1B12673   2.190  16.812   6.954 -0.1716 -0.0805  0.0080
  854YOPE   C2B12674   2.037  16.543   7.232 -0.0118  0.1053  0.0780
  854YOPE   D3B12675   2.017  16.271   7.640  0.0113 -0.1547 -0.1968
  854YOPE   C4B12676   1.961  16.086   8.103  0.1805 -0.0445 -0.3488
  855YOPE   NH312677  17.360  17.351   6.397 -0.1595  0.4039  0.0060
  855YOPE   PO412678  17.746  17.541   6.306  0.1182 -0.0220  0.0953
  855YOPE   GL112679  18.052  17.701   6.549  0.0314  0.1122 -0.1954
  855YOPE   GL212680  18.346  17.428   6.631  0.1660  0.3039  0.2246
  855YOPE   C1A12681  18.287  17.876   6.926 -0.0217  0.1352 -0.4322
  855YOPE   D2A12682  18.658  17.842   7.144  0.0467 -0.0532 -0.0401
  855YOPE   C3A12683  18.776  18.107   7.523 -0.5440  0.1924  0.0056
  855YOPE   C4A12684  18.816  18.205   7.948  0.1605 -0.0260  0.1153
  855YOPE   C1B12685  18.436  17.408   7.103  0.0876  0.0987 -0.0949
  855YOPE   C2B12686  18.361  17.271   7.539 -0.2651 -0.2259 -0.0755
  855YOPE   D3B12687  18.437  17.021   7.941 -0.2498 -0.1834 -0.0702
  855YOPE   C4B12688  18.569  16.889   8.330 -0.0711  0.1865 -0.0882
  856YOPE   NH312689   9.777   1.481   5.941 -0.0798 -0.1327 -0.1531
  856YOPE   PO412690   9.519   1.141   5.974 -0.2877 -0.1556  0.0923
  856YOPE   GL112691   9.539   0.985   6.323 -0.0285  0.2655 -0.0980
  856YOPE   GL212692   9.780   0.672   6.405 -0.0759  0.1457  0.1558
  856YOPE   C1A12693   9.604   1.109   6.678  0.0726  0.1529 -0.1278
  856YOPE   D2A12694   9.666   1.046   7.030 -0.5830 -0.1032  0.0209
  856YOPE   C3A12695   9.665   0.847   7.407  0.0121  0.1695  0.0035
  856YOPE   C4A12696   9.873   0.931   7.733 -0.1147  0.2247  0.0537
  856YOPE   C1B12697   9.903   0.675   6.782  0.0194  0.1258 -0.2051
  856YOPE   C2B12698   9.999   0.513   7.145 -0.0381  0.1671  0.0888
  856YOPE   D3B12699   9.982   0.454   7.619 -0.0639 -0.0193  0.0276
  856YOPE   C4B12700  10.215   0.497   8.030  0.2040  0.3074 -0.2555
  857YOPE   NH312701  11.258   2.634   6.010  0.0519 -0.0606 -0.0495
  857YOPE   PO412702  11.650   2.862   6.222  0.0816 -0.1391 -0.2360
  857YOPE   GL112703  11.738   2.817   6.605 -0.2008  0.1682 -0.3237
  857YOPE   GL212704  11.995   2.751   6.841  0.0534  0.0679 -0.1783
  857YOPE   C1A12705  11.596   2.912   7.080  0.0466 -0.1806 -0.1394
  857YOPE   D2A12706  11.525   2.793   7.489 -0.3003  0.3814 -0.0838
  857YOPE   C3A12707  11.259   2.943   7.815  0.5271 -0.1714  0.1203
  857YOPE   C4A12708  10.978   3.114   8.211 -0.1333  0.3896 -0.2895
  857YOPE   C1B12709  12.103   2.855   7.257 -0.0488  0.3969  0.2552
  857YOPE   C2B12710  12.004   2.719   7.623  0.0218 -0.1195  0.0951
  857YOPE   D3B12711  11.917   2.347   8.000  0.2601  0.0335 -0.0184
  857YOPE   C4B12712  11.756   1.993   8.226  0.2078 -0.0253  0.2807
  858YOPE   NH312713   2.668  10.373   5.605 -0.3222  0.0673 -0.1923
  858YOPE   PO412714   2.953  10.165   5.905  0.2215  0.2168 -0.0252
  858YOPE   GL112715   3.116  10.242   6.289 -0.3031  0.0336  0.1168
  858YOPE   GL212716   3.371  10.095   6.399 -0.1022 -0.3544  0.5119
  858YOPE   C1A12717   2.847  10.607   6.547 -0.2821  0.1629 -0.0570
  858YOPE   D2A12718   2.626  10.591   6.949 -0.3477 -0.2302  0.0758
  858YOPE   C3A12719   2.638  10.222   7.278 -0.1246 -0.0757  0.1766
  858YOPE   C4A12720   2.654   9.941   7.762 -0.0615 -0.1127 -0.0166
  858YOPE   C1B12721   3.040  10.170   6.757  0.0172  0.0939  0.2187
  858YOPE   C2B12722   3.076  10.423   7.086  0.0496  0.1448  0.2378
  858YOPE   D3B12723   2.928  10.642   7.382  0.0627 -0.0741  0.1800
  858YOPE   C4B12724   2.806  10.855   7.716  0.1025 -0.2344 -0.1435
  859YOPE   NH312725   2.332   3.334   6.178  0.1272 -0.4019 -0.1149
  859YOPE   PO412726   1.958   3.387   6.137 -0.1587  0.3381  0.2111
  859YOPE   GL112727   1.969   3.443   6.537 -0.0008 -0.3919 -0.0503
  859YOPE   GL212728   1.674   3.360   6.603  0.0974  0.1052 -0.1375
  859YOPE   C1A12729   2.034   3.445   7.012 -0.1633  0.3504  0.0365
  859YOPE   D2A12730   2.156   3.316   7.416  0.1345  0.0484  0.1650
  859YOPE   C3A12731   1.927   3.323   7.770  0.1959 -0.1644 -0.0170
  859YOPE   C4A12732   1.823   3.161   8.200 -0.1493  0.3846 -0.0483
  859YOPE   C1B12733   1.529   3.360   7.029  0.1884 -0.0890 -0.0793
  859YOPE   C2B12734   1.491   3.352   7.528  0.2209 -0.0385 -0.1169
  859YOPE   D3B12735   1.408   3.351   8.002  0.1157 -0.2711 -0.4938
  859YOPE   C4B12736   1.066   3.208   8.308 -0.0367 -0.0748 -0.4504
  860YOPE   NH312737   8.593   0.773   5.751 -0.4459 -0.3473  0.0652
  860YOPE   PO412738   8.750   1.153   5.953 -0.0627  0.0194 -0.0750
  860YOPE   GL112739   8.937   1.308   6.328  0.0004  0.2087  0.0139
  860YOPE   GL212740   9.254   1.414   6.340 -0.1139 -0.0543 -0.2475
  860YOPE   C1A12741   8.829   1.434   6.745  0.2096 -0.3371  0.2370
  860YOPE   D2A12742   8.483   1.543   6.846 -0.1952 -0.1847 -0.1986
  860YOPE   C3A12743   8.384   1.661   7.245 -0.2627 -0.2319  0.0979
  860YOPE   C4A12744   8.490   1.749   7.735  0.1186 -0.1100  0.2447
  860YOPE   C1B12745   9.494   1.567   6.745  0.4039  0.1372 -0.0557
  860YOPE   C2B12746   9.340   1.508   7.220  0.0229 -0.0281 -0.1245
  860YOPE   D3B12747   8.831   1.506   7.291 -0.1754 -0.0073 -0.2097
  860YOPE   C4B12748   8.574   1.220   7.493 -0.0087 -0.1211 -0.4189
  861YOPE   NH312749  12.815  12.359   5.776  0.2239 -0.0789 -0.0980
  861YOPE   PO412750  12.907  11.902   5.797 -0.2227 -0.1652  0.1333
  861YOPE   GL112751  12.989  12.096   6.204  0.1489 -0.0103  0.0215
  861YOPE   GL212752  13.343  12.027   6.258 -0.1257 -0.1471  0.0576
  861YOPE   C1A12753  12.960  12.202   6.668 -0.0925  0.0642  0.0011
  861YOPE   D2A12754  12.873  12.304   7.117 -0.5818  0.2237 -0.2072
  861YOPE   C3A12755  13.046  12.192   7.515  0.1380  0.2056 -0.0209
  861YOPE   C4A12756  13.220  12.121   7.947 -0.2761 -0.1594  0.0868
  861YOPE   C1B12757  13.440  11.933   6.747 -0.3128  0.0734 -0.2336
  861YOPE   C2B12758  13.376  11.985   7.170 -0.1823 -0.0322  0.1068
  861YOPE   D3B12759  13.548  12.093   7.529  0.2222 -0.4426 -0.1227
  861YOPE   C4B12760  13.731  12.342   8.013 -0.1095  0.0048  0.0654
  862YOPE   NH312761  17.355   4.794   6.221 -0.0643  0.1934 -0.1785
  862YOPE   PO412762  17.142   4.552   6.183  0.1475  0.1296 -0.3066
  862YOPE   GL112763  16.954   4.923   6.441 -0.3986 -0.2639 -0.1718
  862YOPE   GL212764  16.782   5.155   6.253  0.1607  0.2082 -0.3591
  862YOPE   C1A12765  16.766   5.090   6.785 -0.0462  0.0470  0.4213
  862YOPE   D2A12766  16.766   5.138   7.158  0.0975  0.0834 -0.0449
  862YOPE   C3A12767  16.524   5.204   7.534  0.1139 -0.1242  0.0663
  862YOPE   C4A12768  16.366   5.182   7.874  0.0513  0.4051  0.0168
  862YOPE   C1B12769  16.822   5.529   6.598 -0.0168  0.0276 -0.1682
  862YOPE   C2B12770  16.848   5.606   6.951 -0.2130  0.2022 -0.0077
  862YOPE   D3B12771  16.659   5.622   7.334  0.1494 -0.1132 -0.1052
  862YOPE   C4B12772  16.591   5.659   7.700 -0.3564  0.1219  0.1306
  863YOPE   NH312773   2.338   8.816   6.328 -0.2545 -0.0054  0.0278
  863YOPE   PO412774   1.946   8.975   6.453  0.2231  0.0659 -0.1892
  863YOPE   GL112775   1.961   9.103   6.904 -0.0708 -0.0267 -0.1027
  863YOPE   GL212776   2.222   8.852   6.832  0.2871 -0.2228 -0.2884
  863YOPE   C1A12777   2.065   9.194   7.270 -0.0305 -0.0309  0.1080
  863YOPE   D2A12778   2.014   8.960   7.661 -0.3246  0.0123 -0.1577
  863YOPE   C3A12779   1.952   9.154   7.989 -0.0448 -0.0990  0.0820
  863YOPE   C4A12780   2.056   9.334   8.330 -0.0700 -0.2895 -0.0323
  863YOPE   C1B12781   2.329   8.766   7.245  0.2862  0.1441 -0.0291
  863YOPE   C2B12782   2.456   8.744   7.729 -0.0637 -0.1936  0.2931
  863YOPE   D3B12783   2.416   9.032   8.194  0.0072  0.2815  0.2218
  863YOPE   C4B12784   2.289   8.923   8.538 -0.1589 -0.0136  0.2200
  864YOPE   NH312785   0.515  13.522   5.847  0.2274  0.2621 -0.2403
  864YOPE   PO412786   0.823  13.264   5.953 -0.4447 -0.1272 -0.0352
  864YOPE   GL112787   0.708  13.201   6.362  0.0431 -0.1241 -0.1912
  864YOPE   GL212788   0.425  13.063   6.318  0.2147  0.1473 -0.2157
  864YOPE   C1A12789   0.897  13.176   6.694 -0.0597  0.1240  0.0060
  864YOPE   D2A12790   0.988  12.997   7.119  0.0719  0.0008  0.0048
  864YOPE   C3A12791   1.222  13.161   7.330 -0.2993  0.2769 -0.0044
  864YOPE   C4A12792   1.079  13.428   7.638 -0.2591  0.3200  0.2386
  864YOPE   C1B12793   0.424  13.011   6.750 -0.1303 -0.1461 -0.0294
  864YOPE   C2B12794   0.430  13.103   7.192 -0.0725 -0.2550 -0.1200
  864YOPE   D3B12795   0.697  13.144   7.579 -0.0437 -0.2638  0.2306
  864YOPE   C4B12796   0.573  13.107   7.976 -0.0207  0.2690  0.2252
  865YOPE   NH312797   7.932   4.379   6.261  0.0869 -0.2495  0.2361
  865YOPE   PO412798   7.626   4.666   6.024  0.0439 -0.0460  0.1113
  865YOPE   GL112799   7.636   4.847   6.396 -0.0224 -0.1548 -0.0392
  865YOPE   GL212800   7.531   4.588   6.545 -0.0419  0.0775  0.0921
  865YOPE   C1A12801   7.689   4.909   6.855  0.3790 -0.1879  0.0613
  865YOPE   D2A12802   7.596   4.856   7.313  0.1061 -0.1398 -0.0291
  865YOPE   C3A12803   7.400   5.063   7.550  0.4069  0.2014 -0.0017
  865YOPE   C4A12804   7.268   5.176   7.952 -0.1081  0.0878  0.0034
  865YOPE   C1B12805   7.569   4.437   6.985  0.1051 -0.0785 -0.1153
  865YOPE   C2B12806   7.627   4.332   7.409 -0.3056 -0.0086 -0.1936
  865YOPE   D3B12807   7.590   4.257   7.889  0.0348 -0.1273  0.0602
  865YOPE   C4B12808   7.533   4.347   8.265 -0.2591 -0.0247  0.1341
  866YOPE   NH312809   8.727  15.559   5.907 -0.3219 -0.0933 -0.1844
  866YOPE   PO412810   9.084  15.642   6.211  0.2760 -0.1809  0.0247
  866YOPE   GL112811   8.710  15.448   6.501  0.1358  0.1027  0.1583
  866YOPE   GL212812   8.480  15.655   6.355 -0.1059 -0.0286 -0.3727
  866YOPE   C1A12813   8.617  15.568   6.917 -0.6142 -0.0392 -0.0802
  866YOPE   D2A12814   8.686  15.546   7.307  0.3346  0.1291 -0.2272
  866YOPE   C3A12815   8.573  15.315   7.711  0.0875 -0.1986 -0.0156
  866YOPE   C4A12816   8.350  15.128   7.984 -0.1480  0.1664  0.3103
  866YOPE   C1B12817   8.370  15.991   6.768 -0.0770 -0.0019  0.1687
  866YOPE   C2B12818   8.333  15.939   7.189  0.1843  0.1518  0.0607
  866YOPE   D3B12819   8.496  16.084   7.527  0.0301 -0.0915  0.0693
  866YOPE   C4B12820   8.813  15.821   7.709  0.0895  0.0269  0.2156
  867YOPE   NH312821  15.756  17.730   6.190 -0.0777 -0.2033 -0.0719
  867YOPE   PO412822  15.503  18.108   6.164 -0.1238 -0.3906 -0.0809
  867YOPE   GL112823  15.397  17.993   6.593 -0.1034 -0.2718 -0.2446
  867YOPE   GL212824  15.041  17.794   6.613 -0.1838 -0.2994 -0.0768
  867YOPE   C1A12825  15.494  17.851   7.023 -0.0624  0.0403 -0.0297
  867YOPE   D2A12826  15.429  17.899   7.491  0.0934  0.0814 -0.0338
  867YOPE   C3A12827  15.280  18.222   7.732  0.0244  0.1766  0.0990
  867YOPE   C4A12828  15.369  18.489   8.162  0.0461  0.4363  0.0626
  867YOPE   C1B12829  14.997  17.564   6.988  0.1147 -0.3559  0.0814
  867YOPE   C2B12830  15.080  17.570   7.367  0.2354  0.1972 -0.2139
  867YOPE   D3B12831  15.306  17.520   7.843  0.2114  0.2278  0.1057
  867YOPE   C4B12832  15.450  17.435   8.235  0.2955 -0.2131  0.1456
  868YOPE   NH312833   7.772  13.536   5.920  0.1572  0.0563 -0.3438
  868YOPE   PO412834   7.844  13.917   5.741  0.1497  0.0689  0.2608
  868YOPE   GL112835   7.942  14.097   6.054  0.1241  0.1340  0.0423
  868YOPE   GL212836   7.996  13.777   6.284 -0.1397  0.1972 -0.2169
  868YOPE   C1A12837   8.043  14.321   6.387  0.0412  0.1960 -0.0009
  868YOPE   D2A12838   8.355  14.309   6.727  0.2602  0.0659 -0.1566
  868YOPE   C3A12839   8.425  14.554   7.049  0.0214 -0.1321  0.0211
  868YOPE   C4A12840   8.200  14.696   7.351 -0.0831 -0.0190 -0.1941
  868YOPE   C1B12841   8.085  13.919   6.690 -0.2358 -0.1203  0.1525
  868YOPE   C2B12842   8.153  14.069   7.249 -0.1642  0.2390 -0.0737
  868YOPE   D3B12843   8.057  14.219   7.579 -0.0347 -0.0776  0.2240
  868YOPE   C4B12844   8.094  14.648   7.862 -0.1162 -0.1735 -0.0604
  869YOPE   NH312845   8.790   5.526   6.289 -0.0468 -0.2924  0.0429
  869YOPE   PO412846   8.742   5.983   6.316 -0.1701  0.0459  0.2333
  869YOPE   GL112847   8.787   6.214   6.681  0.0510  0.0731  0.0600
  869YOPE   GL212848   8.995   6.420   6.649 -0.4568  0.1680 -0.0240
  869YOPE   C1A12849   8.608   6.360   7.063  0.4372  0.1276 -0.3026
  869YOPE   D2A12850   8.556   6.460   7.461  0.1123 -0.1105 -0.3007
  869YOPE   C3A12851   8.874   6.451   7.801  0.0531 -0.0534  0.0420
  869YOPE   C4A12852   9.294   6.334   7.788 -0.0372  0.2376  0.2511
  869YOPE   C1B12853   9.091   6.477   7.008 -0.0191  0.1172 -0.2215
  869YOPE   C2B12854   9.083   6.491   7.370 -0.2054  0.2447 -0.2019
  869YOPE   D3B12855   8.974   6.825   7.505  0.1845  0.2027  0.1584
  869YOPE   C4B12856   8.649   6.937   7.719  0.2157 -0.3352  0.0795
  870YOPE   NH312857   1.164   9.187   6.111 -0.1243  0.1423  0.0858
  870YOPE   PO412858   1.020   9.576   6.363 -0.1300  0.2165  0.0728
  870YOPE   GL112859   0.594   9.541   6.502 -0.0143 -0.1182 -0.1279
  870YOPE   GL212860   0.428   9.800   6.417 -0.0761 -0.0011 -0.1763
  870YOPE   C1A12861   0.422   9.526   6.903  0.0901  0.1348  0.5268
  870YOPE   D2A12862   0.292   9.747   7.158 -0.0520  0.0832 -0.1279
  870YOPE   C3A12863   0.554  10.051   7.433  0.2014 -0.1125 -0.3257
  870YOPE   C4A12864   0.726   9.952   7.830  0.2378  0.0705  0.0847
  870YOPE   C1B12865   0.508  10.089   6.840 -0.1596  0.0040  0.0144
  870YOPE   C2B12866   0.602  10.555   7.035  0.0853 -0.0904  0.0397
  870YOPE   D3B12867   0.659  10.820   7.382 -0.0524  0.0855  0.0603
  870YOPE   C4B12868   0.929  10.799   7.689 -0.0198 -0.1267 -0.2583
  871YOPE   NH312869   5.330   6.095   6.526 -0.2977 -0.1843  0.1531
  871YOPE   PO412870   5.097   6.433   6.374 -0.1408  0.2760  0.0077
  871YOPE   GL112871   4.950   6.394   6.747 -0.0123 -0.2604 -0.0412
  871YOPE   GL212872   4.928   6.172   7.042  0.1798  0.0977 -0.3565
  871YOPE   C1A12873   5.020   6.694   7.092  0.2237  0.4210  0.0328
  871YOPE   D2A12874   4.921   7.081   7.301 -0.2417  0.1631 -0.0473
  871YOPE   C3A12875   5.126   7.113   7.655 -0.2125  0.0777  0.1356
  871YOPE   C4A12876   5.332   6.955   8.032 -0.2522 -0.2033 -0.0421
  871YOPE   C1B12877   4.860   5.737   7.243  0.2140 -0.2391 -0.0959
  871YOPE   C2B12878   4.868   5.479   7.586  0.0021  0.1098  0.1966
  871YOPE   D3B12879   5.107   5.449   7.864  0.2437 -0.0555  0.1008
  871YOPE   C4B12880   5.199   4.964   7.945  0.0887  0.0195  0.0868
  872YOPE   NH312881   5.800   3.336   6.036 -0.1260 -0.1645  0.2795
  872YOPE   PO412882   5.953   2.979   5.979  0.1227  0.3777  0.0582
  872YOPE   GL112883   6.024   2.969   6.465 -0.2025  0.1217  0.2198
  872YOPE   GL212884   6.239   3.235   6.588  0.0675  0.0374 -0.1725
  872YOPE   C1A12885   6.074   2.940   6.919 -0.3309 -0.3394 -0.0140
  872YOPE   D2A12886   6.237   2.701   7.364 -0.1094  0.1230  0.1062
  872YOPE   C3A12887   5.964   2.882   7.634 -0.2228 -0.1717 -0.3221
  872YOPE   C4A12888   5.606   2.967   7.511  0.1143  0.4647 -0.0885
  872YOPE   C1B12889   6.480   3.333   6.906  0.2803 -0.1386  0.1024
  872YOPE   C2B12890   6.456   3.218   7.320 -0.2134  0.2001  0.1511
  872YOPE   D3B12891   6.415   2.990   7.772 -0.1315 -0.0101  0.0001
  872YOPE   C4B12892   6.293   2.681   8.129  0.1129 -0.2803  0.3136
  873YOPE   NH312893  15.251   9.134   6.180 -0.2376 -0.3630  0.1012
  873YOPE   PO412894  15.132   9.506   6.110  0.1852 -0.0978  0.1700
  873YOPE   GL112895  15.088   9.618   6.525 -0.5303 -0.1351 -0.0159
  873YOPE   GL212896  14.694   9.730   6.634 -0.0187 -0.1600 -0.0906
  873YOPE   C1A12897  15.213   9.722   6.819 -0.0546 -0.3400 -0.4017
  873YOPE   D2A12898  15.593  10.067   7.026  0.0086  0.0422  0.2147
  873YOPE   C3A12899  15.736   9.984   7.520 -0.0293 -0.2498  0.0389
  873YOPE   C4A12900  15.940   9.935   7.869  0.1173  0.0019  0.1346
  873YOPE   C1B12901  14.504   9.273   6.590 -0.2729  0.1454  0.0598
  873YOPE   C2B12902  14.508   8.876   6.771 -0.1118 -0.1274 -0.1978
  873YOPE   D3B12903  14.556   8.883   7.223  0.4629 -0.0889  0.1754
  873YOPE   C4B12904  14.576   8.720   7.599 -0.3909  0.1731 -0.0740
  874YOPE   NH312905   5.586   0.348   5.930 -0.0168  0.2952 -0.0226
  874YOPE   PO412906   6.000   0.224   5.970  0.0596 -0.1307 -0.0009
  874YOPE   GL112907   5.871   0.460   6.374  0.3163 -0.5411  0.1856
  874YOPE   GL212908   5.645   0.172   6.403  0.0512  0.1405  0.1692
  874YOPE   C1A12909   5.971   0.452   6.834  0.0198 -0.0888 -0.0868
  874YOPE   D2A12910   6.014   0.282   7.201 -0.2250  0.0012 -0.0062
  874YOPE   C3A12911   5.837   0.457   7.466 -0.5025 -0.2659  0.1644
  874YOPE   C4A12912   5.774   0.744   7.666  0.0041  0.1005  0.1971
  874YOPE   C1B12913   5.596   0.113   6.789 -0.0804 -0.2602  0.2307
  874YOPE   C2B12914   5.567   0.093   7.243 -0.0406 -0.0432  0.0671
  874YOPE   D3B12915   5.309   0.048   7.704 -0.2303  0.0076 -0.1514
  874YOPE   C4B12916   5.279   0.045   8.114 -0.1995  0.1929 -0.2444
  875YOPE   NH312917   2.045   9.343   6.079  0.2297 -0.3643 -0.1275
  875YOPE   PO412918   2.399   9.206   5.996 -0.0022 -0.3919 -0.1261
  875YOPE   GL112919   2.411   9.327   6.466 -0.0537  0.0210 -0.0894
  875YOPE   GL212920   2.648   9.241   6.595  0.0499 -0.1978  0.0489
  875YOPE   C1A12921   2.265   9.548   6.879 -0.0006 -0.2454  0.1012
  875YOPE   D2A12922   2.021   9.688   7.101 -0.1005  0.1313  0.0439
  875YOPE   C3A12923   2.039   9.579   7.551 -0.0771 -0.1386  0.3752
  875YOPE   C4A12924   1.955   9.722   7.991  0.0281 -0.1811 -0.2929
  875YOPE   C1B12925   2.548   9.201   7.025 -0.1215  0.0093 -0.0265
  875YOPE   C2B12926   2.561   9.182   7.427 -0.0559  0.1866 -0.0630
  875YOPE   D3B12927   2.867   9.028   7.725 -0.0119 -0.0907  0.0069
  875YOPE   C4B12928   2.956   8.834   8.040 -0.2334  0.1473  0.3485
  876YOPE   NH312929  16.899   7.625   6.449  0.2945 -0.0176 -0.1387
  876YOPE   PO412930  16.492   7.851   6.294  0.1111  0.1075 -0.1403
  876YOPE   GL112931  16.272   7.761   6.710 -0.0873  0.0034  0.1488
  876YOPE   GL212932  15.946   7.734   6.784  0.1552 -0.0983  0.0487
  876YOPE   C1A12933  16.319   7.501   7.160 -0.1193  0.0727  0.2147
  876YOPE   D2A12934  16.453   7.287   7.631  0.0529 -0.1134 -0.0181
  876YOPE   C3A12935  16.469   7.480   8.100  0.1005 -0.1173  0.2860
  876YOPE   C4A12936  16.572   7.871   8.268 -0.4664  0.0194 -0.1758
  876YOPE   C1B12937  15.974   7.858   7.235 -0.3386 -0.2150 -0.0547
  876YOPE   C2B12938  16.185   7.895   7.624  0.0517 -0.1098 -0.1945
  876YOPE   D3B12939  16.360   8.130   7.860  0.2104  0.2012 -0.1004
  876YOPE   C4B12940  16.276   8.220   8.327 -0.0946 -0.3358  0.1943
  877YOPE   NH312941   1.388   9.782   5.766  0.0586 -0.0590 -0.0049
  877YOPE   PO412942   1.515   9.518   6.161 -0.0360 -0.0910  0.4735
  877YOPE   GL112943   1.619   9.334   6.530 -0.0606  0.2544 -0.3198
  877YOPE   GL212944   1.447   8.975   6.551  0.1429 -0.0229 -0.0603
  877YOPE   C1A12945   1.626   9.413   7.038  0.5177 -0.0530 -0.2698
  877YOPE   D2A12946   1.525   9.509   7.476  0.2159 -0.1634 -0.1449
  877YOPE   C3A12947   1.108   9.757   7.631  0.1212  0.1051 -0.0314
  877YOPE   C4A12948   0.940   9.653   8.104 -0.2410  0.0540  0.4091
  877YOPE   C1B12949   1.420   8.873   6.988  0.0862  0.3225  0.0596
  877YOPE   C2B12950   1.406   8.845   7.384 -0.1534  0.1192  0.0015
  877YOPE   D3B12951   1.519   9.009   7.770 -0.1845 -0.1134  0.0320
  877YOPE   C4B12952   1.221   9.187   8.075 -0.0166  0.1752 -0.0662
  878YOPE   NH312953   5.028   4.104   6.323  0.2585 -0.2583  0.2231
  878YOPE   PO412954   4.621   4.406   6.333 -0.0637 -0.0974 -0.0847
  878YOPE   GL112955   4.713   4.589   6.695  0.1409  0.1200  0.1284
  878YOPE   GL212956   5.049   4.395   6.760  0.1767 -0.4808  0.1150
  878YOPE   C1A12957   4.755   4.629   7.166 -0.0516 -0.1783  0.1480
  878YOPE   D2A12958   4.610   4.565   7.567 -0.2679  0.2288  0.0427
  878YOPE   C3A12959   4.713   4.888   7.866  0.1271 -0.1013 -0.0698
  878YOPE   C4A12960   4.850   4.812   8.345 -0.2083  0.1419  0.0334
  878YOPE   C1B12961   5.184   4.163   7.118 -0.1346 -0.1762 -0.2574
  878YOPE   C2B12962   4.940   4.152   7.512  0.1125 -0.3171 -0.2996
  878YOPE   D3B12963   5.010   3.972   7.871  0.3475  0.1535 -0.0290
  878YOPE   C4B12964   4.665   4.024   7.930  0.3284 -0.2196  0.1046
  879YOPE   NH312965   9.495  11.053   5.975 -0.4024  0.0463  0.1612
  879YOPE   PO412966   9.679  10.761   6.119 -0.0632 -0.0255  0.1867
  879YOPE   GL112967   9.558  10.538   6.524 -0.0228  0.3012  0.2029
  879YOPE   GL212968   9.775  10.610   6.814  0.0993 -0.2320 -0.3892
  879YOPE   C1A12969   9.511  10.079   6.768 -0.2778  0.1139 -0.3231
  879YOPE   D2A12970   9.549   9.901   7.214 -0.3248 -0.0617  0.1364
  879YOPE   C3A12971   9.511  10.162   7.540 -0.1477  0.1724 -0.4960
  879YOPE   C4A12972   9.185  10.509   7.672  0.0347  0.2004 -0.4166
  879YOPE   C1B12973   9.723  10.595   7.239 -0.0650 -0.2064  0.1135
  879YOPE   C2B12974   9.660  10.677   7.645  0.1689 -0.1480  0.1432
  879YOPE   D3B12975   9.767  10.821   8.153  0.0268  0.1255  0.2585
  879YOPE   C4B12976   9.938  10.753   8.629  0.2849  0.4458  0.1542
  880YOPE   NH312977   3.880   7.670   6.695 -0.2099  0.2188 -0.0747
  880YOPE   PO412978   3.533   7.930   6.640 -0.1276 -0.2973 -0.0132
  880YOPE   GL112979   3.477   8.305   6.798  0.0546  0.0904  0.3653
  880YOPE   GL212980   3.089   8.441   6.921  0.0099 -0.1332  0.0108
  880YOPE   C1A12981   3.605   8.518   7.165 -0.0177 -0.1987  0.0209
  880YOPE   D2A12982   3.578   8.559   7.559 -0.2949  0.1050 -0.2750
  880YOPE   C3A12983   3.701   8.631   8.024  0.0523 -0.0672 -0.0708
  880YOPE   C4A12984   3.881   8.779   8.388 -0.0335  0.2232  0.1797
  880YOPE   C1B12985   3.239   8.236   7.310 -0.3111  0.2263 -0.1848
  880YOPE   C2B12986   3.100   8.044   7.685 -0.4025 -0.2883  0.0407
  880YOPE   D3B12987   2.955   7.901   8.043 -0.0934  0.1111  0.0179
  880YOPE   C4B12988   2.995   8.141   8.406 -0.0123 -0.3021  0.0720
  881YOPE   NH312989   4.443   0.957   5.795  0.1394 -0.0055  0.0222
  881YOPE   PO412990   4.816   0.888   5.991  0.3203 -0.2203 -0.0442
  881YOPE   GL112991   4.581   0.582   6.228 -0.0882 -0.1553 -0.0277
  881YOPE   GL212992   4.761   0.467   6.354 -0.2631 -0.0621  0.0426
  881YOPE   C1A12993   4.332   0.555   6.578  0.2828  0.1367  0.0095
  881YOPE   D2A12994   4.314   0.537   7.034  0.0813  0.1590 -0.1649
  881YOPE   C3A12995   3.904   0.578   7.130  0.0076 -0.1155  0.0395
  881YOPE   C4A12996   3.441   0.659   7.176  0.1223 -0.0329  0.1915
  881YOPE   C1B12997   4.770   0.779   6.737  0.3737 -0.0820 -0.1899
  881YOPE   C2B12998   4.697   0.863   7.122 -0.1897 -0.0929  0.1801
  881YOPE   D3B12999   4.842   0.774   7.487  0.1034 -0.0964  0.0755
  881YOPE   C4B13000   4.812   0.565   7.954 -0.2427  0.0386  0.0201
  882YOPE   NH313001   3.913   2.439   6.232 -0.1138 -0.2180 -0.0816
  882YOPE   PO413002   4.171   2.686   5.856  0.0332 -0.1509 -0.0977
  882YOPE   GL113003   4.388   2.783   6.190 -0.0916 -0.0284  0.0224
  882YOPE   GL213004   4.181   2.909   6.443  0.2733 -0.1621 -0.2004
  882YOPE   C1A13005   4.646   2.689   6.496  0.3298 -0.0125 -0.1694
  882YOPE   D2A13006   4.640   2.310   6.884  0.1327  0.0715  0.1332
  882YOPE   C3A13007   4.801   2.350   7.306 -0.0716 -0.2662 -0.2103
  882YOPE   C4A13008   4.447   2.485   7.621 -0.0660  0.1186 -0.0781
  882YOPE   C1B13009   4.265   2.617   6.797 -0.0928  0.1489  0.0783
  882YOPE   C2B13010   4.223   2.712   7.262  0.0613  0.0309  0.0534
  882YOPE   D3B13011   4.024   2.769   7.673  0.1101 -0.1240  0.0203
  882YOPE   C4B13012   3.811   3.063   7.748  0.0898  0.2191  0.0302
  883YOPE   NH313013   0.228  12.011   6.320  0.1960  0.3326  0.0091
  883YOPE   PO413014   0.476  11.645   6.264 -0.0274  0.0905 -0.1589
  883YOPE   GL113015   0.510  11.670   6.689 -0.0348 -0.4865 -0.2301
  883YOPE   GL213016   0.385  11.960   6.810 -0.0254  0.1832  0.0852
  883YOPE   C1A13017   0.756  11.644   7.126 -0.2608 -0.2991 -0.1458
  883YOPE   D2A13018   1.104  11.825   7.303  0.0578  0.1353 -0.0020
  883YOPE   C3A13019   1.364  11.637   7.702 -0.0450 -0.1541 -0.0441
  883YOPE   C4A13020   1.437  11.696   8.142  0.1188  0.0583  0.1311
  883YOPE   C1B13021   0.265  11.885   7.287 -0.0365 -0.3216 -0.2060
  883YOPE   C2B13022   0.199  12.054   7.653  0.0199  0.1299 -0.1286
  883YOPE   D3B13023   0.372  12.130   8.033 -0.0833 -0.0416  0.0548
  883YOPE   C4B13024   0.277  11.995   8.444 -0.0973 -0.3205 -0.1668
  884YOPE   NH313025  13.533  10.379   5.508 -0.0986  0.0522  0.2377
  884YOPE   PO413026  13.785  10.167   5.876 -0.1973  0.2477 -0.0561
  884YOPE   GL113027  13.870  10.404   6.259  0.0535 -0.0117  0.0835
  884YOPE   GL213028  14.155  10.514   6.339  0.0309  0.4998 -0.1437
  884YOPE   C1A13029  13.740  10.486   6.681  0.2600  0.0991  0.1266
  884YOPE   D2A13030  13.657  10.599   7.069 -0.0420  0.0383 -0.3527
  884YOPE   C3A13031  13.325  10.791   7.159 -0.0042 -0.3884 -0.1861
  884YOPE   C4A13032  13.093  10.763   7.492 -0.2410  0.0363  0.2255
  884YOPE   C1B13033  14.144  10.787   6.727  0.0335  0.0743  0.1012
  884YOPE   C2B13034  14.157  10.913   7.124  0.1564 -0.0664  0.1793
  884YOPE   D3B13035  14.095  11.046   7.661  0.1408 -0.0507 -0.0558
  884YOPE   C4B13036  13.799  11.246   7.853  0.1256  0.0122  0.0912
  885YOPE   NH313037   8.793   6.546   6.231  0.1585  0.0112 -0.1164
  885YOPE   PO413038   8.524   6.889   6.375  0.1219  0.2127  0.0834
  885YOPE   GL113039   8.309   6.978   6.735 -0.0762 -0.1473  0.0479
  885YOPE   GL213040   8.323   6.712   6.803  0.1892 -0.2726  0.1119
  885YOPE   C1A13041   8.103   7.216   7.072  0.1351  0.0501  0.2285
  885YOPE   D2A13042   7.837   7.505   7.010  0.1489 -0.0510  0.1902
  885YOPE   C3A13043   7.603   7.696   7.317 -0.2824 -0.0061  0.0697
  885YOPE   C4A13044   7.738   7.616   7.763  0.0210  0.1493  0.1286
  885YOPE   C1B13045   7.989   6.766   7.191 -0.2228  0.0476  0.2047
  885YOPE   C2B13046   7.822   6.718   7.501  0.3772  0.1010  0.1353
  885YOPE   D3B13047   7.803   6.738   7.901 -0.0851 -0.2240  0.0710
  885YOPE   C4B13048   7.733   6.984   8.258  0.1333 -0.2813  0.1748
  886YOPE   NH313049   0.552   3.246   6.194  0.1244  0.1242  0.2262
  886YOPE   PO413050   0.232   3.012   6.164 -0.1164  0.0495 -0.1188
  886YOPE   GL113051  -0.052   2.846   6.382 -0.3870 -0.0991  0.0228
  886YOPE   GL213052  -0.245   3.070   6.456 -0.1797 -0.2601 -0.0338
  886YOPE   C1A13053  -0.203   2.619   6.696  0.1830 -0.1162  0.2164
  886YOPE   D2A13054  -0.102   2.649   7.098 -0.0205 -0.0405 -0.1809
  886YOPE   C3A13055  -0.036   2.391   7.342  0.1383 -0.0274  0.1111
  886YOPE   C4A13056  -0.053   2.270   7.680 -0.0957  0.2360  0.3182
  886YOPE   C1B13057  -0.310   3.055   6.889  0.0132  0.3810 -0.1332
  886YOPE   C2B13058  -0.377   2.975   7.311  0.0177  0.2277 -0.2088
  886YOPE   D3B13059  -0.584   3.126   7.765 -0.4803 -0.1736 -0.1212
  886YOPE   C4B13060  -0.887   3.478   7.899  0.0017  0.1982  0.2050
  887YOPE   NH313061   4.598   8.177   6.641  0.0314 -0.1143  0.1233
  887YOPE   PO413062   4.419   7.827   6.484 -0.0905  0.1802  0.0427
  887YOPE   GL113063   4.323   7.781   6.897  0.1253 -0.2943 -0.1324
  887YOPE   GL213064   4.090   7.613   7.140  0.0970  0.1886  0.3965
  887YOPE   C1A13065   4.341   7.997   7.397 -0.1257 -0.0837  0.0521
  887YOPE   D2A13066   4.463   8.263   7.686 -0.0620  0.2528 -0.0667
  887YOPE   C3A13067   4.467   8.214   7.995 -0.2991  0.1408  0.0981
  887YOPE   C4A13068   4.411   8.494   8.343 -0.1227  0.0707  0.0462
  887YOPE   C1B13069   4.138   7.597   7.615  0.1432  0.0702  0.1824
  887YOPE   C2B13070   4.355   7.763   7.952  0.0743  0.0440  0.0022
  887YOPE   D3B13071   4.689   7.779   8.228  0.0046  0.2526  0.0362
  887YOPE   C4B13072   4.791   7.546   8.576  0.2726 -0.0306 -0.0838
  888YOPE   NH313073   1.750   6.534   6.106 -0.1015 -0.1468 -0.0146
  888YOPE   PO413074   1.441   6.780   6.079  0.0258 -0.3444 -0.4802
  888YOPE   GL113075   1.486   6.831   6.540 -0.1118  0.0918 -0.1002
  888YOPE   GL213076   1.618   6.561   6.645  0.1675 -0.1079 -0.1647
  888YOPE   C1A13077   1.290   6.821   6.969  0.1191 -0.0609 -0.1108
  888YOPE   D2A13078   1.270   7.089   7.281 -0.0674  0.1443  0.1676
  888YOPE   C3A13079   1.509   7.124   7.802 -0.2378  0.2390  0.0600
  888YOPE   C4A13080   1.507   7.391   8.188  0.1505  0.1732  0.2816
  888YOPE   C1B13081   1.776   6.716   6.947  0.0162 -0.2285 -0.0348
  888YOPE   C2B13082   1.798   6.882   7.433 -0.0112 -0.4211 -0.1346
  888YOPE   D3B13083   1.844   6.746   7.832  0.0866  0.0749  0.0233
  888YOPE   C4B13084   1.677   6.784   8.200 -0.0124 -0.0529 -0.0119
  889YOPE   NH313085   4.518   0.077   6.220  0.2448 -0.0117 -0.0891
  889YOPE   PO413086   4.170   0.081   5.872 -0.2418  0.1271 -0.0367
  889YOPE   GL113087   4.004  -0.064   6.298  0.0276 -0.3699  0.0025
  889YOPE   GL213088   4.084  -0.360   6.440  0.1393  0.4369 -0.1399
  889YOPE   C1A13089   4.172   0.052   6.743  0.0372 -0.0580  0.0698
  889YOPE   D2A13090   4.090  -0.026   7.146  0.3038  0.3662  0.0698
  889YOPE   C3A13091   3.956   0.212   7.547  0.0994  0.1456  0.0214
  889YOPE   C4A13092   3.560   0.418   7.607 -0.0493  0.1143  0.2205
  889YOPE   C1B13093   4.196  -0.449   6.866  0.1116 -0.1553  0.1548
  889YOPE   C2B13094   4.206  -0.499   7.293  0.3060 -0.0954 -0.0463
  889YOPE   D3B13095   4.065  -0.310   7.572  0.1817  0.1170  0.2487
  889YOPE   C4B13096   3.961  -0.157   7.972  0.3986 -0.1952  0.0194
  890YOPE   NH313097   1.386   4.244   6.355  0.0140 -0.2647 -0.1235
  890YOPE   PO413098   1.681   4.173   6.024  0.0462  0.0027 -0.1866
  890YOPE   GL113099   1.960   4.353   6.346  0.2287  0.0703 -0.2572
  890YOPE   GL213100   1.807   4.543   6.529 -0.1504 -0.0389 -0.3625
  890YOPE   C1A13101   2.095   4.295   6.790  0.3865  0.0823  0.0607
  890YOPE   D2A13102   2.234   4.355   7.184 -0.1130  0.0626 -0.1004
  890YOPE   C3A13103   2.105   4.348   7.612 -0.1444 -0.0428 -0.2607
  890YOPE   C4A13104   2.089   4.114   7.974 -0.0094  0.0914  0.0418
  890YOPE   C1B13105   1.660   4.380   6.955 -0.2346 -0.0856  0.1959
  890YOPE   C2B13106   1.676   4.365   7.328  0.1405 -0.1207  0.1455
  890YOPE   D3B13107   1.451   4.199   7.491 -0.1188  0.1805 -0.0899
  890YOPE   C4B13108   1.298   3.816   7.445  0.2320  0.2136 -0.1653
  891YOPE   NH313109  10.847   9.665   5.861  0.0526 -0.4240  0.1493
  891YOPE   PO413110  10.900  10.059   6.083 -0.1190  0.1008 -0.0178
  891YOPE   GL113111  10.820   9.796   6.379  0.0156  0.0039  0.0961
  891YOPE   GL213112  11.102   9.703   6.365 -0.0818  0.1265 -0.0732
  891YOPE   C1A13113  10.461   9.491   6.507  0.0020 -0.1224 -0.0035
  891YOPE   D2A13114  10.134   9.200   6.601 -0.2343  0.2938  0.0554
  891YOPE   C3A13115  10.219   8.866   6.726  0.1464  0.0890 -0.1132
  891YOPE   C4A13116  10.512   8.611   6.881  0.2885  0.4726  0.2018
  891YOPE   C1B13117  10.976   9.545   6.746  0.0712 -0.3072 -0.0117
  891YOPE   C2B13118  11.011   9.362   7.132  0.2049  0.2108  0.0141
  891YOPE   D3B13119  11.001   9.514   7.636  0.0310 -0.1116  0.1917
  891YOPE   C4B13120  11.085   9.825   8.017 -0.1471 -0.1436  0.4204
  892YOPE   NH313121   4.770   9.151   5.480 -0.0080 -0.2125 -0.1317
  892YOPE   PO413122   4.710   9.262   5.890  0.0974 -0.0665  0.1969
  892YOPE   GL113123   4.492   9.241   6.248  0.3620  0.1197  0.0669
  892YOPE   GL213124   4.310   9.067   6.427  0.0287  0.3960  0.3199
  892YOPE   C1A13125   4.588   9.454   6.573  0.0476 -0.2973 -0.2400
  892YOPE   D2A13126   4.936   9.794   6.734 -0.2624  0.3492  0.4123
  892YOPE   C3A13127   4.960   9.977   7.032 -0.0963 -0.0557  0.1738
  892YOPE   C4A13128   4.839  10.338   7.244 -0.1651 -0.1958  0.2201
  892YOPE   C1B13129   4.253   9.133   6.831  0.2132 -0.1908  0.2105
  892YOPE   C2B13130   4.222   9.383   7.171  0.0925  0.2243  0.4649
  892YOPE   D3B13131   4.096   9.494   7.534 -0.1502 -0.1247 -0.0017
  892YOPE   C4B13132   4.118   9.778   7.836 -0.0509  0.0551  0.0472
  893YOPE   NH313133   6.702   3.690   5.986  0.1236  0.2352  0.1279
  893YOPE   PO413134   6.622   4.116   6.168  0.1411 -0.0269 -0.1215
  893YOPE   GL113135   6.886   4.134   6.484  0.1796  0.2527  0.1904
  893YOPE   GL213136   6.969   4.439   6.458  0.1131 -0.0905  0.1212
  893YOPE   C1A13137   7.116   4.180   6.888  0.0451 -0.0956 -0.1293
  893YOPE   D2A13138   7.290   3.944   7.221 -0.0175 -0.2754 -0.2674
  893YOPE   C3A13139   7.176   4.117   7.524 -0.1325 -0.1045  0.0643
  893YOPE   C4A13140   7.099   4.255   7.936  0.4947  0.1343 -0.0612
  893YOPE   C1B13141   6.765   4.616   6.856  0.1505  0.0778  0.4905
  893YOPE   C2B13142   6.469   4.642   7.230  0.2151 -0.2700  0.2615
  893YOPE   D3B13143   6.320   4.631   7.616 -0.0706  0.3284 -0.0993
  893YOPE   C4B13144   6.445   4.773   8.070  0.0183 -0.0315 -0.0247
  894YOPE   NH313145   7.512  11.066   6.243 -0.3700  0.1307  0.0385
  894YOPE   PO413146   7.567  11.537   6.312 -0.0818 -0.0036  0.1377
  894YOPE   GL113147   7.535  11.531   6.641 -0.1552  0.0567 -0.1330
  894YOPE   GL213148   7.675  11.292   6.765 -0.0833 -0.2587 -0.0836
  894YOPE   C1A13149   7.524  11.381   7.206 -0.2477 -0.1852 -0.0178
  894YOPE   D2A13150   7.428  11.479   7.596 -0.0417  0.1061  0.0382
  894YOPE   C3A13151   7.691  11.729   7.957 -0.0948  0.0753  0.2866
  894YOPE   C4A13152   7.743  11.632   8.387  0.0506  0.1258  0.1410
  894YOPE   C1B13153   7.995  11.598   7.084 -0.3029  0.2289 -0.0116
  894YOPE   C2B13154   8.232  11.631   7.414  0.3198 -0.0775  0.1982
  894YOPE   D3B13155   8.551  11.693   7.662 -0.3912  0.0160 -0.0889
  894YOPE   C4B13156   8.767  11.984   7.830 -0.4104 -0.1879 -0.0759
  895YOPE   NH313157  16.537  16.491   6.010  0.0526 -0.0323  0.1729
  895YOPE   PO413158  16.922  16.309   6.052 -0.1491  0.1884  0.0541
  895YOPE   GL113159  17.077  16.243   6.565 -0.0801  0.0102  0.0215
  895YOPE   GL213160  17.477  16.246   6.615  0.1101 -0.2872  0.0792
  895YOPE   C1A13161  16.930  16.164   6.966  0.0277 -0.2513 -0.0682
  895YOPE   D2A13162  17.025  15.841   7.282  0.0632  0.0907 -0.1011
  895YOPE   C3A13163  16.785  15.883   7.549 -0.3067 -0.0427  0.0112
  895YOPE   C4A13164  16.465  15.613   7.539  0.0464 -0.2287 -0.1498
  895YOPE   C1B13165  17.476  16.151   7.034 -0.1458 -0.0846 -0.0617
  895YOPE   C2B13166  17.531  15.943   7.494 -0.0861  0.1174  0.1277
  895YOPE   D3B13167  17.220  15.636   7.734  0.0260  0.2491  0.4269
  895YOPE   C4B13168  17.274  15.358   8.046  0.1975 -0.1839  0.0531
  896YOPE   NH313169  12.927  13.078   5.533  0.3213 -0.1293  0.0167
  896YOPE   PO413170  12.959  13.432   5.880 -0.0619 -0.0907  0.0488
  896YOPE   GL113171  12.783  13.427   6.196 -0.0256 -0.0286 -0.2784
  896YOPE   GL213172  12.715  13.202   6.539 -0.0502  0.0364  0.1721
  896YOPE   C1A13173  12.831  13.721   6.653  0.1940 -0.0537  0.3401
  896YOPE   D2A13174  12.975  14.099   6.997 -0.0152  0.1586 -0.0767
  896YOPE   C3A13175  12.801  14.101   7.450 -0.1626  0.0414  0.0672
  896YOPE   C4A13176  12.974  13.952   7.853  0.0922  0.1012  0.1777
  896YOPE   C1B13177  12.899  13.215   6.987  0.0931  0.2274 -0.0822
  896YOPE   C2B13178  13.027  13.297   7.375 -0.2019 -0.2653 -0.4036
  896YOPE   D3B13179  13.092  13.472   7.791 -0.0096  0.0315  0.1605
  896YOPE   C4B13180  13.212  13.242   8.146  0.1510 -0.1798  0.0107
  897YOPE   NH313181   4.141  13.416   5.976  0.0880  0.0483  0.0995
  897YOPE   PO413182   4.485  13.671   5.909 -0.1877  0.0010 -0.2468
  897YOPE   GL113183   4.664  13.399   6.332 -0.1734  0.0357 -0.1376
  897YOPE   GL213184   4.876  13.052   6.383 -0.2029  0.0655 -0.3075
  897YOPE   C1A13185   4.385  13.328   6.701 -0.2648 -0.0783  0.1520
  897YOPE   D2A13186   4.483  13.258   7.068  0.1910 -0.2705 -0.1929
  897YOPE   C3A13187   4.267  13.221   7.455 -0.1740 -0.0926  0.1299
  897YOPE   C4A13188   4.354  13.304   7.875  0.1001 -0.2736 -0.1506
  897YOPE   C1B13189   4.679  12.962   6.722 -0.1405 -0.1148  0.3633
  897YOPE   C2B13190   4.545  12.804   7.126 -0.2817 -0.1527 -0.0989
  897YOPE   D3B13191   4.419  12.783   7.601 -0.2563 -0.0568  0.5187
  897YOPE   C4B13192   4.452  12.706   8.022  0.1467  0.2194 -0.1003
  898YOPE   NH313193  17.126  11.599   6.215  0.1798 -0.0898 -0.0433
  898YOPE   PO413194  16.717  11.808   6.332  0.0171  0.1860  0.2885
  898YOPE   GL113195  16.745  11.940   6.736  0.3243  0.1937  0.3580
  898YOPE   GL213196  16.844  12.272   6.857 -0.1236 -0.4844  0.0171
  898YOPE   C1A13197  16.811  11.820   7.054 -0.0731  0.1932 -0.0936
  898YOPE   D2A13198  16.748  11.833   7.510  0.0379 -0.0207  0.1318
  898YOPE   C3A13199  16.582  11.410   7.575  0.0616 -0.1334  0.1438
  898YOPE   C4A13200  16.397  11.047   7.677  0.0566  0.3242 -0.3106
  898YOPE   C1B13201  16.839  12.366   7.318  0.0361 -0.0316  0.2978
  898YOPE   C2B13202  17.003  12.341   7.647 -0.0826 -0.1203  0.0245
  898YOPE   D3B13203  17.269  12.495   7.834 -0.0083 -0.2477  0.0889
  898YOPE   C4B13204  17.351  12.795   8.204  0.0271 -0.2272 -0.0042
  899YOPE   NH313205   6.226  12.124   5.694 -0.2868 -0.0599 -0.1869
  899YOPE   PO413206   6.421  12.043   6.134 -0.0310 -0.3129 -0.2650
  899YOPE   GL113207   6.574  12.017   6.531  0.1300 -0.1014 -0.2102
  899YOPE   GL213208   6.547  11.781   6.588  0.0673 -0.1488  0.2033
  899YOPE   C1A13209   6.828  12.122   6.859  0.0359  0.2137 -0.3905
  899YOPE   D2A13210   7.033  12.115   7.180 -0.1041 -0.0444  0.0462
  899YOPE   C3A13211   7.076  11.715   7.344 -0.0164  0.0220  0.0458
  899YOPE   C4A13212   7.028  11.284   7.271 -0.1853  0.0196 -0.0895
  899YOPE   C1B13213   6.551  11.795   7.080  0.0757 -0.0748 -0.2706
  899YOPE   C2B13214   6.452  11.779   7.521 -0.0257 -0.1362 -0.0413
  899YOPE   D3B13215   6.426  11.901   7.974 -0.0261  0.0091 -0.0639
  899YOPE   C4B13216   6.303  11.716   8.457  0.0816 -0.0663  0.0547
  900YOPE   NH313217  16.656   8.356   6.166 -0.1040 -0.1123  0.0359
  900YOPE   PO413218  16.406   8.697   5.844  0.4336  0.1652 -0.0524
  900YOPE   GL113219  16.472   8.939   6.331 -0.0806  0.0089 -0.4217
  900YOPE   GL213220  16.459   8.734   6.488 -0.1931  0.3035 -0.0116
  900YOPE   C1A13221  16.568   9.255   6.722 -0.2635 -0.1104 -0.0967
  900YOPE   D2A13222  16.580   9.251   7.208 -0.0416 -0.0278 -0.4017
  900YOPE   C3A13223  16.766   9.498   7.549 -0.1058 -0.0651 -0.0975
  900YOPE   C4A13224  16.766   9.415   7.971  0.2368 -0.0412 -0.1353
  900YOPE   C1B13225  16.543   8.784   6.942 -0.1236  0.1588 -0.0996
  900YOPE   C2B13226  16.555   8.751   7.380 -0.1804  0.1922  0.1733
  900YOPE   D3B13227  16.677   8.960   7.739 -0.1575 -0.1900  0.0882
  900YOPE   C4B13228  16.650   8.981   8.184 -0.1163  0.3142 -0.3912
  901YOPE   NH313229  12.230   9.330   6.188  0.1682 -0.0292  0.3037
  901YOPE   PO413230  11.807   9.340   6.106 -0.0807  0.4085  0.1056
  901YOPE   GL113231  11.955   9.665   6.499  0.2520  0.0139  0.1381
  901YOPE   GL213232  12.172   9.424   6.685 -0.1319 -0.0981  0.1101
  901YOPE   C1A13233  11.905   9.935   6.937 -0.2203  0.1560 -0.1378
  901YOPE   D2A13234  11.971   9.945   7.379 -0.0213  0.2166  0.1553
  901YOPE   C3A13235  11.972  10.273   7.569 -0.0047  0.2371 -0.1068
  901YOPE   C4A13236  11.763  10.625   7.883 -0.0072 -0.3727 -0.1189
  901YOPE   C1B13237  12.178   9.454   7.143  0.0785 -0.1138 -0.0782
  901YOPE   C2B13238  12.163   9.480   7.533 -0.4366 -0.0871 -0.0190
  901YOPE   D3B13239  11.960   9.338   7.848 -0.1442 -0.0499  0.0949
  901YOPE   C4B13240  11.800   9.222   8.226 -0.2304 -0.4383 -0.0599
  902YOPE   NH313241   1.764  13.695   6.064  0.1393  0.0219 -0.1078
  902YOPE   PO413242   1.656  13.233   6.313  0.0372  0.0375  0.2586
  902YOPE   GL113243   1.657  13.048   6.688 -0.0346 -0.0267 -0.2482
  902YOPE   GL213244   1.399  13.169   6.807 -0.0208 -0.0673 -0.1071
  902YOPE   C1A13245   1.743  12.993   7.170  0.1060  0.0546 -0.3439
  902YOPE   D2A13246   1.528  12.892   7.620 -0.0166  0.0228  0.1678
  902YOPE   C3A13247   1.120  12.985   7.793 -0.0881 -0.2411 -0.5185
  902YOPE   C4A13248   1.061  12.828   8.213 -0.0614  0.0710  0.0131
  902YOPE   C1B13249   1.624  13.480   7.073 -0.3474 -0.0685  0.1641
  902YOPE   C2B13250   1.649  13.403   7.505 -0.1710  0.3051 -0.0366
  902YOPE   D3B13251   1.625  13.371   7.890 -0.0477 -0.3168  0.0654
  902YOPE   C4B13252   1.557  13.096   8.196  0.3081 -0.0709 -0.2001
  903YOPE   NH313253  16.341   3.845   5.605  0.1444 -0.1959  0.0215
  903YOPE   PO413254  15.907   3.601   5.761 -0.0341 -0.3026 -0.0543
  903YOPE   GL113255  15.986   3.875   6.093 -0.3899 -0.1238 -0.2222
  903YOPE   GL213256  16.037   3.750   6.341 -0.1760  0.2850  0.3632
  903YOPE   C1A13257  15.788   4.168   6.418 -0.0532  0.0262 -0.0047
  903YOPE   D2A13258  15.557   4.359   6.679 -0.1081  0.2646 -0.2383
  903YOPE   C3A13259  15.583   4.226   7.140  0.0562  0.1607 -0.1190
  903YOPE   C4A13260  15.475   4.217   7.669 -0.1586 -0.0258 -0.0708
  903YOPE   C1B13261  15.876   3.833   6.775  0.1790  0.0290  0.0016
  903YOPE   C2B13262  15.822   3.836   7.322 -0.0419  0.0546 -0.4153
  903YOPE   D3B13263  15.814   3.768   7.701 -0.0398 -0.0247 -0.0849
  903YOPE   C4B13264  15.902   3.531   7.943  0.0407  0.1958 -0.2476
  904YOPE   NH313265   6.482  16.427   5.223  0.0640 -0.2644  0.2159
  904YOPE   PO413266   6.243  16.128   5.400  0.1493  0.3057 -0.0292
  904YOPE   GL113267   6.155  16.119   5.764 -0.1432 -0.0089  0.0625
  904YOPE   GL213268   6.216  15.993   5.957 -0.0920  0.0713  0.0409
  904YOPE   C1A13269   6.019  16.486   6.114  0.1161 -0.0897 -0.2052
  904YOPE   D2A13270   6.150  16.577   6.579 -0.0318 -0.1773  0.2446
  904YOPE   C3A13271   6.125  16.324   7.002 -0.1162 -0.3493 -0.0192
  904YOPE   C4A13272   6.069  16.527   7.341 -0.1330 -0.0234  0.4046
  904YOPE   C1B13273   6.100  16.063   6.362 -0.2968  0.0101  0.0250
  904YOPE   C2B13274   5.921  15.799   6.626 -0.2240 -0.4889  0.3215
  904YOPE   D3B13275   5.903  15.931   6.998 -0.0281 -0.0841 -0.0408
  904YOPE   C4B13276   5.767  15.913   7.388  0.1631 -0.0199 -0.2253
  905YOPE   NH313277   5.340   8.119   6.238  0.4448 -0.1664 -0.2785
  905YOPE   PO413278   4.980   7.915   6.382 -0.5039 -0.1974  0.0670
  905YOPE   GL113279   5.096   8.016   6.804 -0.0177  0.2935  0.0782
  905YOPE   GL213280   4.969   7.857   6.971 -0.0942 -0.1225  0.0606
  905YOPE   C1A13281   5.285   8.302   7.120 -0.1062 -0.0018 -0.1895
  905YOPE   D2A13282   5.377   8.269   7.504  0.1261 -0.0549 -0.3009
  905YOPE   C3A13283   5.258   8.457   7.855 -0.1691  0.0092  0.0052
  905YOPE   C4A13284   5.429   8.353   8.162 -0.0136 -0.1761  0.0607
  905YOPE   C1B13285   5.059   7.948   7.377 -0.2924  0.1964  0.2359
  905YOPE   C2B13286   4.902   8.030   7.810  0.2052  0.1844 -0.1703
  905YOPE   D3B13287   4.911   8.226   8.231 -0.1254 -0.0051  0.1241
  905YOPE   C4B13288   4.674   8.238   8.666  0.1833 -0.2562  0.0030
  906YOPE   NH313289  10.096  17.140   6.094 -0.1653  0.1002 -0.0201
  906YOPE   PO413290   9.685  17.161   5.917  0.1535  0.2292 -0.1242
  906YOPE   GL113291   9.667  16.970   6.269 -0.1375 -0.1234 -0.1036
  906YOPE   GL213292   9.441  16.762   6.243  0.0666  0.2476 -0.0961
  906YOPE   C1A13293   9.662  17.090   6.755  0.2365 -0.1008 -0.4389
  906YOPE   D2A13294   9.594  17.119   7.252 -0.0559 -0.0492  0.3664
  906YOPE   C3A13295   9.725  17.053   7.686  0.1563  0.0277 -0.2559
  906YOPE   C4A13296   9.736  16.697   7.996  0.0845 -0.0832 -0.0823
  906YOPE   C1B13297   9.256  17.291   6.447 -0.2124  0.1283  0.0666
  906YOPE   C2B13298   9.057  17.445   6.798 -0.1199  0.2126 -0.0871
  906YOPE   D3B13299   9.021  17.464   7.257  0.3567 -0.0651 -0.2054
  906YOPE   C4B13300   9.120  17.278   7.558 -0.1065  0.0721  0.3139
  907YOPE   NH313301  13.333   4.756   6.215 -0.3171  0.2046 -0.0745
  907YOPE   PO413302  13.554   5.186   6.073 -0.0888  0.0893  0.1009
  907YOPE   GL113303  13.874   5.480   6.235  0.1601 -0.2623  0.0912
  907YOPE   GL213304  13.893   5.315   6.525 -0.0976 -0.1768 -0.2391
  907YOPE   C1A13305  14.343   5.770   6.233 -0.1525  0.0942  0.1841
  907YOPE   D2A13306  14.571   6.011   6.535  0.0818 -0.0113  0.1679
  907YOPE   C3A13307  14.522   5.868   6.941  0.1133 -0.1170  0.0721
  907YOPE   C4A13308  14.643   5.812   7.352  0.0438 -0.3369  0.1597
  907YOPE   C1B13309  13.696   5.125   6.914  0.0204  0.1564 -0.0654
  907YOPE   C2B13310  13.723   5.163   7.364  0.1523 -0.0171  0.0789
  907YOPE   D3B13311  13.559   5.359   7.779 -0.0061 -0.1428  0.1664
  907YOPE   C4B13312  13.684   5.573   8.185 -0.2958  0.0396 -0.0572
  908YOPE   NH313313  14.462   7.059   5.743 -0.1296  0.3063 -0.2928
  908YOPE   PO413314  14.152   6.810   5.937  0.0577  0.2082 -0.3065
  908YOPE   GL113315  13.988   6.666   6.362 -0.0629 -0.0758 -0.0240
  908YOPE   GL213316  14.198   6.601   6.417  0.0919  0.0046  0.0894
  908YOPE   C1A13317  13.634   6.599   6.672  0.3122 -0.2488  0.0024
  908YOPE   D2A13318  13.485   6.585   7.089 -0.1704 -0.0961 -0.0007
  908YOPE   C3A13319  13.224   6.303   7.256 -0.1679 -0.0324  0.0959
  908YOPE   C4A13320  12.960   6.059   7.519  0.1577  0.1171 -0.0112
  908YOPE   C1B13321  14.186   6.790   6.820  0.2001 -0.1778 -0.1018
  908YOPE   C2B13322  14.050   6.613   7.104 -0.1753 -0.0562 -0.0973
  908YOPE   D3B13323  13.966   6.500   7.445  0.1111  0.1508  0.1077
  908YOPE   C4B13324  14.210   6.407   7.880  0.0165 -0.0887  0.1569
  909YOPE   NH313325   8.488   2.889   6.114  0.2399 -0.0605 -0.0470
  909YOPE   PO413326   8.584   2.457   6.060  0.1692  0.0453 -0.0194
  909YOPE   GL113327   8.708   2.596   6.448 -0.2067  0.2437 -0.0338
  909YOPE   GL213328   8.997   2.427   6.431 -0.0668  0.0266 -0.1405
  909YOPE   C1A13329   8.592   2.700   6.877  0.4498  0.1562  0.0249
  909YOPE   D2A13330   8.514   2.602   7.338 -0.0312  0.1601 -0.1065
  909YOPE   C3A13331   8.144   2.514   7.520 -0.0011  0.3366 -0.1390
  909YOPE   C4A13332   8.035   2.483   7.959  0.4300 -0.3525 -0.1573
  909YOPE   C1B13333   9.068   2.485   6.798  0.1357  0.1185  0.1277
  909YOPE   C2B13334   9.001   2.574   7.196 -0.1724 -0.1343 -0.1179
  909YOPE   D3B13335   9.104   2.432   7.637 -0.2337  0.1492  0.2846
  909YOPE   C4B13336   9.085   2.500   8.124 -0.3326  0.1022  0.2047
  910YOPE   NH313337  15.175  12.344   5.930 -0.1127  0.5435 -0.1636
  910YOPE   PO413338  14.856  12.054   5.912 -0.2329  0.0966 -0.0427
  910YOPE   GL113339  14.634  11.902   6.162 -0.1154 -0.2406  0.1845
  910YOPE   GL213340  14.752  11.533   6.246 -0.2443  0.0151  0.2955
  910YOPE   C1A13341  14.208  11.793   6.348  0.1130  0.0163 -0.0124
  910YOPE   D2A13342  13.928  12.134   6.486 -0.2197  0.0117 -0.0600
  910YOPE   C3A13343  13.926  12.179   6.827 -0.0086  0.0077 -0.2270
  910YOPE   C4A13344  13.877  12.302   7.216  0.0182 -0.1280 -0.2080
  910YOPE   C1B13345  14.734  11.712   6.605 -0.0756 -0.0582 -0.0721
  910YOPE   C2B13346  14.830  11.722   7.007 -0.1835  0.2029 -0.0596
  910YOPE   D3B13347  14.955  11.555   7.427  0.2158 -0.0825  0.0478
  910YOPE   C4B13348  14.960  11.631   7.848 -0.0795  0.2641  0.0815
  911YOPE   NH313349   1.266   9.999   6.215 -0.1412  0.1058 -0.0227
  911YOPE   PO413350   1.424  10.258   5.897  0.1371 -0.0719 -0.0561
  911YOPE   GL113351   1.682  10.247   6.350 -0.0479 -0.0911  0.2154
  911YOPE   GL213352   2.053  10.228   6.332 -0.0438 -0.0800  0.0013
  911YOPE   C1A13353   1.711  10.235   6.719 -0.1133  0.1444 -0.0177
  911YOPE   D2A13354   1.504  10.012   7.153 -0.2078  0.4764 -0.0508
  911YOPE   C3A13355   1.176   9.733   7.139  0.2604  0.0392 -0.2410
  911YOPE   C4A13356   0.818   9.782   7.127 -0.3279  0.0374  0.1971
  911YOPE   C1B13357   2.130  10.049   6.767  0.4010 -0.5479  0.1648
  911YOPE   C2B13358   2.110  10.148   7.205  0.1172  0.3942 -0.0021
  911YOPE   D3B13359   2.188  10.129   7.617  0.1357  0.2531  0.0427
  911YOPE   C4B13360   2.382  10.184   8.144  0.0233  0.2086  0.0705
  912YOPE   NH313361   4.093   3.836   6.600 -0.4134 -0.1476  0.0929
  912YOPE   PO413362   4.486   3.953   6.550  0.0152 -0.0190  0.1460
  912YOPE   GL113363   4.470   4.039   6.937  0.0925  0.2992  0.1685
  912YOPE   GL213364   4.747   4.018   7.036  0.0995 -0.1923 -0.1026
  912YOPE   C1A13365   4.396   4.066   7.461 -0.0087  0.0690 -0.1925
  912YOPE   D2A13366   4.158   3.983   7.784  0.2481  0.2258  0.0906
  912YOPE   C3A13367   4.033   3.605   7.825 -0.0130 -0.0201  0.2734
  912YOPE   C4A13368   3.962   3.443   8.285 -0.0851  0.4330 -0.1235
  912YOPE   C1B13369   5.004   3.705   7.232  0.1253  0.2749  0.1084
  912YOPE   C2B13370   5.249   3.656   7.520 -0.1079 -0.0988 -0.3047
  912YOPE   D3B13371   5.458   3.467   7.817  0.1071 -0.0636  0.2914
  912YOPE   C4B13372   5.681   3.537   8.207  0.0420 -0.0472 -0.0321
  913YOPE   NH313373  12.977  14.977   6.105 -0.0575 -0.0553  0.2453
  913YOPE   PO413374  13.276  14.691   6.135  0.3826 -0.3201 -0.0780
  913YOPE   GL113375  13.010  14.637   6.463  0.0175 -0.4667  0.1384
  913YOPE   GL213376  12.900  14.291   6.572 -0.0755 -0.2992 -0.0134
  913YOPE   C1A13377  13.180  14.615   6.827 -0.0461  0.2912 -0.0286
  913YOPE   D2A13378  13.155  14.472   7.264  0.0861  0.0660 -0.1675
  913YOPE   C3A13379  13.480  14.574   7.483 -0.2699 -0.1663  0.1518
  913YOPE   C4A13380  13.605  14.772   7.942  0.3140 -0.1506  0.3189
  913YOPE   C1B13381  12.662  14.496   6.921 -0.1248  0.0546 -0.2649
  913YOPE   C2B13382  12.358  14.781   7.211 -0.2936  0.0251 -0.3758
  913YOPE   D3B13383  12.180  14.876   7.663 -0.0834 -0.1995  0.0013
  913YOPE   C4B13384  12.139  15.116   8.072  0.0255  0.1189 -0.2319
  914YOPE   NH313385  17.812  12.138   5.952 -0.2757  0.0070  0.0716
  914YOPE   PO413386  17.547  11.856   6.160  0.0944 -0.1665 -0.1172
  914YOPE   GL113387  17.499  11.759   6.604  0.1629  0.1688  0.0102
  914YOPE   GL213388  17.202  12.001   6.580 -0.2053 -0.0568  0.4064
  914YOPE   C1A13389  17.594  11.404   6.790 -0.3018  0.1194 -0.0073
  914YOPE   D2A13390  17.848  11.171   7.055 -0.1299  0.1486 -0.2551
  914YOPE   C3A13391  17.775  11.215   7.478  0.0265  0.1664  0.3033
  914YOPE   C4A13392  17.867  11.278   7.996 -0.1721 -0.0923 -0.0468
  914YOPE   C1B13393  17.266  11.942   6.946  0.1739  0.1772  0.2927
  914YOPE   C2B13394  17.204  12.017   7.318 -0.0910  0.3217 -0.2677
  914YOPE   D3B13395  17.377  12.019   7.719 -0.3064 -0.0160  0.0075
  914YOPE   C4B13396  17.106  12.042   8.081  0.1139  0.1216 -0.0568
  915YOPE   NH313397  17.446   6.399   6.319 -0.1412  0.0823 -0.1242
  915YOPE   PO413398  17.138   6.135   6.537  0.3532  0.1442 -0.3029
  915YOPE   GL113399  17.184   6.416   6.765 -0.1303 -0.0180 -0.0217
  915YOPE   GL213400  17.429   6.601   6.881 -0.3518 -0.1852  0.4911
  915YOPE   C1A13401  17.201   6.399   7.223 -0.0291 -0.1117  0.0050
  915YOPE   D2A13402  17.188   6.410   7.706  0.0209  0.0072 -0.2581
  915YOPE   C3A13403  17.091   6.298   8.133  0.2034  0.0513 -0.2175
  915YOPE   C4A13404  17.186   6.149   8.453 -0.1817  0.0386 -0.3252
  915YOPE   C1B13405  17.659   6.694   7.184  0.5033  0.1207 -0.1633
  915YOPE   C2B13406  17.731   6.509   7.560 -0.1601 -0.2072 -0.2498
  915YOPE   D3B13407  17.673   6.476   7.963 -0.0499  0.1215 -0.2526
  915YOPE   C4B13408  17.850   6.210   8.294 -0.2114 -0.0061 -0.1196
  916YOPE   NH313409  10.059   7.815   5.760  0.1970  0.0443 -0.1063
  916YOPE   PO413410  10.230   7.401   5.875 -0.0532 -0.1391  0.0564
  916YOPE   GL113411  10.544   7.497   6.180 -0.0891  0.0115  0.0209
  916YOPE   GL213412  10.277   7.596   6.339  0.1133  0.3316  0.2271
  916YOPE   C1A13413  10.707   7.204   6.470 -0.3609  0.1270 -0.0831
  916YOPE   D2A13414  10.635   6.799   6.509  0.0759  0.2136 -0.1640
  916YOPE   C3A13415  10.578   6.559   6.947 -0.2539 -0.2367 -0.0381
  916YOPE   C4A13416  10.706   6.669   7.301  0.0334  0.3966  0.1193
  916YOPE   C1B13417  10.543   7.615   6.700 -0.1150 -0.1176  0.1492
  916YOPE   C2B13418  10.531   7.717   7.020 -0.0279  0.3092 -0.1065
  916YOPE   D3B13419  10.542   7.697   7.495  0.0515 -0.4670  0.3186
  916YOPE   C4B13420  10.525   7.633   7.998  0.0745 -0.0147  0.1758
  917YOPE   NH313421  15.993  13.982   5.851 -0.1645  0.1450 -0.0925
  917YOPE   PO413422  16.052  14.401   5.634  0.1271  0.4638 -0.3248
  917YOPE   GL113423  16.188  14.474   6.073 -0.0103 -0.2299 -0.0008
  917YOPE   GL213424  16.389  14.643   6.117 -0.1360 -0.1609  0.0679
  917YOPE   C1A13425  16.223  14.472   6.576  0.1463  0.2108  0.2977
  917YOPE   D2A13426  16.161  14.268   6.913 -0.1532  0.0678 -0.2580
  917YOPE   C3A13427  15.990  14.157   7.252  0.1753  0.0337  0.4180
  917YOPE   C4A13428  15.868  14.056   7.645  0.1270 -0.1594  0.2162
  917YOPE   C1B13429  16.430  14.877   6.421  0.1666  0.2862 -0.1454
  917YOPE   C2B13430  16.365  14.888   6.824 -0.0672  0.2097 -0.1230
  917YOPE   D3B13431  16.379  14.666   7.138  0.0149 -0.2771  0.2696
  917YOPE   C4B13432  16.428  14.412   7.443  0.1545  0.0841  0.0427
  918YOPE   NH313433   4.245   1.430   5.729 -0.0029 -0.1234 -0.1850
  918YOPE   PO413434   4.001   1.824   5.877 -0.0522 -0.1162  0.1171
  918YOPE   GL113435   3.938   1.917   6.294 -0.2351  0.3163 -0.2279
  918YOPE   GL213436   3.673   2.044   6.453  0.0749 -0.1633  0.4650
  918YOPE   C1A13437   4.126   2.087   6.760  0.0578  0.1302 -0.1359
  918YOPE   D2A13438   4.326   2.130   7.203  0.1023 -0.1349 -0.0978
  918YOPE   C3A13439   4.377   1.874   7.511  0.0402 -0.0500  0.1814
  918YOPE   C4A13440   4.551   1.639   7.911 -0.0721  0.2835  0.0359
  918YOPE   C1B13441   3.633   2.060   6.933 -0.0762 -0.0734  0.0034
  918YOPE   C2B13442   3.828   1.945   7.232 -0.0896 -0.0441  0.0143
  918YOPE   D3B13443   3.864   1.769   7.669 -0.0941  0.0867  0.1631
  918YOPE   C4B13444   3.969   1.746   8.035  0.1378 -0.0352  0.2782
  919YOPE   NH313445  15.830   1.600   6.102  0.1602 -0.0509  0.1381
  919YOPE   PO413446  16.188   1.386   5.998  0.2014 -0.0880 -0.1306
  919YOPE   GL113447  16.370   1.298   6.385 -0.1590  0.0424  0.4874
  919YOPE   GL213448  16.068   1.308   6.549 -0.0198 -0.0613 -0.0393
  919YOPE   C1A13449  16.471   1.296   6.867  0.0795 -0.4441 -0.1314
  919YOPE   D2A13450  16.603   1.252   7.290 -0.0092  0.0992  0.1288
  919YOPE   C3A13451  16.600   1.154   7.753  0.1162 -0.0744 -0.0060
  919YOPE   C4A13452  16.564   0.983   8.094 -0.0305 -0.0753 -0.0883
  919YOPE   C1B13453  15.925   1.183   7.018  0.2192  0.4984  0.3124
  919YOPE   C2B13454  16.123   1.233   7.446  0.1411 -0.1078 -0.2880
  919YOPE   D3B13455  16.115   1.384   7.905 -0.2411 -0.2101 -0.0538
  919YOPE   C4B13456  16.165   1.194   8.292 -0.0016 -0.1044 -0.0317
  920YOPE   NH313457   2.566   6.651   6.360  0.0474  0.2356  0.2006
  920YOPE   PO413458   2.199   6.788   6.008  0.2906  0.1898 -0.2957
  920YOPE   GL113459   2.099   6.791   6.392  0.0763  0.1433  0.0821
  920YOPE   GL213460   2.104   6.556   6.574 -0.3776 -0.0918 -0.2846
  920YOPE   C1A13461   2.138   7.025   6.865  0.0079 -0.2253 -0.0004
  920YOPE   D2A13462   2.096   7.250   7.163  0.1275  0.1297 -0.0549
  920YOPE   C3A13463   1.831   7.569   7.167  0.2318  0.2948 -0.0189
  920YOPE   C4A13464   1.416   7.802   7.156  0.1415 -0.1218 -0.0183
  920YOPE   C1B13465   1.958   6.258   6.893  0.0494  0.0238 -0.1628
  920YOPE   C2B13466   1.845   6.231   7.379 -0.0354 -0.1718 -0.0199
  920YOPE   D3B13467   1.630   6.171   7.718  0.2616 -0.0213 -0.0621
  920YOPE   C4B13468   1.302   6.187   8.103 -0.1574  0.0298 -0.0013
  921POPC   NC313469  12.572   0.159   5.897  0.1618 -0.3114  0.0408
  921POPC   PO413470  12.797  -0.259   6.056 -0.1940  0.0336  0.1880
  921POPC   GL113471  12.765  -0.016   6.386  0.2375  0.0698  0.0965
  921POPC   GL213472  12.780   0.290   6.326  0.2663  0.0425  0.1373
  921POPC   C1A13473  12.749   0.002   6.819 -0.1984  0.0922 -0.0132
  921POPC   D2A13474  12.659  -0.076   7.283  0.3393 -0.1148 -0.0166
  921POPC   C3A13475  12.947  -0.378   7.597  0.0518  0.2735  0.2211
  921POPC   C4A13476  12.783  -0.770   7.827  0.0388  0.1036  0.1920
  921POPC   C1B13477  12.831   0.435   6.738  0.0877 -0.0304  0.1050
  921POPC   C2B13478  12.958   0.476   7.227  0.2740  0.1071 -0.2429
  921POPC   C3B13479  12.902   0.303   7.615  0.1989  0.1621  0.1403
  921POPC   C4B13480  12.705  -0.006   7.783  0.0219  0.3170  0.0911
  922POPC   NC313481   6.064   7.798   5.860 -0.0216  0.0780  0.0765
  922POPC   PO413482   5.810   7.912   6.244  0.1937  0.1831 -0.0666
  922POPC   GL113483   5.843   8.067   6.652  0.2551  0.0424  0.2062
  922POPC   GL213484   6.036   7.911   6.858 -0.0112 -0.0283 -0.1629
  922POPC   C1A13485   5.782   8.306   7.031 -0.1749 -0.1929  0.0514
  922POPC   D2A13486   5.880   8.313   7.494  0.0421 -0.1508  0.0007
  922POPC   C3A13487   5.785   8.522   7.864 -0.1875 -0.0400  0.3306
  922POPC   C4A13488   5.833   8.521   8.328  0.0033 -0.0234  0.0010
  922POPC   C1B13489   6.103   7.873   7.250 -0.2966 -0.3738 -0.1849
  922POPC   C2B13490   6.213   7.948   7.655  0.1401 -0.0020 -0.2542
  922POPC   C3B13491   6.170   8.293   8.022  0.1208  0.0241 -0.1864
  922POPC   C4B13492   6.333   8.527   8.391 -0.0449  0.0435 -0.2113
  923POPC   NC313493  13.159  15.932   5.700  0.1669  0.0601  0.1663
  923POPC   PO413494  13.264  15.558   5.936  0.1622 -0.1232 -0.0916
  923POPC   GL113495  13.144  15.463   6.289  0.1286 -0.1816 -0.0338
  923POPC   GL213496  13.307  15.191   6.421 -0.2014  0.2145  0.0353
  923POPC   C1A13497  13.191  15.521   6.793 -0.3097  0.2981  0.0376
  923POPC   D2A13498  13.040  15.547   7.267  0.1773  0.0173 -0.1780
  923POPC   C3A13499  13.193  15.636   7.681  0.0400 -0.0724 -0.0484
  923POPC   C4A13500  13.023  15.515   8.140  0.1538  0.1826 -0.1292
  923POPC   C1B13501  13.445  15.069   6.881  0.1440  0.1094  0.4878
  923POPC   C2B13502  13.381  15.064   7.327  0.0305 -0.0138  0.1926
  923POPC   C3B13503  13.245  15.041   7.688  0.0312  0.1787  0.1291
  923POPC   C4B13504  13.091  14.997   8.074  0.2676 -0.0852  0.1111
  924POPC   NC313505   0.350   5.350   6.013 -0.0863 -0.2445  0.3164
  924POPC   PO413506   0.083   5.638   5.978  0.0249  0.0169 -0.1931
  924POPC   GL113507   0.137   5.743   6.374 -0.1149 -0.0504 -0.2441
  924POPC   GL213508   0.250   6.060   6.350 -0.0591  0.0941  0.0523
  924POPC   C1A13509   0.189   5.601   6.787  0.0772  0.1296 -0.1095
  924POPC   D2A13510   0.306   5.692   7.221  0.1289  0.4777  0.1319
  924POPC   C3A13511   0.086   5.456   7.443 -0.0163 -0.3072  0.0808
  924POPC   C4A13512   0.135   5.308   7.822 -0.3062  0.2836  0.0363
  924POPC   C1B13513   0.239   6.107   6.816 -0.0297  0.1622  0.0192
  924POPC   C2B13514   0.437   6.131   7.229 -0.0698 -0.0013  0.1809
  924POPC   C3B13515   0.612   6.289   7.691 -0.1948  0.0179 -0.1170
  924POPC   C4B13516   0.844   5.895   7.988 -0.1164 -0.1126 -0.0484
  925POPC   NC313517   3.413  16.103   5.935  0.1192 -0.3607  0.0764
  925POPC   PO413518   3.299  15.796   5.992 -0.2723  0.0411 -0.0674
  925POPC   GL113519   3.028  15.500   6.275 -0.3716 -0.4382 -0.3025
  925POPC   GL213520   2.689  15.607   6.364 -0.1575 -0.3795 -0.0721
  925POPC   C1A13521   2.924  15.529   6.795  0.0231 -0.0545 -0.0842
  925POPC   D2A13522   2.938  15.719   7.198  0.1507  0.1584  0.1384
  925POPC   C3A13523   3.244  15.611   7.580  0.2873  0.3076 -0.2349
  925POPC   C4A13524   3.066  15.666   8.034  0.5022  0.2315 -0.1283
  925POPC   C1B13525   2.477  15.444   6.714  0.1623 -0.0474 -0.2642
  925POPC   C2B13526   2.548  15.255   7.074 -0.0667 -0.0826  0.3338
  925POPC   C3B13527   2.510  15.211   7.425 -0.0999  0.2230  0.2286
  925POPC   C4B13528   2.421  15.259   7.808 -0.2898 -0.2480  0.0818
  926POPC   NC313529   4.921  16.548   5.876  0.1407  0.2761 -0.0557
  926POPC   PO413530   5.092  16.974   5.648 -0.0539  0.1571  0.0850
  926POPC   GL113531   5.077  17.117   6.146 -0.0716 -0.1048  0.2005
  926POPC   GL213532   5.305  17.309   6.146 -0.1658 -0.0025 -0.2212
  926POPC   C1A13533   4.962  17.314   6.535  0.4095  0.1538 -0.0770
  926POPC   D2A13534   5.029  17.403   6.965  0.0460  0.0134  0.1892
  926POPC   C3A13535   4.772  17.264   7.334 -0.0470  0.0672 -0.1496
  926POPC   C4A13536   4.430  17.101   7.461 -0.0040 -0.0872  0.1999
  926POPC   C1B13537   5.429  17.171   6.606 -0.1335  0.0043 -0.1446
  926POPC   C2B13538   5.383  17.028   6.929  0.3359  0.0209  0.1812
  926POPC   C3B13539   5.173  16.689   7.101  0.0634 -0.1535 -0.0032
  926POPC   C4B13540   4.996  16.417   7.293  0.3560 -0.0269  0.1161
  927POPC   NC313541  13.931   7.298   6.085  0.1270 -0.1676  0.1447
  927POPC   PO413542  13.472   7.394   6.140 -0.2762  0.2837  0.0291
  927POPC   GL113543  13.446   7.162   6.453  0.1149 -0.2081  0.0426
  927POPC   GL213544  13.782   7.115   6.492 -0.0107 -0.1694  0.0704
  927POPC   C1A13545  13.241   7.071   6.832 -0.2138  0.0285 -0.1728
  927POPC   D2A13546  13.251   7.001   7.214  0.4825 -0.1771 -0.1379
  927POPC   C3A13547  13.472   7.208   7.658  0.1220 -0.3305 -0.1540
  927POPC   C4A13548  13.835   7.063   7.958 -0.1974 -0.0837 -0.0765
  927POPC   C1B13549  13.751   7.082   6.875  0.1014 -0.3351  0.1751
  927POPC   C2B13550  13.764   6.973   7.309  0.0641 -0.0766  0.2657
  927POPC   C3B13551  13.481   6.727   7.609  0.1950  0.2305 -0.5383
  927POPC   C4B13552  13.112   6.608   7.579  0.0858 -0.1172 -0.0026
  928POPC   NC313553   9.245  13.589   6.029  0.0734 -0.1961  0.0609
  928POPC   PO413554   9.542  13.997   6.107  0.0741  0.3858 -0.0857
  928POPC   GL113555   9.645  14.070   6.542 -0.1451  0.2146  0.2520
  928POPC   GL213556   9.550  14.300   6.572 -0.0530 -0.2601  0.0960
  928POPC   C1A13557   9.707  14.006   6.991  0.0619 -0.1342  0.1125
  928POPC   D2A13558   9.906  14.038   7.329 -0.3150 -0.3273 -0.0364
  928POPC   C3A13559  10.082  13.983   7.657  0.0203 -0.4350 -0.0480
  928POPC   C4A13560  10.049  14.172   8.123 -0.4373 -0.3874 -0.0589
  928POPC   C1B13561   9.280  14.254   6.894 -0.1605  0.0523 -0.3195
  928POPC   C2B13562   9.377  14.303   7.306 -0.0127  0.1594 -0.2534
  928POPC   C3B13563   9.554  14.002   7.684  0.0719 -0.0660  0.0831
  928POPC   C4B13564   9.732  13.769   7.907 -0.0336  0.0182 -0.3985
  929POPC   NC313565  11.356   2.109   5.844  0.2702 -0.2464  0.2507
  929POPC   PO413566  11.517   1.840   6.156  0.0998  0.0458  0.4175
  929POPC   GL113567  11.425   1.674   6.517 -0.0987 -0.1200  0.4091
  929POPC   GL213568  11.658   1.503   6.506 -0.2509  0.1657  0.3503
  929POPC   C1A13569  11.292   1.615   6.946  0.1922  0.1200  0.1284
  929POPC   D2A13570  11.335   1.640   7.332  0.0836 -0.3230 -0.1079
  929POPC   C3A13571  11.159   1.291   7.545  0.1381 -0.1814  0.1126
  929POPC   C4A13572  10.996   1.084   7.921 -0.1900 -0.2182 -0.1263
  929POPC   C1B13573  11.631   1.242   6.801 -0.1090 -0.3182  0.0642
  929POPC   C2B13574  11.626   1.246   7.258 -0.3762 -0.1650  0.0675
  929POPC   C3B13575  11.594   1.445   7.725  0.0134 -0.2071 -0.2347
  929POPC   C4B13576  11.404   1.865   7.807 -0.3564 -0.3104  0.0101
  930POPC   NC313577   1.389   0.456   5.900  0.0547 -0.2909  0.4047
  930POPC   PO413578   1.540   0.112   6.064 -0.1643 -0.0498 -0.1654
  930POPC   GL113579   1.622   0.427   6.374  0.0760 -0.2870  0.2984
  930POPC   GL213580   1.350   0.429   6.549 -0.0061 -0.1769 -0.3333
  930POPC   C1A13581   1.956   0.466   6.603  0.0757 -0.2023  0.2618
  930POPC   D2A13582   2.045   0.568   6.900  0.0230  0.0520  0.0174
  930POPC   C3A13583   2.316   0.340   7.130  0.0009 -0.0334 -0.0050
  930POPC   C4A13584   2.620   0.051   7.018 -0.1578  0.0170  0.3030
  930POPC   C1B13585   1.568   0.595   6.916 -0.2379 -0.3340 -0.0587
  930POPC   C2B13586   1.653   0.762   7.249 -0.1634 -0.0534 -0.1060
  930POPC   C3B13587   2.019   0.799   7.463 -0.0134 -0.0150  0.0173
  930POPC   C4B13588   1.969   0.838   7.972  0.3169  0.0804  0.1204
  931POPC   NC313589  10.856  10.564   5.726  0.1935  0.2467 -0.1333
  931POPC   PO413590  10.932  10.641   6.157  0.2607 -0.2873  0.1130
  931POPC   GL113591  10.960  10.328   6.474 -0.0177 -0.0461 -0.0451
  931POPC   GL213592  10.768  10.437   6.581  0.4458  0.1432 -0.5339
  931POPC   C1A13593  10.992  10.044   6.862 -0.1344  0.1215  0.0823
  931POPC   D2A13594  11.004   9.878   7.265 -0.2370 -0.1501  0.0334
  931POPC   C3A13595  10.737  10.081   7.751 -0.0499 -0.0304 -0.1104
  931POPC   C4A13596  10.707  10.204   8.127 -0.0462 -0.1780 -0.2565
  931POPC   C1B13597  10.682  10.398   6.899 -0.1209  0.2604 -0.2890
  931POPC   C2B13598  10.590  10.305   7.346  0.2193  0.1563 -0.0535
  931POPC   C3B13599  10.262  10.092   7.711  0.1168 -0.0770  0.0702
  931POPC   C4B13600   9.909  10.278   7.854  0.2364  0.1240  0.0197
  932POPC   NC313601  13.016   9.045   5.783 -0.0738 -0.1020  0.1333
  932POPC   PO413602  12.947   8.934   6.095 -0.1834 -0.0137 -0.2970
  932POPC   GL113603  13.037   8.964   6.465  0.0048 -0.3734 -0.1950
  932POPC   GL213604  12.972   8.697   6.589  0.4220  0.0751 -0.0450
  932POPC   C1A13605  13.202   9.051   6.861 -0.2438  0.1227 -0.1138
  932POPC   D2A13606  13.364   9.277   7.185 -0.2738 -0.1073  0.0183
  932POPC   C3A13607  13.240   9.433   7.675 -0.0514  0.3326  0.0224
  932POPC   C4A13608  13.207   9.428   8.060  0.1182  0.0717 -0.2883
  932POPC   C1B13609  13.111   8.530   7.018 -0.1725 -0.1075 -0.0749
  932POPC   C2B13610  13.115   8.531   7.492  0.1456  0.2596  0.0453
  932POPC   C3B13611  13.314   8.613   7.848  0.0280  0.1891  0.0079
  932POPC   C4B13612  13.668   8.805   8.055 -0.3906  0.1835 -0.0710
  933POPC   NC313613   3.314   6.132   5.967 -0.0799 -0.0209 -0.0715
  933POPC   PO413614   3.418   6.473   6.347  0.2449 -0.1783  0.1504
  933POPC   GL113615   3.238   6.522   6.782  0.1297  0.0613 -0.3851
  933POPC   GL213616   2.942   6.390   6.793  0.0644 -0.0335  0.1054
  933POPC   C1A13617   3.424   6.246   7.134  0.0681 -0.0034 -0.3268
  933POPC   D2A13618   3.532   6.136   7.527 -0.1937  0.2590  0.1798
  933POPC   C3A13619   3.706   6.411   7.710  0.2246 -0.2234 -0.0827
  933POPC   C4A13620   3.769   6.841   7.668  0.1341 -0.0099  0.1538
  933POPC   C1B13621   2.898   6.649   7.156  0.2663  0.0654 -0.0926
  933POPC   C2B13622   2.784   6.695   7.596  0.3215 -0.2630  0.0528
  933POPC   C3B13623   2.703   6.994   7.932  0.0486  0.2547  0.1646
  933POPC   C4B13624   2.841   7.397   8.026  0.1985 -0.0947 -0.1843
  934POPC   NC313625   0.821  14.197   5.133  0.2218  0.0091  0.0704
  934POPC   PO413626   0.978  14.214   5.559  0.1005  0.1441  0.5177
  934POPC   GL113627   1.072  14.150   6.055 -0.1212 -0.0905 -0.0865
  934POPC   GL213628   0.925  14.299   6.351  0.4920  0.0264 -0.0527
  934POPC   C1A13629   1.262  13.947   6.412  0.3226 -0.0796  0.3890
  934POPC   D2A13630   1.203  13.617   6.646 -0.0101  0.2085 -0.1906
  934POPC   C3A13631   1.115  13.636   7.084 -0.1924  0.0275 -0.0493
  934POPC   C4A13632   0.760  13.549   7.307  0.0742 -0.0459 -0.1516
  934POPC   C1B13633   1.064  14.455   6.770 -0.0067  0.0048 -0.1788
  934POPC   C2B13634   1.228  14.318   7.199  0.1031 -0.2160  0.1630
  934POPC   C3B13635   0.986  14.131   7.509  0.0819  0.1603  0.0057
  934POPC   C4B13636   0.856  13.981   7.817 -0.0714 -0.0462  0.0700
  935POPC   NC313637   9.753  13.554   6.202  0.0586 -0.0400 -0.0263
  935POPC   PO413638   9.459  13.342   6.376  0.0030  0.3683  0.2263
  935POPC   GL113639   9.285  13.287   6.668  0.2970  0.0235  0.0304
  935POPC   GL213640   9.280  12.979   6.709 -0.0132 -0.0485 -0.0944
  935POPC   C1A13641   9.080  13.233   7.084  0.1020 -0.0836 -0.0020
  935POPC   D2A13642   8.813  13.395   7.518  0.0843  0.1916 -0.2916
  935POPC   C3A13643   8.756  13.593   7.978 -0.2560 -0.2352 -0.2863
  935POPC   C4A13644   9.079  13.699   8.227 -0.3571 -0.1161 -0.3840
  935POPC   C1B13645   9.543  12.871   7.121 -0.1938  0.1652 -0.0716
  935POPC   C2B13646   9.674  12.981   7.547 -0.1387  0.0542  0.5579
  935POPC   C3B13647   9.744  12.755   7.948  0.0374 -0.0392  0.0211
  935POPC   C4B13648   9.929  12.937   8.324 -0.2080 -0.1033  0.0683
  936POPC   NC313649   8.751  11.672   6.205  0.0724  0.0313 -0.1636
  936POPC   PO413650   9.036  11.306   5.989  0.2791  0.0255 -0.1057
  936POPC   GL113651   9.114  11.237   6.331  0.1513  0.0829 -0.1969
  936POPC   GL213652   9.177  10.847   6.321 -0.0975 -0.0879 -0.1513
  936POPC   C1A13653   9.328  11.400   6.768 -0.3227  0.4213 -0.2999
  936POPC   D2A13654   9.018  11.393   7.042  0.0341  0.2082  0.0371
  936POPC   C3A13655   8.900  11.355   7.532  0.0106  0.1832 -0.0797
  936POPC   C4A13656   9.018  11.597   7.921 -0.2073 -0.0153 -0.2078
  936POPC   C1B13657   9.147  10.894   6.777  0.2887 -0.1307  0.3151
  936POPC   C2B13658   9.246  10.773   7.172  0.1247 -0.0967 -0.0661
  936POPC   C3B13659   9.265  11.021   7.609 -0.0914 -0.0809  0.1545
  936POPC   C4B13660   9.356  11.177   8.074  0.0205 -0.1142  0.3513
  937POPC   NC313661   7.359  16.988   5.968 -0.1930  0.2893 -0.3735
  937POPC   PO413662   6.949  16.873   5.919  0.0285 -0.0661 -0.2257
  937POPC   GL113663   6.912  17.139   6.250 -0.2300  0.3124  0.0446
  937POPC   GL213664   7.168  17.236   6.403  0.1093 -0.2369  0.0275
  937POPC   C1A13665   6.721  17.217   6.680  0.4044 -0.1339  0.1769
  937POPC   D2A13666   6.425  17.309   6.942  0.1530  0.1176 -0.3292
  937POPC   C3A13667   6.399  17.266   7.282 -0.1068 -0.0087  0.4714
  937POPC   C4A13668   6.042  17.124   7.446 -0.1651 -0.3201 -0.1523
  937POPC   C1B13669   7.226  17.351   6.896 -0.1736 -0.0501  0.1307
  937POPC   C2B13670   7.278  17.393   7.399  0.0429  0.1569 -0.1783
  937POPC   C3B13671   7.378  17.365   7.831 -0.0297 -0.0020  0.0328
  937POPC   C4B13672   7.320  17.116   8.214 -0.2331 -0.3228 -0.1335
  938POPC   NC313673  17.520   8.496   5.815  0.0562 -0.0349 -0.0879
  938POPC   PO413674  17.221   8.427   6.040  0.0222  0.2471  0.0704
  938POPC   GL113675  17.505   8.285   6.302  0.0683 -0.1904 -0.1419
  938POPC   GL213676  17.744   8.494   6.261 -0.2481 -0.3252  0.0634
  938POPC   C1A13677  17.819   8.083   6.546 -0.0818  0.1295  0.0394
  938POPC   D2A13678  17.749   7.703   6.798  0.2378 -0.3745  0.4789
  938POPC   C3A13679  17.729   7.737   7.230 -0.1795 -0.0941  0.0413
  938POPC   C4A13680  17.833   7.538   7.679 -0.2353  0.1941 -0.1567
  938POPC   C1B13681  17.563   8.880   6.534  0.2664 -0.0614  0.0677
  938POPC   C2B13682  17.585   9.193   6.890  0.0843  0.1743  0.1150
  938POPC   C3B13683  17.524   9.216   7.216 -0.1933  0.2220 -0.2124
  938POPC   C4B13684  17.614   8.994   7.632 -0.5027  0.3173  0.0359
  939POPC   NC313685  16.996   2.553   5.926  0.0539  0.0648  0.1506
  939POPC   PO413686  17.347   2.883   5.673 -0.0134 -0.2358  0.0392
  939POPC   GL113687  17.356   2.932   6.182  0.2240 -0.3126  0.1055
  939POPC   GL213688  17.295   3.249   6.440  0.2052  0.0033  0.2870
  939POPC   C1A13689  17.343   2.824   6.654 -0.1832 -0.1223  0.2402
  939POPC   D2A13690  17.243   2.771   7.026  0.1137 -0.1077  0.3947
  939POPC   C3A13691  17.113   2.882   7.451  0.1582  0.2941  0.3382
  939POPC   C4A13692  16.930   3.085   7.655 -0.1503  0.2766  0.0598
  939POPC   C1B13693  17.370   3.430   6.844  0.1045  0.0444 -0.0850
  939POPC   C2B13694  17.340   3.363   7.317  0.0043 -0.0238  0.0252
  939POPC   C3B13695  17.688   3.548   7.773  0.2204  0.1097  0.0866
  939POPC   C4B13696  17.703   3.605   8.269 -0.0920  0.1524  0.0772
  940POPC   NC313697  17.760  17.259   5.819 -0.0113 -0.0075  0.0179
  940POPC   PO413698  17.759  17.034   6.242 -0.0070 -0.1501  0.0431
  940POPC   GL113699  17.703  17.040   6.659 -0.1354  0.0867  0.1039
  940POPC   GL213700  17.763  17.357   6.784 -0.0580  0.1689 -0.0366
  940POPC   C1A13701  17.580  16.959   7.084  0.0309  0.4436 -0.0875
  940POPC   D2A13702  17.487  16.664   7.459  0.0540 -0.3359  0.2688
  940POPC   C3A13703  17.126  16.754   7.721  0.3579  0.1327 -0.1309
  940POPC   C4A13704  16.647  16.833   7.740 -0.3397  0.0540  0.1389
  940POPC   C1B13705  17.965  17.558   7.030 -0.0574 -0.0541 -0.0229
  940POPC   C2B13706  18.041  17.614   7.365  0.1175  0.3297  0.0053
  940POPC   C3B13707  18.367  17.778   7.575 -0.0957  0.2758  0.1437
  940POPC   C4B13708  18.333  17.923   7.981 -0.0672  0.1000 -0.2931
  941POPC   NC313709   1.579  12.731   6.205  0.1070 -0.0367  0.0246
  941POPC   PO413710   1.973  12.453   6.158 -0.2666  0.1767 -0.2791
  941POPC   GL113711   1.803  12.396   6.526 -0.1117 -0.1192  0.2274
  941POPC   GL213712   1.906  12.111   6.658  0.0087  0.2402  0.0362
  941POPC   C1A13713   1.733  12.451   6.945  0.0599 -0.0806 -0.0159
  941POPC   D2A13714   1.739  12.456   7.446 -0.1377 -0.0277 -0.1730
  941POPC   C3A13715   1.909  12.684   7.853  0.2936 -0.1083 -0.0782
  941POPC   C4A13716   2.049  13.043   8.086 -0.0084  0.1857  0.2625
  941POPC   C1B13717   2.083  12.047   7.065  0.7043 -0.0172 -0.0550
  941POPC   C2B13718   2.418  12.065   7.267  0.0479 -0.0908 -0.0375
  941POPC   C3B13719   2.749  11.969   7.570  0.1369 -0.1692  0.2494
  941POPC   C4B13720   3.092  12.161   7.798 -0.1608 -0.1772 -0.1466
  942POPC   NC313721   1.375   2.173   5.957  0.0454 -0.0231  0.1748
  942POPC   PO413722   1.038   2.367   6.230  0.2541  0.1100  0.0260
  942POPC   GL113723   1.001   2.577   6.669 -0.1796  0.2534 -0.0217
  942POPC   GL213724   1.198   2.934   6.778  0.1857  0.2128 -0.0735
  942POPC   C1A13725   0.862   2.690   7.065 -0.0934  0.2508  0.2101
  942POPC   D2A13726   0.908   2.618   7.487 -0.0093 -0.1478 -0.1646
  942POPC   C3A13727   0.897   2.136   7.672  0.0460 -0.1992  0.1001
  942POPC   C4A13728   1.194   1.953   7.936 -0.4221  0.1025 -0.2001
  942POPC   C1B13729   1.249   3.016   7.227  0.1957  0.2791  0.3303
  942POPC   C2B13730   1.357   2.898   7.675  0.2526  0.0895  0.4119
  942POPC   C3B13731   1.177   2.493   7.880  0.1706  0.1130  0.0325
  942POPC   C4B13732   0.866   2.279   8.184 -0.1183 -0.0401  0.1165
  943POPC   NC313733  14.401   4.602   5.939  0.1271  0.0789  0.0368
  943POPC   PO413734  14.536   4.968   6.029 -0.1907 -0.1514 -0.3392
  943POPC   GL113735  14.416   4.792   6.443 -0.0624 -0.1157  0.0882
  943POPC   GL213736  14.195   4.532   6.419 -0.3130  0.2852  0.2436
  943POPC   C1A13737  14.231   4.795   6.887  0.2976  0.0352 -0.3416
  943POPC   D2A13738  14.070   4.854   7.333 -0.0036  0.3890  0.0697
  943POPC   C3A13739  14.052   5.089   7.783 -0.0243  0.5163 -0.0558
  943POPC   C4A13740  13.828   5.093   8.179  0.2056  0.0103  0.2680
  943POPC   C1B13741  14.184   4.259   6.829  0.2945 -0.0092  0.0620
  943POPC   C2B13742  14.024   4.303   7.238  0.1633 -0.0100  0.1697
  943POPC   C3B13743  13.963   4.436   7.716 -0.0822 -0.2473  0.1751
  943POPC   C4B13744  14.056   4.644   8.100  0.0239 -0.1590 -0.0985
  944POPC   NC313745   7.869  10.689   6.352  0.0167  0.0774 -0.0426
  944POPC   PO413746   7.507  10.541   6.187  0.2949  0.1561 -0.0328
  944POPC   GL113747   7.427  10.725   6.605 -0.1279  0.1898  0.0119
  944POPC   GL213748   7.495  10.365   6.678  0.0298 -0.1729 -0.0145
  944POPC   C1A13749   7.300  10.883   6.996 -0.2289  0.1543  0.1277
  944POPC   D2A13750   7.401  10.936   7.461  0.1501  0.0845  0.1150
  944POPC   C3A13751   7.166  11.084   7.728  0.0391 -0.2632 -0.0934
  944POPC   C4A13752   6.926  11.508   7.798  0.0107 -0.1603  0.2786
  944POPC   C1B13753   7.634  10.508   7.057  0.1437 -0.1393 -0.2194
  944POPC   C2B13754   7.462  10.424   7.451 -0.1012 -0.1088 -0.0161
  944POPC   C3B13755   7.334  10.565   7.797 -0.1059  0.2146 -0.0304
  944POPC   C4B13756   6.868  10.715   7.857  0.1756 -0.0647 -0.0768
  945POPC   NC313757   6.170  13.350   5.880  0.0823 -0.0286 -0.1517
  945POPC   PO413758   6.678  13.434   5.818  0.3446  0.0598  0.1858
  945POPC   GL113759   6.563  13.364   6.238 -0.0928 -0.1559  0.0862
  945POPC   GL213760   6.692  13.057   6.386 -0.0944  0.5327 -0.0664
  945POPC   C1A13761   6.555  13.628   6.703 -0.2049  0.1920 -0.0875
  945POPC   D2A13762   6.603  13.508   7.073 -0.2249  0.0302  0.0387
  945POPC   C3A13763   6.675  13.744   7.510  0.1287 -0.0150  0.2160
  945POPC   C4A13764   6.666  13.761   7.935  0.0285 -0.1946 -0.0935
  945POPC   C1B13765   6.679  13.069   6.795 -0.0267  0.2646  0.1844
  945POPC   C2B13766   6.589  12.988   7.155 -0.0676 -0.1438  0.0066
  945POPC   C3B13767   6.601  12.729   7.493  0.1169 -0.0810  0.2527
  945POPC   C4B13768   6.783  12.574   7.824  0.0337  0.0600  0.3788
  946POPC   NC313769  13.656   0.061   5.908  0.1545  0.4194  0.0516
  946POPC   PO413770  14.128   0.180   6.132 -0.3993  0.0172 -0.2749
  946POPC   GL113771  13.827   0.164   6.452 -0.0436 -0.0033  0.0830
  946POPC   GL213772  13.665   0.386   6.422 -0.2328  0.0707  0.0369
  946POPC   C1A13773  13.655  -0.083   6.826  0.2291  0.3109  0.0895
  946POPC   D2A13774  13.701  -0.038   7.193  0.1361  0.1472  0.1047
  946POPC   C3A13775  13.769   0.199   7.589  0.2748 -0.1240  0.0157
  946POPC   C4A13776  13.957   0.369   8.061  0.1773 -0.0138  0.2579
  946POPC   C1B13777  13.776   0.511   6.880 -0.0086  0.1393  0.0796
  946POPC   C2B13778  13.507   0.522   7.224  0.0697  0.1107  0.1868
  946POPC   C3B13779  13.397   0.545   7.646 -0.0613 -0.2585  0.2869
  946POPC   C4B13780  13.343   0.295   7.944  0.2496  0.0487 -0.1974
  947POPC   NC313781   9.384   5.109   5.949  0.0017 -0.0896  0.4216
  947POPC   PO413782   9.261   5.555   6.063 -0.1921  0.1092 -0.2465
  947POPC   GL113783   9.257   5.634   6.558  0.0361  0.1253 -0.2363
  947POPC   GL213784   9.010   5.720   6.731  0.1913 -0.2302 -0.3137
  947POPC   C1A13785   9.408   5.299   6.925 -0.1127  0.0248 -0.1767
  947POPC   D2A13786   9.386   5.341   7.379 -0.2523 -0.0238  0.1469
  947POPC   C3A13787   9.239   5.023   7.700  0.0785 -0.0878 -0.2856
  947POPC   C4A13788   9.356   4.645   7.926  0.0103 -0.2550  0.0189
  947POPC   C1B13789   9.012   5.620   7.182  0.0409  0.4358  0.0341
  947POPC   C2B13790   8.959   5.533   7.573 -0.1581  0.2076  0.0557
  947POPC   C3B13791   8.816   5.311   7.863  0.0257  0.2071  0.3989
  947POPC   C4B13792   8.614   5.172   8.172  0.2197 -0.1179 -0.0294
  948POPC   NC313793  12.035  13.580   5.644 -0.0080 -0.1470  0.1050
  948POPC   PO413794  11.682  13.476   5.790 -0.1700  0.0677  0.2024
  948POPC   GL113795  11.859  13.498   6.225 -0.3561 -0.2122  0.0279
  948POPC   GL213796  11.790  13.215   6.465  0.2453 -0.0698  0.3235
  948POPC   C1A13797  11.920  13.687   6.645 -0.0182  0.3192  0.1341
  948POPC   D2A13798  11.998  13.745   7.072 -0.0950 -0.2212 -0.6746
  948POPC   C3A13799  12.238  13.548   7.253  0.1006  0.0904  0.0023
  948POPC   C4A13800  12.184  13.304   7.667  0.2538 -0.0245  0.3658
  948POPC   C1B13801  11.767  13.378   6.946  0.0680 -0.0109 -0.2101
  948POPC   C2B13802  11.791  13.426   7.379  0.1412 -0.0710 -0.0419
  948POPC   C3B13803  11.733  13.158   7.785 -0.0496 -0.0415 -0.1147
  948POPC   C4B13804  11.743  12.678   7.969 -0.3323 -0.3173 -0.0723
  949POPC   NC313805   7.693   5.789   6.049 -0.1173  0.0514  0.1891
  949POPC   PO413806   7.881   5.522   5.941  0.2491  0.1138  0.0081
  949POPC   GL113807   8.202   5.506   6.472 -0.1499  0.2080 -0.1369
  949POPC   GL213808   8.383   5.760   6.626  0.1926 -0.0285 -0.1038
  949POPC   C1A13809   7.957   5.458   6.910  0.0403 -0.1344 -0.3220
  949POPC   D2A13810   7.539   5.349   7.061  0.0293 -0.0453  0.1331
  949POPC   C3A13811   7.352   5.644   7.304  0.0450 -0.3256 -0.0334
  949POPC   C4A13812   7.433   5.566   7.733 -0.1969  0.0488 -0.1904
  949POPC   C1B13813   8.642   5.819   6.997  0.2424  0.2164  0.1402
  949POPC   C2B13814   8.849   6.058   7.399  0.0386  0.1804  0.0586
  949POPC   C3B13815   8.979   5.973   7.839  0.0633 -0.1101  0.3561
  949POPC   C4B13816   8.996   6.200   8.204  0.0600 -0.2179 -0.1556
  950POPC   NC313817   6.800   6.575   6.032  0.1009 -0.2914 -0.0318
  950POPC   PO413818   6.571   6.778   6.302 -0.0415 -0.0149 -0.0737
  950POPC   GL113819   6.521   6.492   6.652  0.1567 -0.0478 -0.3070
  950POPC   GL213820   6.208   6.550   6.811  0.0777  0.1767 -0.0927
  950POPC   C1A13821   6.749   6.409   7.082  0.2633 -0.0807  0.0366
  950POPC   D2A13822   6.918   6.331   7.466  0.1888  0.3460  0.1075
  950POPC   C3A13823   7.149   6.304   7.910  0.0275  0.0213 -0.1374
  950POPC   C4A13824   7.486   6.033   8.117 -0.0644 -0.1404  0.1885
  950POPC   C1B13825   6.155   6.508   7.180  0.1303  0.1260 -0.0215
  950POPC   C2B13826   5.999   6.538   7.615 -0.2474 -0.1349 -0.0775
  950POPC   C3B13827   5.905   6.657   7.980 -0.2993  0.1316 -0.1499
  950POPC   C4B13828   5.561   6.576   8.262  0.3378  0.2565  0.1628
  951POPC   NC313829   0.220   6.193   5.833  0.4585 -0.1633 -0.1679
  951POPC   PO413830   0.472   6.405   6.094 -0.0375  0.0706 -0.0645
  951POPC   GL113831   0.408   6.531   6.438 -0.1366 -0.0217 -0.1981
  951POPC   GL213832   0.256   6.795   6.470 -0.2315  0.1347  0.0782
  951POPC   C1A13833   0.493   6.496   6.835 -0.0309 -0.1109  0.2415
  951POPC   D2A13834   0.590   6.567   7.281  0.1261 -0.0336  0.0538
  951POPC   C3A13835   0.968   6.655   7.396  0.4126 -0.0492  0.0732
  951POPC   C4A13836   1.333   6.718   7.647  0.0265 -0.1443 -0.0203
  951POPC   C1B13837   0.112   6.884   6.923 -0.2265 -0.6542  0.0157
  951POPC   C2B13838   0.005   6.969   7.352 -0.2465  0.0315  0.0099
  951POPC   C3B13839   0.121   7.039   7.796 -0.0252  0.0497 -0.2424
  951POPC   C4B13840   0.113   7.226   8.266  0.1635  0.0584  0.3853
  952POPC   NC313841  12.093   5.272   5.200  0.1376 -0.0427  0.2574
  952POPC   PO413842  12.075   5.464   5.666 -0.0946 -0.2738 -0.1586
  952POPC   GL113843  12.098   5.577   6.135  0.1283 -0.4779  0.0810
  952POPC   GL213844  12.031   5.989   6.179  0.0016 -0.0190 -0.1472
  952POPC   C1A13845  11.802   5.542   6.479  0.2167  0.1279 -0.1585
  952POPC   D2A13846  11.639   5.368   6.778 -0.0532  0.0785 -0.1938
  952POPC   C3A13847  11.284   5.082   6.819  0.1407  0.1030  0.0473
  952POPC   C4A13848  10.948   4.972   6.472 -0.0499 -0.1805 -0.0923
  952POPC   C1B13849  11.886   6.106   6.556  0.1763  0.1658  0.2943
  952POPC   C2B13850  11.912   6.144   6.963 -0.0481 -0.0348 -0.0779
  952POPC   C3B13851  11.776   6.314   7.361 -0.1856 -0.0564 -0.1837
  952POPC   C4B13852  11.660   6.293   7.790 -0.2537  0.2454  0.0182
  953POPC   NC313853   7.554   7.838   6.273 -0.0134 -0.1019  0.0533
  953POPC   PO413854   7.381   7.490   6.426  0.0390 -0.1923 -0.2489
  953POPC   GL113855   7.059   7.352   6.689 -0.0841 -0.1264  0.1045
  953POPC   GL213856   6.785   7.559   6.809 -0.0934 -0.0316 -0.1688
  953POPC   C1A13857   6.943   7.189   7.175  0.0085  0.0929  0.0311
  953POPC   D2A13858   6.941   7.131   7.567 -0.2696 -0.2650 -0.1796
  953POPC   C3A13859   7.020   7.359   7.975 -0.0102  0.0197 -0.1202
  953POPC   C4A13860   6.809   7.651   8.231 -0.0450 -0.2077 -0.0227
  953POPC   C1B13861   7.169   7.652   7.092 -0.0564  0.2598 -0.0315
  953POPC   C2B13862   7.063   7.648   7.561 -0.2542  0.1129  0.0382
  953POPC   C3B13863   6.908   7.858   7.808  0.0399 -0.0638  0.1778
  953POPC   C4B13864   6.824   8.121   8.202  0.0106 -0.0175 -0.0823
  954POPC   NC313865   7.053   8.410   5.934 -0.0306  0.0786  0.2196
  954POPC   PO413866   7.374   8.277   6.203 -0.1271  0.0382 -0.2191
  954POPC   GL113867   7.240   8.343   6.649 -0.0513 -0.3826 -0.4107
  954POPC   GL213868   7.012   8.136   6.892 -0.0572 -0.0694 -0.0600
  954POPC   C1A13869   7.170   8.600   6.959  0.0908  0.1704 -0.0175
  954POPC   D2A13870   7.098   8.882   7.293  0.1001  0.0483 -0.1205
  954POPC   C3A13871   6.987   8.937   7.725  0.0120 -0.2192 -0.0226
  954POPC   C4A13872   6.889   9.017   8.143 -0.2778  0.0970  0.1196
  954POPC   C1B13873   7.421   8.141   7.264 -0.0250 -0.1047  0.0673
  954POPC   C2B13874   7.414   7.983   7.662  0.0212 -0.1271 -0.1782
  954POPC   C3B13875   7.299   7.863   8.109 -0.0620 -0.0138  0.1688
  954POPC   C4B13876   7.285   7.479   8.524 -0.1859  0.1473  0.0816
  955POPC   NC313877  17.915   6.972   6.067  0.2236  0.0700  0.0311
  955POPC   PO413878  17.477   6.852   6.013 -0.1478 -0.4696  0.1928
  955POPC   GL113879  17.560   7.027   6.432 -0.4577  0.0586  0.2592
  955POPC   GL213880  17.757   6.848   6.560  0.1580 -0.2958 -0.2175
  955POPC   C1A13881  17.636   7.180   6.912  0.1131 -0.0490 -0.1593
  955POPC   D2A13882  17.625   7.225   7.386 -0.6060 -0.3112 -0.0583
  955POPC   C3A13883  17.650   7.007   7.745  0.1653  0.4852 -0.5044
  955POPC   C4A13884  17.660   6.959   8.236 -0.4547 -0.1055  0.1058
  955POPC   C1B13885  17.909   6.487   6.722  0.1692  0.0524  0.1539
  955POPC   C2B13886  18.116   6.473   7.180  0.0003 -0.2965 -0.0485
  955POPC   C3B13887  18.200   6.527   7.618 -0.1530  0.0923 -0.0501
  955POPC   C4B13888  18.244   6.401   7.979 -0.0641  0.1095  0.2512
  956POPC   NC313889  14.868  16.826   6.359 -0.2704  0.0728  0.0299
  956POPC   PO413890  15.226  16.520   6.406 -0.1953 -0.2981  0.3625
  956POPC   GL113891  15.002  16.582   6.808  0.0298 -0.1138 -0.4032
  956POPC   GL213892  14.730  16.416   6.805 -0.0491 -0.0248  0.1782
  956POPC   C1A13893  15.030  16.966   7.045 -0.4324  0.1129  0.0054
  956POPC   D2A13894  14.798  17.164   7.310 -0.0641  0.3141  0.1928
  956POPC   C3A13895  14.849  17.280   7.692  0.0292  0.1217 -0.0728
  956POPC   C4A13896  14.873  17.473   8.132 -0.0202 -0.0279 -0.1213
  956POPC   C1B13897  14.713  16.297   7.194  0.1212  0.2147  0.0189
  956POPC   C2B13898  14.741  16.227   7.594  0.1291 -0.0004  0.2615
  956POPC   C3B13899  14.973  16.199   8.040  0.0309  0.0816 -0.1599
  956POPC   C4B13900  15.387  16.145   8.194  0.2789 -0.0859 -0.1243
  957POPC   NC313901  17.197   2.029   5.987  0.0139 -0.1029  0.0780
  957POPC   PO413902  17.229   1.541   6.066  0.0176 -0.1171  0.1479
  957POPC   GL113903  17.445   1.335   6.397 -0.1302 -0.1444 -0.0995
  957POPC   GL213904  17.793   1.243   6.490 -0.2566 -0.0452 -0.0506
  957POPC   C1A13905  17.435   1.309   6.776 -0.0059 -0.1532  0.5336
  957POPC   D2A13906  17.648   1.409   7.149  0.1501 -0.2754  0.1420
  957POPC   C3A13907  17.495   1.503   7.555 -0.0931 -0.0536 -0.1462
  957POPC   C4A13908  17.470   1.637   8.000 -0.1178  0.1419 -0.1346
  957POPC   C1B13909  18.103   1.468   6.879  0.2346  0.0303  0.1726
  957POPC   C2B13910  18.242   1.586   7.215  0.0209  0.1385  0.1838
  957POPC   C3B13911  18.381   1.411   7.596  0.0432  0.1207 -0.3401
  957POPC   C4B13912  18.365   1.318   7.969  0.2740  0.1057 -0.0057
  958POPC   NC313913  15.162  14.082   5.580  0.1078  0.0129 -0.1111
  958POPC   PO413914  15.372  13.715   5.743  0.2106 -0.0515  0.2842
  958POPC   GL113915  15.323  13.728   6.270  0.0666 -0.1574  0.3458
  958POPC   GL213916  15.028  13.549   6.464  0.0952  0.1027  0.0679
  958POPC   C1A13917  15.637  13.857   6.558  0.0962 -0.0502 -0.1895
  958POPC   D2A13918  15.996  13.816   6.775  0.1983 -0.2282  0.3153
  958POPC   C3A13919  16.272  13.449   6.689 -0.2267 -0.1015 -0.3599
  958POPC   C4A13920  16.551  13.078   6.738  0.2076  0.2469 -0.1275
  958POPC   C1B13921  15.193  13.434   6.881 -0.1258 -0.4384  0.3436
  958POPC   C2B13922  15.250  13.512   7.337 -0.0976  0.1048 -0.0594
  958POPC   C3B13923  15.632  13.571   7.507  0.2264  0.0792  0.2692
  958POPC   C4B13924  15.965  13.697   7.373  0.1295  0.0207 -0.0681
  959POPC   NC313925   5.026   9.556   6.056  0.1505 -0.1983 -0.3585
  959POPC   PO413926   5.475   9.682   6.049  0.1023  0.0486  0.3351
  959POPC   GL113927   5.515   9.683   6.423  0.3444 -0.2302  0.1229
  959POPC   GL213928   5.609   9.357   6.472  0.1968 -0.0238  0.0083
  959POPC   C1A13929   5.406   9.807   6.790  0.1331 -0.1356  0.0977
  959POPC   D2A13930   5.404   9.743   7.206 -0.3344 -0.0365 -0.0968
  959POPC   C3A13931   5.154  10.010   7.497 -0.1241 -0.0256  0.0210
  959POPC   C4A13932   5.388   9.966   7.803 -0.1406  0.1139  0.2079
  959POPC   C1B13933   5.667   9.316   6.890  0.2465 -0.0345  0.3607
  959POPC   C2B13934   5.981   9.306   7.164  0.4298  0.1227 -0.3019
  959POPC   C3B13935   6.123   9.172   7.512 -0.1566 -0.1947  0.1487
  959POPC   C4B13936   6.107   9.402   7.925  0.1146 -0.2368  0.0651
  960POPC   NC313937   7.711   6.640   6.017  0.2841  0.2197  0.1878
  960POPC   PO413938   7.304   6.550   6.161 -0.0923  0.1034  0.2844
  960POPC   GL113939   7.092   6.446   6.492  0.1062 -0.0843  0.0187
  960POPC   GL213940   6.870   6.255   6.407  0.0491  0.3184  0.3976
  960POPC   C1A13941   7.196   6.130   6.898 -0.1344 -0.1449 -0.1811
  960POPC   D2A13942   7.657   5.958   7.036 -0.2403  0.0093 -0.1119
  960POPC   C3A13943   7.892   5.700   7.396 -0.0295  0.1335  0.0378
  960POPC   C4A13944   7.969   5.870   7.844  0.1847  0.1126 -0.0938
  960POPC   C1B13945   6.602   6.007   6.783 -0.3810 -0.0055  0.0404
  960POPC   C2B13946   6.929   5.858   7.181 -0.0351 -0.1905  0.1922
  960POPC   C3B13947   6.909   5.867   7.601 -0.1344 -0.0014  0.0467
  960POPC   C4B13948   6.955   5.744   7.953  0.0383 -0.2718  0.2180
  961YOPC   NC313949  15.882   0.443   6.239  0.1730 -0.0037  0.3041
  961YOPC   PO413950  16.174   0.003   6.038 -0.0328 -0.3908  0.0131
  961YOPC   GL113951  16.353  -0.207   6.429 -0.5292  0.2168 -0.1982
  961YOPC   GL213952  16.446  -0.496   6.456  0.0303 -0.3381  0.0960
  961YOPC   C1A13953  16.368  -0.135   6.881 -0.2983 -0.2623  0.0629
  961YOPC   D2A13954  16.523   0.055   7.283  0.2927  0.1510  0.0905
  961YOPC   C3A13955  16.292  -0.012   7.609 -0.2037  0.0151  0.0594
  961YOPC   C4A13956  16.218  -0.100   7.908  0.1309  0.2589  0.2984
  961YOPC   C1B13957  16.311  -0.742   6.853  0.0840  0.1244  0.2829
  961YOPC   C2B13958  16.062  -0.803   7.238  0.2048 -0.2048  0.1812
  961YOPC   D3B13959  16.074  -0.956   7.597 -0.1651  0.0899 -0.2494
  961YOPC   C4B13960  16.322  -0.948   8.084  0.5340 -0.3379 -0.0119
  962YOPC   NC313961   9.883  16.590   5.910  0.1497  0.0605  0.1716
  962YOPC   PO413962   9.675  16.266   5.924 -0.0853  0.0306  0.2932
  962YOPC   GL113963   9.771  16.313   6.295 -0.0748  0.0359 -0.0061
  962YOPC   GL213964  10.052  16.184   6.285  0.4072  0.4079 -0.2219
  962YOPC   C1A13965   9.836  16.598   6.585 -0.1421  0.0043 -0.0477
  962YOPC   D2A13966   9.655  16.603   6.964 -0.0226 -0.1838 -0.1261
  962YOPC   C3A13967   9.867  16.613   7.348  0.3408  0.1901  0.0788
  962YOPC   C4A13968  10.128  16.597   7.679  0.1997 -0.1144 -0.2407
  962YOPC   C1B13969  10.269  16.355   6.545  0.0218 -0.0228  0.1460
  962YOPC   C2B13970  10.265  16.620   6.881 -0.2134 -0.1127  0.1574
  962YOPC   D3B13971  10.391  16.541   7.253  0.2671  0.0127  0.1581
  962YOPC   C4B13972  10.506  16.320   7.575  0.0187 -0.1601 -0.1273
  963YOPC   NC313973  12.691   4.174   5.868  0.2596 -0.0055  0.2352
  963YOPC   PO413974  12.431   3.804   5.840  0.0280 -0.1191  0.3128
  963YOPC   GL113975  12.306   3.674   6.261 -0.2641  0.0706  0.0977
  963YOPC   GL213976  11.919   3.828   6.324 -0.1702  0.1600  0.1106
  963YOPC   C1A13977  12.219   3.811   6.757  0.1858  0.0827  0.3007
  963YOPC   D2A13978  11.906   3.996   7.030 -0.2476 -0.1777 -0.3252
  963YOPC   C3A13979  11.804   3.780   7.394  0.2293  0.0465  0.0616
  963YOPC   C4A13980  11.553   3.747   7.830 -0.1074  0.0673 -0.2050
  963YOPC   C1B13981  11.725   3.785   6.606 -0.0287  0.1223  0.0724
  963YOPC   C2B13982  11.559   3.645   6.988 -0.1392 -0.1578  0.0354
  963YOPC   D3B13983  11.548   3.374   7.342  0.0193 -0.0250  0.1133
  963YOPC   C4B13984  11.745   3.181   7.764 -0.2501  0.1679 -0.1223
  964YOPC   NC313985  15.511  14.877   5.826 -0.0517 -0.1528  0.3251
  964YOPC   PO413986  15.784  14.693   5.927  0.1561  0.1806 -0.3384
  964YOPC   GL113987  15.897  14.776   6.419  0.0864  0.1682 -0.0555
  964YOPC   GL213988  15.490  14.925   6.438 -0.1396  0.1651  0.0989
  964YOPC   C1A13989  15.890  14.690   6.856 -0.1577  0.0273 -0.3067
  964YOPC   D2A13990  15.959  14.692   7.334  0.0567  0.2923 -0.2867
  964YOPC   C3A13991  16.145  14.756   7.704  0.3040  0.1762  0.2234
  964YOPC   C4A13992  16.518  14.877   8.031 -0.1448 -0.0362 -0.2509
  964YOPC   C1B13993  15.370  14.842   6.857  0.0762 -0.0257  0.1315
  964YOPC   C2B13994  15.475  14.783   7.230 -0.1516  0.0568  0.3657
  964YOPC   D3B13995  15.466  15.037   7.488  0.0934 -0.0450  0.0287
  964YOPC   C4B13996  15.459  15.263   7.822  0.1744 -0.0419  0.1355
  965YOPC   NC313997  14.552   1.737   6.332 -0.3251 -0.0525  0.1656
  965YOPC   PO413998  14.113   1.863   6.307  0.5236 -0.2385 -0.1927
  965YOPC   GL113999  14.362   2.111   6.627  0.2977  0.1184  0.1028
  965YOPC   GL214000  14.653   2.094   6.614  0.1129 -0.1090  0.0093
  965YOPC   C1A14001  14.323   2.315   6.960 -0.0372  0.0645 -0.2566
  965YOPC   D2A14002  14.250   2.592   7.363  0.1198  0.1353  0.0921
  965YOPC   C3A14003  13.896   2.556   7.604  0.1121  0.0850  0.1367
  965YOPC   C4A14004  13.811   2.854   7.887  0.0237  0.1755 -0.1949
  965YOPC   C1B14005  14.787   1.816   6.982 -0.0563 -0.1223 -0.0283
  965YOPC   C2B14006  14.779   1.704   7.408  0.1240 -0.0801 -0.0256
  965YOPC   D3B14007  14.404   1.806   7.674 -0.4903  0.0032  0.4431
  965YOPC   C4B14008  14.280   1.718   8.031  0.3370 -0.1427 -0.1928
  966YOPC   NC314009   1.269   7.200   5.801 -0.1964 -0.1299 -0.2971
  966YOPC   PO414010   0.812   7.207   5.980  0.2299 -0.1231  0.2107
  966YOPC   GL114011   0.673   7.315   6.350  0.3807  0.1758 -0.1532
  966YOPC   GL214012   0.415   7.281   6.336  0.0612 -0.1357  0.0272
  966YOPC   C1A14013   0.680   7.474   6.754  0.2091  0.3505 -0.3211
  966YOPC   D2A14014   0.633   7.638   7.125  0.1671  0.1369  0.1466
  966YOPC   C3A14015   1.010   7.554   7.333 -0.3379  0.0815 -0.0358
  966YOPC   C4A14016   1.322   7.607   7.578  0.0325 -0.2638 -0.3241
  966YOPC   C1B14017   0.193   7.372   6.762  0.0008  0.0609  0.0538
  966YOPC   C2B14018   0.077   7.436   7.150  0.0022 -0.0492 -0.1725
  966YOPC   D3B14019   0.394   7.483   7.526 -0.0913  0.4726  0.1162
  966YOPC   C4B14020   0.528   7.365   7.955  0.1035 -0.0507 -0.0135
  967YOPC   NC314021   7.174  12.571   5.709  0.3812  0.1567 -0.0372
  967YOPC   PO414022   6.920  12.700   6.012 -0.0517  0.0360 -0.2040
  967YOPC   GL114023   7.089  12.736   6.351 -0.0057 -0.3450 -0.0856
  967YOPC   GL214024   6.826  12.605   6.615  0.1352  0.1388  0.0719
  967YOPC   C1A14025   7.167  12.993   6.712  0.2540  0.1967 -0.1786
  967YOPC   D2A14026   7.164  13.096   7.206  0.0030 -0.0055 -0.3069
  967YOPC   C3A14027   6.883  13.288   7.426 -0.1079  0.1124  0.0961
  967YOPC   C4A14028   6.898  13.329   7.819  0.1013 -0.1120 -0.0426
  967YOPC   C1B14029   6.886  12.622   6.960 -0.1160  0.0590  0.2472
  967YOPC   C2B14030   7.043  12.629   7.400  0.2374 -0.4481  0.1868
  967YOPC   D3B14031   7.284  12.389   7.584 -0.0761 -0.1733  0.2948
  967YOPC   C4B14032   7.381  11.991   7.621  0.2142 -0.2174 -0.0449
  968YOPC   NC314033   3.437   6.962   6.430  0.0954  0.0426  0.3610
  968YOPC   PO414034   3.833   7.250   6.434 -0.3325 -0.1917  0.1071
  968YOPC   GL114035   3.804   7.144   6.839 -0.1095 -0.0659 -0.2148
  968YOPC   GL214036   3.746   6.790   6.782  0.4377  0.1123 -0.0551
  968YOPC   C1A14037   3.672   7.289   7.200  0.0377  0.0670  0.2032
  968YOPC   D2A14038   3.722   7.406   7.689  0.1096  0.1838  0.2032
  968YOPC   C3A14039   3.658   7.592   8.053 -0.3786 -0.0152  0.3612
  968YOPC   C4A14040   3.691   7.561   8.532  0.1766  0.0463 -0.0394
  968YOPC   C1B14041   3.569   6.790   7.164  0.2903  0.2385 -0.2406
  968YOPC   C2B14042   3.237   6.682   7.452 -0.0376  0.3891  0.0980
  968YOPC   D3B14043   3.264   6.735   7.841  0.1558  0.3645 -0.0593
  968YOPC   C4B14044   3.084   6.955   8.270  0.2763 -0.1700  0.1291
  969YOPC   NC314045   8.115  12.672   6.019  0.3523 -0.0465 -0.0637
  969YOPC   PO414046   7.703  12.479   5.895 -0.4119 -0.0759 -0.0128
  969YOPC   GL114047   7.612  12.605   6.228  0.3629 -0.3048  0.0379
  969YOPC   GL214048   7.775  12.834   6.353 -0.0302 -0.1089  0.1727
  969YOPC   C1A14049   7.331  12.372   6.582 -0.0515 -0.2329  0.0982
  969YOPC   D2A14050   7.363  11.985   6.768  0.0560  0.0946 -0.0158
  969YOPC   C3A14051   7.595  11.894   7.119 -0.1894  0.0922 -0.2426
  969YOPC   C4A14052   7.819  11.824   7.481 -0.0517 -0.1695 -0.2752
  969YOPC   C1B14053   7.626  12.797   6.707  0.0633  0.0450  0.2066
  969YOPC   C2B14054   7.508  12.799   7.089 -0.0622  0.0498  0.1905
  969YOPC   D3B14055   7.519  12.829   7.425  0.4128 -0.1730 -0.0611
  969YOPC   C4B14056   7.275  12.991   7.740  0.1352  0.3844 -0.0520
  970YOPC   NC314057   2.794   1.209   5.826  0.1947  0.0931 -0.0756
  970YOPC   PO414058   2.941   1.568   6.052 -0.1467  0.0416  0.0198
  970YOPC   GL114059   2.696   1.373   6.365  0.1559 -0.2181  0.2002
  970YOPC   GL214060   2.405   1.239   6.366 -0.2692  0.2022  0.3377
  970YOPC   C1A14061   2.775   1.173   6.717 -0.1431  0.0217 -0.0854
  970YOPC   D2A14062   3.059   0.929   6.928 -0.1134 -0.1963  0.1573
  970YOPC   C3A14063   3.074   1.039   7.312 -0.3256  0.1031 -0.0227
  970YOPC   C4A14064   2.768   1.104   7.693  0.0300  0.0047  0.1039
  970YOPC   C1B14065   2.260   1.270   6.734  0.1295 -0.2355 -0.1935
  970YOPC   C2B14066   1.978   1.090   6.999 -0.0062 -0.1549 -0.3427
  970YOPC   D3B14067   2.304   1.077   7.212 -0.0457  0.3048 -0.1702
  970YOPC   C4B14068   2.642   1.357   7.188 -0.1918  0.1442 -0.1526
  971YOPC   NC314069   0.927   1.351   5.797  0.1788 -0.0555  0.0425
  971YOPC   PO414070   1.004   1.778   6.035  0.0748 -0.2183  0.0663
  971YOPC   GL114071   1.186   1.870   6.431  0.2009  0.1174 -0.1424
  971YOPC   GL214072   1.494   1.867   6.377  0.1025 -0.2632  0.0116
  971YOPC   C1A14073   1.413   1.986   6.865  0.2246 -0.1003 -0.2599
  971YOPC   D2A14074   1.396   1.955   7.423 -0.0308 -0.0736  0.0710
  971YOPC   C3A14075   1.361   1.592   7.585  0.1086 -0.1467 -0.0619
  971YOPC   C4A14076   1.215   1.365   7.952  0.1798 -0.1070 -0.1896
  971YOPC   C1B14077   1.609   1.582   6.686 -0.1585  0.1229  0.3314
  971YOPC   C2B14078   1.553   1.517   7.115 -0.0813 -0.4730 -0.0689
  971YOPC   D3B14079   1.753   1.234   7.440  0.2573  0.0700  0.0161
  971YOPC   C4B14080   1.706   1.381   7.859 -0.0112  0.1796 -0.1183
  972YOPC   NC314081  10.184  12.708   6.318 -0.2019 -0.1324 -0.0444
  972YOPC   PO414082   9.804  12.457   6.463  0.0489  0.3019 -0.0528
  972YOPC   GL114083   9.818  12.504   6.865  0.0331 -0.2303  0.1563
  972YOPC   GL214084  10.074  12.754   6.823 -0.0892 -0.1922  0.2304
  972YOPC   C1A14085   9.891  12.573   7.370  0.0246  0.1582  0.2937
  972YOPC   D2A14086   9.972  12.296   7.784  0.2142 -0.0257  0.0952
  972YOPC   C3A14087  10.063  12.421   8.137 -0.1781 -0.4080  0.0025
  972YOPC   C4A14088  10.201  12.569   8.591  0.2130 -0.1778  0.0442
  972YOPC   C1B14089   9.897  13.134   6.974 -0.3858 -0.0663 -0.2781
  972YOPC   C2B14090   9.569  13.370   7.056  0.1786 -0.0575  0.1408
  972YOPC   D3B14091   9.425  13.404   7.395  0.2296 -0.1821 -0.1064
  972YOPC   C4B14092   9.244  13.502   7.779 -0.1307  0.0862  0.0531
  973YOPC   NC314093  17.614   5.535   5.879 -0.2935 -0.2716  0.0396
  973YOPC   PO414094  17.245   5.305   6.145  0.0896 -0.1111 -0.1931
  973YOPC   GL114095  17.367   5.564   6.402 -0.2493 -0.1531  0.0575
  973YOPC   GL214096  17.655   5.473   6.456  0.1488  0.0264 -0.0928
  973YOPC   C1A14097  17.299   5.574   6.804 -0.0646 -0.2923 -0.1175
  973YOPC   D2A14098  17.194   5.941   7.054 -0.0648  0.0478 -0.0645
  973YOPC   C3A14099  17.402   6.008   7.455 -0.1416  0.1353  0.2216
  973YOPC   C4A14100  17.440   6.022   7.908 -0.1025 -0.0673  0.0950
  973YOPC   C1B14101  17.735   5.868   6.656 -0.1037 -0.0357 -0.2335
  973YOPC   C2B14102  17.691   6.160   7.045  0.0274  0.0073 -0.1668
  973YOPC   D3B14103  17.966   6.044   7.404 -0.0835  0.0152  0.1641
  973YOPC   C4B14104  17.965   6.029   7.819 -0.0175  0.1567 -0.0619
  974YOPC   NC314105  14.553   8.328   5.416 -0.0511 -0.3250  0.2346
  974YOPC   PO414106  14.280   8.256   5.705 -0.0792  0.0480 -0.0187
  974YOPC   GL114107  14.499   8.066   5.967  0.1962 -0.0321 -0.1828
  974YOPC   GL214108  14.700   7.900   5.987  0.1522 -0.2952  0.1692
  974YOPC   C1A14109  14.400   7.963   6.388  0.2653 -0.0659  0.1432
  974YOPC   D2A14110  14.240   7.886   6.695  0.1326  0.3338 -0.1493
  974YOPC   C3A14111  14.041   8.140   6.810  0.2326  0.1163  0.0373
  974YOPC   C4A14112  13.645   8.275   6.968 -0.1718  0.0076 -0.1582
  974YOPC   C1B14113  14.892   7.973   6.423 -0.2530 -0.0150  0.1781
  974YOPC   C2B14114  15.082   8.258   6.676 -0.0830 -0.0352 -0.2499
  974YOPC   D3B14115  15.046   8.330   7.073 -0.2853  0.0579 -0.0006
  974YOPC   C4B14116  14.919   8.410   7.447 -0.1691 -0.4345  0.0964
  975YOPC   NC314117   5.463   4.257   5.998 -0.0778  0.1079 -0.1294
  975YOPC   PO414118   5.132   4.556   5.944  0.1484  0.3420 -0.1809
  975YOPC   GL114119   5.121   4.615   6.333  0.0415  0.0265  0.2720
  975YOPC   GL214120   5.400   4.569   6.380  0.0969 -0.0621  0.0718
  975YOPC   C1A14121   5.135   4.898   6.704  0.0259  0.2308 -0.0091
  975YOPC   D2A14122   5.327   4.835   7.152  0.0800 -0.3250 -0.2042
  975YOPC   C3A14123   5.169   4.564   7.470  0.1176  0.1063  0.0655
  975YOPC   C4A14124   5.019   4.493   7.869 -0.0235  0.3504  0.0616
  975YOPC   C1B14125   5.515   4.512   6.863 -0.2130  0.2195 -0.4317
  975YOPC   C2B14126   5.630   4.419   7.299 -0.0701  0.2869 -0.2116
  975YOPC   D3B14127   5.413   4.162   7.650 -0.0843 -0.0556  0.2759
  975YOPC   C4B14128   5.529   3.986   8.125  0.0535 -0.0899  0.1514
  976YOPC   NC314129   1.866   8.014   6.078 -0.0936 -0.1282  0.1092
  976YOPC   PO414130   1.585   7.686   6.055  0.0486 -0.0572 -0.1258
  976YOPC   GL114131   1.904   7.531   6.339 -0.2262 -0.0333  0.2611
  976YOPC   GL214132   1.859   7.180   6.499 -0.3229 -0.0678  0.1083
  976YOPC   C1A14133   2.103   7.605   6.773 -0.2111 -0.1426 -0.0543
  976YOPC   D2A14134   2.519   7.385   6.855 -0.2026  0.0689  0.0999
  976YOPC   C3A14135   2.823   7.562   6.873 -0.0974  0.2130  0.0993
  976YOPC   C4A14136   2.960   7.929   6.967  0.0346  0.0143 -0.0672
  976YOPC   C1B14137   1.566   7.390   6.724  0.0911 -0.2683 -0.3417
  976YOPC   C2B14138   1.161   7.336   6.785  0.0830  0.2681  0.0789
  976YOPC   D3B14139   1.040   7.768   6.825  0.3175  0.5364  0.0527
  976YOPC   C4B14140   0.810   7.893   6.460  0.4139 -0.0533  0.0661
  977YOPC   NC314141  15.438  15.719   5.333 -0.1938 -0.1553  0.0743
  977YOPC   PO414142  15.460  15.769   5.794 -0.0242  0.2095 -0.0484
  977YOPC   GL114143  15.373  15.769   6.299  0.1013  0.5981  0.0159
  977YOPC   GL214144  15.374  15.674   6.684  0.1062 -0.0472 -0.0170
  977YOPC   C1A14145  15.619  16.042   6.665  0.4433 -0.0415 -0.0138
  977YOPC   D2A14146  15.507  16.467   6.865  0.0161 -0.1847  0.0606
  977YOPC   C3A14147  15.324  16.494   7.244  0.0906  0.1173 -0.2273
  977YOPC   C4A14148  15.181  16.368   7.602  0.0120  0.1484 -0.0291
  977YOPC   C1B14149  15.574  15.731   7.018 -0.1429  0.0678 -0.0779
  977YOPC   C2B14150  15.746  16.077   7.162 -0.0971  0.0557 -0.1837
  977YOPC   D3B14151  15.686  16.243   7.571 -0.0314 -0.0284 -0.3334
  977YOPC   C4B14152  15.862  16.186   7.997 -0.1117 -0.0215  0.0294
  978YOPC   NC314153   8.180   5.747   5.670 -0.0346  0.1956  0.0184
  978YOPC   PO414154   7.975   6.139   5.835 -0.0372 -0.0051  0.0469
  978YOPC   GL114155   7.822   6.209   6.312  0.0300  0.0967  0.4461
  978YOPC   GL214156   7.808   5.873   6.537 -0.0213  0.0583 -0.0669
  978YOPC   C1A14157   7.637   6.302   6.645  0.0153  0.0419 -0.2342
  978YOPC   D2A14158   7.550   6.512   7.013 -0.2384  0.3647  0.2059
  978YOPC   C3A14159   7.446   6.184   7.361 -0.0052  0.2107  0.1196
  978YOPC   C4A14160   7.628   6.221   7.692 -0.0591 -0.1732 -0.1559
  978YOPC   C1B14161   7.416   5.676   6.654 -0.0454 -0.1274  0.2752
  978YOPC   C2B14162   7.022   5.610   6.789  0.0384 -0.2157  0.1770
  978YOPC   D3B14163   7.034   5.408   7.054 -0.1043 -0.0233 -0.4936
  978YOPC   C4B14164   6.975   5.293   7.508 -0.0493  0.0615  0.1163
  979YOPC   NC314165   1.657  11.636   5.939 -0.3961 -0.2708  0.0944
  979YOPC   PO414166   1.409  11.270   5.978  0.3061 -0.0931  0.1259
  979YOPC   GL114167   1.552  11.118   6.382  0.0979  0.2154 -0.1840
  979YOPC   GL214168   1.308  10.912   6.609  0.2359 -0.0346 -0.0111
  979YOPC   C1A14169   1.753  11.076   6.797 -0.0523 -0.1676 -0.3436
  979YOPC   D2A14170   1.993  11.012   7.179 -0.0399  0.0682  0.0395
  979YOPC   C3A14171   1.860  10.862   7.556 -0.2652  0.1494 -0.1068
  979YOPC   C4A14172   1.985  10.574   7.871 -0.1970 -0.2090  0.3133
  979YOPC   C1B14173   1.493  10.697   6.882 -0.3804  0.0538 -0.0766
  979YOPC   C2B14174   1.703  10.572   7.159 -0.1578  0.0159  0.2336
  979YOPC   D3B14175   1.717  10.331   7.544  0.0877 -0.0080  0.1233
  979YOPC   C4B14176   1.610   9.984   7.666  0.0997 -0.0330 -0.1996
  980YOPC   NC314177   8.554   9.852   6.021 -0.0541  0.1544  0.1462
  980YOPC   PO414178   8.515   9.431   6.166  0.1478 -0.1616 -0.5061
  980YOPC   GL114179   8.394   9.532   6.496 -0.1652  0.1644  0.0397
  980YOPC   GL214180   8.261   9.818   6.464  0.2017  0.0556  0.0379
  980YOPC   C1A14181   8.359   9.633   6.942  0.3060  0.2021 -0.1132
  980YOPC   D2A14182   8.303   9.834   7.335 -0.0429 -0.1192  0.1923
  980YOPC   C3A14183   8.464   9.664   7.645 -0.0193  0.2662  0.0781
  980YOPC   C4A14184   8.513   9.745   8.029  0.2902  0.3049  0.1513
  980YOPC   C1B14185   7.938   9.627   6.726  0.0396  0.2730  0.1132
  980YOPC   C2B14186   7.909   9.580   7.193  0.2018  0.0488 -0.0756
  980YOPC   D3B14187   8.224   9.307   7.368 -0.0455  0.1373  0.0037
  980YOPC   C4B14188   8.460   8.978   7.478 -0.1821  0.0740  0.0360
  981YOPC   NC314189   5.613   2.587   6.051  0.1930  0.2978  0.1814
  981YOPC   PO414190   5.640   2.332   5.722 -0.2320  0.0541  0.0887
  981YOPC   GL114191   5.895   2.168   6.095  0.1804 -0.0602  0.1868
  981YOPC   GL214192   6.090   2.435   6.181 -0.1670  0.0100  0.0256
  981YOPC   C1A14193   6.151   1.993   6.439 -0.0447 -0.1350 -0.1512
  981YOPC   D2A14194   6.008   1.900   6.886  0.0376 -0.4181 -0.2073
  981YOPC   C3A14195   5.727   2.142   7.112 -0.0868 -0.0346  0.0392
  981YOPC   C4A14196   5.707   2.504   7.350 -0.1913 -0.0880 -0.2214
  981YOPC   C1B14197   6.193   2.532   6.486 -0.1161  0.2645 -0.2070
  981YOPC   C2B14198   6.173   2.424   6.887  0.1877 -0.1283  0.1551
  981YOPC   D3B14199   6.170   2.172   7.326 -0.1426  0.0572 -0.1646
  981YOPC   C4B14200   6.060   2.418   7.771  0.1799  0.0830 -0.2859
  982YOPC   NC314201   9.360   8.595   5.870  0.1219 -0.2374 -0.1708
  982YOPC   PO414202   9.485   8.954   6.010  0.0984  0.3141  0.1390
  982YOPC   GL114203   9.346   9.162   6.393  0.0366  0.1172  0.0212
  982YOPC   GL214204   9.606   9.334   6.392  0.1805 -0.1517  0.0671
  982YOPC   C1A14205   9.161   9.265   6.821 -0.1573  0.0069 -0.0584
  982YOPC   D2A14206   8.973   9.023   7.151 -0.1298  0.1952  0.1354
  982YOPC   C3A14207   9.201   9.116   7.567 -0.4002  0.3071 -0.2721
  982YOPC   C4A14208   9.090   9.021   8.025 -0.0601 -0.1753 -0.0526
  982YOPC   C1B14209   9.578   9.571   6.800  0.0338 -0.3942  0.1326
  982YOPC   C2B14210   9.955   9.641   7.053 -0.1555  0.1437 -0.0289
  982YOPC   D3B14211  10.042   9.366   7.120  0.2288  0.2384  0.1053
  982YOPC   C4B14212  10.079   8.990   7.207  0.0660 -0.1596  0.2127
  983YOPC   NC314213   9.675   2.710   6.163  0.2774 -0.1366  0.2596
  983YOPC   PO414214   9.446   3.121   6.207 -0.0564  0.0666 -0.1985
  983YOPC   GL114215   9.789   3.103   6.510 -0.1058  0.0289  0.3301
  983YOPC   GL214216   9.639   3.381   6.623 -0.3343  0.0079  0.1056
  983YOPC   C1A14217  10.022   3.005   6.869  0.0224 -0.0020  0.2090
  983YOPC   D2A14218  10.064   3.111   7.364 -0.0111 -0.1293 -0.0566
  983YOPC   C3A14219  10.209   2.758   7.471 -0.0332  0.0860 -0.0261
  983YOPC   C4A14220  10.518   2.549   7.679 -0.0100 -0.1357 -0.0871
  983YOPC   C1B14221   9.583   3.303   7.023 -0.2445 -0.0849 -0.1091
  983YOPC   C2B14222   9.448   3.239   7.480 -0.1423  0.0674 -0.1204
  983YOPC   D3B14223   9.716   3.183   7.811  0.2007 -0.2627  0.1811
  983YOPC   C4B14224   9.985   2.832   7.997  0.1616 -0.0015  0.1984
  984YOPC   NC314225  12.281   8.525   5.984  0.2550 -0.1859  0.3128
  984YOPC   PO414226  12.039   8.865   6.070  0.2524 -0.1451  0.1656
  984YOPC   GL114227  12.181   8.939   6.450  0.2558  0.0363  0.0734
  984YOPC   GL214228  12.506   8.884   6.377  0.1671 -0.0190 -0.1309
  984YOPC   C1A14229  12.283   9.003   6.902  0.1420 -0.1469  0.1835
  984YOPC   D2A14230  12.396   9.007   7.295 -0.3769  0.0313 -0.0010
  984YOPC   C3A14231  12.591   8.737   7.563 -0.0151  0.0775  0.2238
  984YOPC   C4A14232  12.483   8.334   7.660  0.0183 -0.1104  0.0635
  984YOPC   C1B14233  12.444   8.542   6.659 -0.1367  0.0572  0.1680
  984YOPC   C2B14234  12.532   8.599   7.023  0.1086 -0.0125 -0.0177
  984YOPC   D3B14235  12.768   8.897   7.009 -0.0323  0.3173  0.1276
  984YOPC   C4B14236  13.020   8.949   7.301 -0.1184 -0.1878  0.4583
  985YOPC   NC314237  12.571  14.446   5.738 -0.0872 -0.3792  0.1844
  985YOPC   PO414238  12.827  14.386   6.085  0.1009 -0.1729  0.1507
  985YOPC   GL114239  12.458  14.437   6.336 -0.0574 -0.2379  0.0342
  985YOPC   GL214240  12.496  14.712   6.263 -0.0601 -0.0237 -0.1974
  985YOPC   C1A14241  12.232  14.344   6.728  0.1177 -0.1157 -0.3849
  985YOPC   D2A14242  12.179  14.266   7.182 -0.1159 -0.0082  0.3425
  985YOPC   C3A14243  12.238  13.940   7.527  0.0290 -0.1829  0.1433
  985YOPC   C4A14244  11.972  13.782   7.769 -0.1438  0.1219 -0.2928
  985YOPC   C1B14245  12.324  14.829   6.637 -0.1794  0.1602  0.0240
  985YOPC   C2B14246  12.013  15.090   7.000  0.0181  0.2522  0.3937
  985YOPC   D3B14247  12.126  15.258   7.399 -0.0374  0.2336 -0.1266
  985YOPC   C4B14248  12.239  15.489   7.680 -0.1428 -0.0537  0.1229
  986YOPC   NC314249   6.582  17.321   5.776 -0.1630  0.0309  0.1188
  986YOPC   PO414250   6.181  17.109   5.668  0.2809 -0.1082 -0.0614
  986YOPC   GL114251   6.157  16.965   6.059  0.1868 -0.5079  0.0986
  986YOPC   GL214252   6.408  16.823   6.139 -0.1937 -0.0881  0.1967
  986YOPC   C1A14253   5.790  16.939   6.319  0.2967 -0.0516 -0.0995
  986YOPC   D2A14254   5.437  16.789   6.174  0.3950  0.2369  0.0729
  986YOPC   C3A14255   5.297  16.497   6.485  0.0640 -0.1397  0.1133
  986YOPC   C4A14256   5.015  16.315   6.805  0.2285  0.3134  0.1842
  986YOPC   C1B14257   6.715  16.781   6.503 -0.3013  0.3521  0.1010
  986YOPC   C2B14258   7.047  16.863   6.825 -0.0875 -0.0275  0.2724
  986YOPC   D3B14259   6.874  17.096   7.161 -0.1225  0.1148 -0.0268
  986YOPC   C4B14260   6.945  17.099   7.589  0.0231 -0.1330 -0.0932
  987YOPC   NC314261  17.263  11.056   5.542 -0.1337  0.1147  0.1459
  987YOPC   PO414262  17.209  11.136   6.042  0.2707  0.0085 -0.0398
  987YOPC   GL114263  17.162  11.032   6.460  0.1480  0.1185 -0.1576
  987YOPC   GL214264  17.511  10.972   6.621  0.2676 -0.1786 -0.0532
  987YOPC   C1A14265  16.857  10.959   6.809 -0.1276  0.0783  0.0910
  987YOPC   D2A14266  16.767  10.932   7.239 -0.0968  0.3188 -0.1493
  987YOPC   C3A14267  16.912  10.841   7.606  0.0584  0.4150  0.1055
  987YOPC   C4A14268  17.093  10.763   8.085  0.0403 -0.4172  0.1602
  987YOPC   C1B14269  17.541  10.790   6.985 -0.1959  0.1645 -0.3867
  987YOPC   C2B14270  17.799  10.632   7.431  0.0036  0.1394 -0.0283
  987YOPC   D3B14271  17.765  10.791   7.896 -0.1470  0.1601  0.3127
  987YOPC   C4B14272  17.607  10.877   8.241  0.1377  0.0738  0.0470
  988YOPC   NC314273   5.405   7.339   6.471  0.1760 -0.1685  0.0976
  988YOPC   PO414274   5.404   7.689   6.477 -0.0438  0.0424 -0.1097
  988YOPC   GL114275   5.516   7.752   6.931 -0.2155 -0.2681  0.1830
  988YOPC   GL214276   5.607   7.462   6.973 -0.1770  0.2939  0.2160
  988YOPC   C1A14277   5.650   7.872   7.378  0.3555  0.0886  0.0933
  988YOPC   D2A14278   5.753   7.995   7.852 -0.0785  0.3741 -0.2160
  988YOPC   C3A14279   5.870   7.866   8.217  0.0614  0.3230 -0.0199
  988YOPC   C4A14280   6.082   8.097   8.574 -0.0436  0.0121 -0.1429
  988YOPC   C1B14281   5.888   7.389   7.253 -0.1896  0.1516 -0.2453
  988YOPC   C2B14282   5.911   7.544   7.672  0.0188 -0.0344 -0.0926
  988YOPC   D3B14283   6.030   7.413   8.184  0.0063  0.1940 -0.1592
  988YOPC   C4B14284   6.314   7.486   8.433  0.1086 -0.2559 -0.2118
  989YOPC   NC314285  15.369   8.401   5.725 -0.1123  0.2934  0.3924
  989YOPC   PO414286  15.649   8.281   6.077 -0.1882  0.0568  0.0551
  989YOPC   GL114287  15.613   8.282   6.508 -0.0409 -0.3200  0.1788
  989YOPC   GL214288  15.790   8.219   6.711  0.2009  0.3934 -0.0318
  989YOPC   C1A14289  15.476   8.557   6.889  0.1482 -0.0035 -0.1820
  989YOPC   D2A14290  15.450   8.577   7.339 -0.4333  0.1123 -0.1242
  989YOPC   C3A14291  15.407   8.245   7.548  0.1608  0.0675 -0.0094
  989YOPC   C4A14292  15.533   7.862   7.870 -0.0233 -0.0319  0.0417
  989YOPC   C1B14293  15.491   8.033   7.034  0.2920  0.3378 -0.2023
  989YOPC   C2B14294  15.426   7.760   7.370 -0.0226  0.0009  0.1905
  989YOPC   D3B14295  15.536   7.379   7.745  0.0581 -0.1444 -0.0663
  989YOPC   C4B14296  15.589   7.105   8.140  0.2396  0.1617  0.2614
  990YOPC   NC314297  15.096   5.047   5.769 -0.0738  0.3807 -0.0652
  990YOPC   PO414298  14.701   5.356   5.702 -0.2145 -0.2087  0.0332
  990YOPC   GL114299  14.839   5.408   6.111  0.1972  0.0829 -0.0743
  990YOPC   GL214300  14.995   5.583   6.202  0.2645  0.0288 -0.1875
  990YOPC   C1A14301  14.927   5.120   6.511 -0.0609 -0.0479  0.1570
  990YOPC   D2A14302  14.676   4.989   6.816  0.0073  0.0333 -0.0498
  990YOPC   C3A14303  14.590   4.936   7.263 -0.2405 -0.0289 -0.0760
  990YOPC   C4A14304  14.872   4.841   7.537  0.2415 -0.0271  0.0734
  990YOPC   C1B14305  14.865   5.645   6.613 -0.0816  0.0951  0.1107
  990YOPC   C2B14306  14.875   5.511   6.958 -0.1556 -0.1248  0.0537
  990YOPC   D3B14307  14.854   5.362   7.330  0.0149 -0.0569  0.2651
  990YOPC   C4B14308  15.248   5.231   7.581 -0.3227 -0.0405  0.0301
  991YOPC   NC314309   6.850   1.162   5.475 -0.0527 -0.2202  0.0303
  991YOPC   PO414310   6.822   1.513   5.767  0.0523 -0.2570  0.0146
  991YOPC   GL114311   6.653   1.753   6.102 -0.0921 -0.0699  0.3856
  991YOPC   GL214312   6.452   1.647   6.308  0.0212 -0.1243  0.2292
  991YOPC   C1A14313   6.908   1.723   6.462 -0.2711 -0.0149 -0.2400
  991YOPC   D2A14314   7.091   1.649   6.931 -0.0799  0.2330  0.0493
  991YOPC   C3A14315   6.932   1.497   7.393  0.1267  0.0202  0.4728
  991YOPC   C4A14316   6.727   1.579   7.838  0.0414 -0.0664  0.3251
  991YOPC   C1B14317   6.543   1.491   6.768 -0.1083 -0.4279 -0.2211
  991YOPC   C2B14318   6.449   1.336   7.212 -0.1703 -0.2993  0.0885
  991YOPC   D3B14319   6.644   1.019   7.468  0.0268  0.1624 -0.1390
  991YOPC   C4B14320   6.541   1.062   7.876 -0.0967  0.1153 -0.2672
  992YOPC   NC314321   3.540   0.731   5.731 -0.1774  0.0100 -0.0370
  992YOPC   PO414322   3.831   0.975   5.876  0.2261 -0.1264  0.0075
  992YOPC   GL114323   3.686   0.858   6.225 -0.0239 -0.0765 -0.2864
  992YOPC   GL214324   3.655   1.062   6.449  0.2004 -0.1157  0.0102
  992YOPC   C1A14325   3.866   0.694   6.644  0.3339  0.1717 -0.0481
  992YOPC   D2A14326   3.656   0.302   6.747  0.1170  0.1911  0.1250
  992YOPC   C3A14327   3.551   0.160   7.135 -0.2688 -0.1087 -0.0671
  992YOPC   C4A14328   3.492  -0.048   7.447  0.1002  0.1011  0.0674
  992YOPC   C1B14329   3.578   1.098   6.927  0.1855  0.1197  0.1516
  992YOPC   C2B14330   3.672   1.051   7.323 -0.0016  0.0144  0.1243
  992YOPC   D3B14331   3.410   0.902   7.631 -0.4175  0.0504 -0.3249
  992YOPC   C4B14332   3.318   0.629   7.986  0.1453 -0.1561 -0.1199
  993YOPC   NC314333  13.237   2.346   6.260  0.2005  0.2907 -0.1759
  993YOPC   PO414334  12.867   2.136   6.423 -0.1296  0.0310 -0.0851
  993YOPC   GL114335  13.019   2.536   6.705  0.2245  0.2558 -0.1781
  993YOPC   GL214336  13.365   2.457   6.713 -0.1895 -0.1434  0.0818
  993YOPC   C1A14337  13.001   2.689   7.078  0.0957  0.1023 -0.1049
  993YOPC   D2A14338  12.966   2.940   7.379  0.1916 -0.1425 -0.0938
  993YOPC   C3A14339  12.865   2.921   7.836 -0.1090  0.1620  0.0019
  993YOPC   C4A14340  12.908   2.593   8.079 -0.0907  0.0257  0.0635
  993YOPC   C1B14341  13.373   2.926   6.864  0.2675 -0.3875 -0.0567
  993YOPC   C2B14342  13.383   3.140   7.255 -0.0280 -0.0852 -0.2821
  993YOPC   D3B14343  13.395   2.833   7.606 -0.1219  0.0120 -0.1175
  993YOPC   C4B14344  13.360   2.910   8.089  0.2440  0.0774  0.2066
  994YOPC   NC314345  13.710  17.309   5.674  0.1581 -0.0294 -0.1784
  994YOPC   PO414346  13.967  17.664   5.809 -0.1614 -0.1510 -0.1065
  994YOPC   GL114347  13.932  17.694   6.236  0.0995  0.2686 -0.0727
  994YOPC   GL214348  13.657  17.603   6.420 -0.1399  0.0481 -0.0763
  994YOPC   C1A14349  14.118  17.796   6.707 -0.2720 -0.1781  0.2223
  994YOPC   D2A14350  14.112  18.119   6.906  0.0178  0.0915  0.1380
  994YOPC   C3A14351  14.167  18.109   7.335 -0.1345 -0.3163 -0.0376
  994YOPC   C4A14352  14.223  18.461   7.641  0.1000  0.3263  0.1290
  994YOPC   C1B14353  13.510  17.235   6.604 -0.0458 -0.2379  0.1060
  994YOPC   C2B14354  13.469  16.975   6.935  0.1584 -0.2340 -0.0878
  994YOPC   D3B14355  13.210  16.656   7.022 -0.1503 -0.1513 -0.0731
  994YOPC   C4B14356  13.193  16.547   7.460  0.2616  0.0467  0.2340
  995YOPC   NC314357   4.129   5.822   6.404  0.2498 -0.3016 -0.1569
  995YOPC   PO414358   3.771   5.550   6.557 -0.0032 -0.2599 -0.2110
  995YOPC   GL114359   3.707   5.338   6.962  0.0452  0.0425 -0.1148
  995YOPC   GL214360   3.945   5.138   6.884 -0.0700  0.1139 -0.1919
  995YOPC   C1A14361   3.541   5.319   7.426  0.2141 -0.4365 -0.1260
  995YOPC   D2A14362   3.652   5.585   7.624 -0.0530 -0.2644  0.1873
  995YOPC   C3A14363   3.995   5.649   7.967 -0.3166 -0.3698  0.1561
  995YOPC   C4A14364   4.305   5.845   8.223  0.1380  0.2612 -0.0699
  995YOPC   C1B14365   3.969   5.057   7.368 -0.3397  0.0015 -0.0225
  995YOPC   C2B14366   3.949   5.158   7.709 -0.0499 -0.0327 -0.2365
  995YOPC   D3B14367   3.949   5.008   8.069 -0.3226 -0.1159 -0.0239
  995YOPC   C4B14368   3.986   4.729   8.274 -0.1281  0.2506  0.0484
  996YOPC   NC314369   5.632  17.557   5.629 -0.1238  0.5348  0.1460
  996YOPC   PO414370   5.888  17.447   5.986  0.0268 -0.1417  0.0105
  996YOPC   GL114371   5.868  17.464   6.392 -0.1611  0.2440 -0.0969
  996YOPC   GL214372   5.676  17.695   6.458  0.2742  0.0370  0.2882
  996YOPC   C1A14373   5.878  17.210   6.818  0.0574  0.0081  0.2730
  996YOPC   D2A14374   6.008  16.902   7.012 -0.4020 -0.1091  0.0336
  996YOPC   C3A14375   5.644  16.875   7.315  0.2966  0.0387  0.2485
  996YOPC   C4A14376   5.634  16.781   7.818  0.3236  0.0065  0.1723
  996YOPC   C1B14377   5.549  17.618   6.835 -0.2588  0.2741  0.2090
  996YOPC   C2B14378   5.590  17.371   7.204 -0.5642 -0.0327 -0.1564
  996YOPC   D3B14379   5.679  17.578   7.578  0.0741 -0.0577  0.1010
  996YOPC   C4B14380   5.621  17.703   7.989  0.1385  0.0649  0.3391
  997YOPC   NC314381   4.964  16.087   5.416 -0.0198  0.4231  0.0331
  997YOPC   PO414382   5.215  16.172   5.694 -0.0234  0.4766  0.1229
  997YOPC   GL114383   5.321  16.232   6.043 -0.1466  0.0014 -0.0865
  997YOPC   GL214384   5.631  16.114   6.010  0.0216 -0.2902 -0.1750
  997YOPC   C1A14385   5.036  16.111   6.358  0.2989  0.2506  0.1526
  997YOPC   D2A14386   4.958  15.830   6.678  0.0914  0.0593  0.1956
  997YOPC   C3A14387   4.815  15.927   6.993 -0.2439  0.0666 -0.1783
  997YOPC   C4A14388   4.719  15.967   7.329 -0.3379  0.0200 -0.1241
  997YOPC   C1B14389   5.681  16.289   6.387  0.1349 -0.0539 -0.2275
  997YOPC   C2B14390   5.651  16.597   6.823  0.0280  0.1818 -0.0748
  997YOPC   D3B14391   5.580  16.378   7.201  0.1311 -0.1362 -0.0437
  997YOPC   C4B14392   5.408  16.380   7.674  0.1808 -0.1007  0.0262
  998YOPC   NC314393  17.076   0.637   5.731 -0.1292 -0.0589 -0.0063
  998YOPC   PO414394  17.069   0.291   5.992  0.1364 -0.2757 -0.1182
  998YOPC   GL114395  17.140   0.240   6.447 -0.0106 -0.2731  0.0264
  998YOPC   GL214396  16.843   0.447   6.579  0.0696 -0.1929  0.1148
  998YOPC   C1A14397  17.217   0.306   6.870 -0.0342 -0.2762  0.1869
  998YOPC   D2A14398  17.375   0.152   7.258  0.0067 -0.1827 -0.1730
  998YOPC   C3A14399  17.313   0.500   7.606 -0.0620 -0.1225  0.1560
  998YOPC   C4A14400  17.389   0.573   8.056 -0.1772 -0.3075  0.2026
  998YOPC   C1B14401  16.679   0.354   6.894 -0.1159 -0.2978 -0.1255
  998YOPC   C2B14402  16.924   0.338   7.270  0.2240  0.0471 -0.2268
  998YOPC   D3B14403  16.853   0.343   7.784 -0.0439  0.1887 -0.1103
  998YOPC   C4B14404  17.068   0.140   8.100  0.0176 -0.1804 -0.2616
  999YOPC   NC314405   5.068   3.634   5.942  0.4086  0.1273 -0.4970
  999YOPC   PO414406   5.405   3.739   6.129 -0.3353  0.1607  0.1291
  999YOPC   GL114407   5.317   3.435   6.366 -0.4133  0.1037 -0.0786
  999YOPC   GL214408   5.526   3.069   6.324 -0.2252  0.1553 -0.3530
  999YOPC   C1A14409   5.164   3.320   6.758 -0.4033 -0.1786 -0.0258
  999YOPC   D2A14410   4.902   3.273   7.043  0.1655 -0.0061 -0.0062
  999YOPC   C3A14411   5.084   3.170   7.457  0.1466 -0.2566 -0.2637
  999YOPC   C4A14412   5.275   3.017   7.922 -0.1077  0.1341  0.1845
  999YOPC   C1B14413   5.714   3.264   6.711  0.3114 -0.0594 -0.1870
  999YOPC   C2B14414   5.963   3.409   7.019 -0.1525  0.0419  0.1794
  999YOPC   D3B14415   5.933   3.294   7.394 -0.0391  0.1690 -0.3637
  999YOPC   C4B14416   6.041   3.353   7.867  0.4682  0.2404  0.0050
 1000YOPC   NC314417  16.187   7.018   6.139  0.3163 -0.0554  0.2903
 1000YOPC   PO414418  16.602   6.830   6.158 -0.0736 -0.0020 -0.3904
 1000YOPC   GL114419  16.611   6.980   6.621  0.1170  0.2105  0.1582
 1000YOPC   GL214420  16.589   7.252   6.718 -0.1261  0.0222 -0.3289
 1000YOPC   C1A14421  16.277   6.937   6.969  0.1147  0.1174 -0.1692
 1000YOPC   D2A14422  16.170   7.019   7.310 -0.1398 -0.2974 -0.1055
 1000YOPC   C3A14423  16.101   6.661   7.571  0.3539 -0.0577  0.1647
 1000YOPC   C4A14424  15.978   6.278   7.800  0.2150 -0.1746 -0.1747
 1000YOPC   C1B14425  16.725   7.236   7.128 -0.0635  0.1139  0.1915
 1000YOPC   C2B14426  16.931   7.242   7.565 -0.1212  0.0298 -0.0394
 1000YOPC   D3B14427  16.827   7.181   7.963  0.0165  0.3183 -0.0997
 1000YOPC   C4B14428  16.527   7.052   8.301 -0.0802 -0.0092 -0.1705
 1001YOPC   NC314429   8.635   0.225   5.630 -0.1518  0.0782  0.1916
 1001YOPC   PO414430   8.507  -0.087   5.448  0.0686 -0.2407 -0.1131
 1001YOPC   GL114431   8.571  -0.267   5.917  0.0527 -0.0733 -0.1352
 1001YOPC   GL214432   8.376  -0.141   6.296 -0.1161 -0.0720  0.0831
 1001YOPC   C1A14433   8.709  -0.455   6.363 -0.0922  0.1162  0.2646
 1001YOPC   D2A14434   8.617  -0.758   6.647  0.1078 -0.1437 -0.0014
 1001YOPC   C3A14435   8.734  -0.876   7.027 -0.0442 -0.0602 -0.0448
 1001YOPC   C4A14436   8.613  -1.013   7.373 -0.2397 -0.4596  0.0072
 1001YOPC   C1B14437   8.454  -0.137   6.666  0.4154  0.1010  0.0755
 1001YOPC   C2B14438   8.640  -0.331   6.980  0.1047  0.1890 -0.5134
 1001YOPC   D3B14439   8.677  -0.197   7.366  0.0040 -0.3071 -0.0083
 1001YOPC   C4B14440   8.823  -0.335   7.704  0.2333 -0.4443  0.2928
 1002YOPC   NC314441   6.850  10.188   6.004 -0.1275  0.3198 -0.0305
 1002YOPC   PO414442   6.465  10.046   5.863  0.0537 -0.0164 -0.4387
 1002YOPC   GL114443   6.343   9.968   6.225 -0.0848 -0.0489  0.1190
 1002YOPC   GL214444   6.614   9.837   6.590  0.2108 -0.0158  0.3230
 1002YOPC   C1A14445   6.209  10.125   6.665  0.4025 -0.2693 -0.1190
 1002YOPC   D2A14446   6.258  10.378   7.010  0.0512  0.0451  0.1786
 1002YOPC   C3A14447   6.619  10.621   7.111 -0.1647 -0.1778  0.3053
 1002YOPC   C4A14448   6.972  10.786   7.359  0.0596 -0.0751 -0.3176
 1002YOPC   C1B14449   6.679  10.108   6.986 -0.0211 -0.2221 -0.2495
 1002YOPC   C2B14450   6.520  10.145   7.395  0.2443  0.0379  0.0422
 1002YOPC   D3B14451   6.547  10.551   7.551  0.0491  0.3066 -0.0575
 1002YOPC   C4B14452   6.239  10.943   7.861  0.1124  0.1846 -0.0227
 1003YOPC   NC314453   0.349  16.508   5.680  0.1335 -0.3273 -0.3162
 1003YOPC   PO414454   0.078  16.777   5.926  0.4604 -0.3391 -0.3050
 1003YOPC   GL114455   0.341  16.745   6.250  0.0577  0.0216 -0.2276
 1003YOPC   GL214456   0.137  16.900   6.494  0.0909 -0.0868  0.1041
 1003YOPC   C1A14457   0.362  16.530   6.724  0.1673  0.2210 -0.2773
 1003YOPC   D2A14458   0.361  16.495   7.163  0.0702 -0.1343  0.2443
 1003YOPC   C3A14459   0.260  16.777   7.400 -0.0547  0.2229  0.4163
 1003YOPC   C4A14460  -0.045  16.865   7.767  0.1928 -0.1878  0.0355
 1003YOPC   C1B14461   0.045  17.033   6.989  0.0509  0.0541  0.0545
 1003YOPC   C2B14462  -0.136  17.170   7.384  0.3366 -0.1538 -0.1773
 1003YOPC   D3B14463  -0.477  17.049   7.745  0.1295  0.2950  0.2061
 1003YOPC   C4B14464  -0.444  16.665   7.956 -0.2598  0.0227 -0.2371
 1004YOPC   NC314465  10.541  17.377   5.468 -0.2091 -0.1724 -0.1050
 1004YOPC   PO414466  10.141  17.434   5.694 -0.2687  0.0338  0.3508
 1004YOPC   GL114467  10.166  17.613   6.200  0.0559 -0.3190  0.1096
 1004YOPC   GL214468   9.738  17.426   6.313  0.2251 -0.0601 -0.0887
 1004YOPC   C1A14469  10.371  17.544   6.619 -0.1940 -0.4729  0.4453
 1004YOPC   D2A14470  10.567  17.418   7.013 -0.0413  0.0399  0.1995
 1004YOPC   C3A14471  10.440  17.608   7.389  0.1504 -0.0210 -0.1401
 1004YOPC   C4A14472  10.518  17.437   7.813 -0.0517  0.0992  0.0814
 1004YOPC   C1B14473   9.917  17.569   6.699  0.1416 -0.1836  0.0644
 1004YOPC   C2B14474  10.068  17.618   7.056  0.0540 -0.2647  0.1652
 1004YOPC   D3B14475   9.992  17.446   7.463  0.1482 -0.5591 -0.1546
 1004YOPC   C4B14476   9.968  17.516   7.885  0.3631 -0.1718 -0.0782
 1005YOPC   NC314477  10.843   0.771   5.945  0.1925  0.2903  0.1517
 1005YOPC   PO414478  10.850   1.194   6.186 -0.1340  0.2130  0.0452
 1005YOPC   GL114479  10.961   1.397   6.552 -0.1829 -0.0836  0.1241
 1005YOPC   GL214480  11.163   1.182   6.621  0.0257 -0.2063  0.0355
 1005YOPC   C1A14481  10.925   1.806   6.643  0.3647 -0.1982 -0.1877
 1005YOPC   D2A14482  10.913   1.948   7.036  0.1113  0.1159 -0.0823
 1005YOPC   C3A14483  10.821   1.656   7.435 -0.2004  0.0143 -0.1583
 1005YOPC   C4A14484  10.695   1.258   7.566  0.0736 -0.0117  0.2141
 1005YOPC   C1B14485  11.122   1.179   7.070  0.0981  0.1473 -0.1891
 1005YOPC   C2B14486  10.862   0.835   7.367  0.0287 -0.0090 -0.0348
 1005YOPC   D3B14487  11.016   0.503   7.517 -0.0865  0.0581 -0.0441
 1005YOPC   C4B14488  11.207   0.632   7.926  0.0370 -0.0758 -0.0432
 1006YOPC   NC314489  13.552  12.417   5.308  0.2331  0.0265  0.0563
 1006YOPC   PO414490  13.284  12.682   5.587  0.0632  0.1565  0.1512
 1006YOPC   GL114491  12.992  12.858   5.997  0.1792 -0.1093 -0.1840
 1006YOPC   GL214492  13.209  13.053   6.166 -0.4513 -0.0378 -0.0464
 1006YOPC   C1A14493  12.819  12.678   6.312  0.0266 -0.0780 -0.2230
 1006YOPC   D2A14494  12.503  12.403   6.290 -0.0402  0.0055  0.2537
 1006YOPC   C3A14495  12.476  12.238   6.688  0.1243 -0.1389  0.0803
 1006YOPC   C4A14496  12.274  11.907   6.841  0.0316 -0.3228 -0.1593
 1006YOPC   C1B14497  13.115  13.035   6.538  0.2503  0.1749  0.0992
 1006YOPC   C2B14498  12.870  12.734   6.859 -0.0052 -0.0881  0.1247
 1006YOPC   D3B14499  12.978  12.802   7.299  0.1465 -0.3161 -0.0601
 1006YOPC   C4B14500  13.095  12.979   7.730  0.3494  0.4049 -0.3080
 1007YOPC   NC314501  15.911  15.864   6.018 -0.0734 -0.0366  0.1821
 1007YOPC   PO414502  16.089  16.241   6.000 -0.1187 -0.0480 -0.1769
 1007YOPC   GL114503  16.058  16.252   6.400 -0.0246 -0.2689 -0.3361
 1007YOPC   GL214504  16.364  16.349   6.484  0.1178  0.1764 -0.0145
 1007YOPC   C1A14505  15.977  16.434   6.809  0.1950  0.0064  0.1602
 1007YOPC   D2A14506  15.978  16.607   7.210  0.1460 -0.2256 -0.0642
 1007YOPC   C3A14507  16.367  16.739   7.340  0.0212  0.1837  0.2642
 1007YOPC   C4A14508  16.559  17.126   7.359 -0.1868  0.1743 -0.0852
 1007YOPC   C1B14509  16.479  16.254   6.931 -0.1352  0.2478 -0.1396
 1007YOPC   C2B14510  16.394  16.100   7.368  0.1629  0.1257 -0.0203
 1007YOPC   D3B14511  16.222  16.336   7.639  0.1748 -0.1061  0.1852
 1007YOPC   C4B14512  16.015  16.650   7.886  0.1014  0.2305  0.3273
 1008YOPC   NC314513   8.604   7.884   6.424 -0.1749  0.0074 -0.0469
 1008YOPC   PO414514   8.902   7.925   6.177 -0.1755  0.0975  0.0501
 1008YOPC   GL114515   9.252   8.011   6.566 -0.0837 -0.0756  0.2997
 1008YOPC   GL214516   9.001   7.781   6.788 -0.1141  0.2306 -0.1805
 1008YOPC   C1A14517   9.589   8.137   6.839  0.1081 -0.0879 -0.0489
 1008YOPC   D2A14518   9.613   8.320   7.209  0.1772  0.0252 -0.2783
 1008YOPC   C3A14519   9.874   8.424   7.619  0.0117  0.3098 -0.0139
 1008YOPC   C4A14520  10.101   8.324   8.049  0.0687  0.2866 -0.0904
 1008YOPC   C1B14521   9.240   7.930   7.144 -0.2172  0.1569 -0.1105
 1008YOPC   C2B14522   9.532   7.920   7.431  0.0380  0.0298 -0.2514
 1008YOPC   D3B14523   9.438   8.215   7.746  0.2077  0.0542  0.0845
 1008YOPC   C4B14524   9.576   8.325   8.096  0.0012  0.0850 -0.0560
 1009YOPC   NC314525   0.260   2.528   6.025  0.0465 -0.0168 -0.3128
 1009YOPC   PO414526   0.644   2.702   6.131  0.1063  0.0554  0.0777
 1009YOPC   GL114527   0.516   2.760   6.558 -0.0617 -0.0283  0.1234
 1009YOPC   GL214528   0.720   2.974   6.634 -0.2364 -0.0395  0.2090
 1009YOPC   C1A14529   0.384   2.637   6.987  0.2393 -0.1178  0.2582
 1009YOPC   D2A14530   0.524   2.367   7.163  0.0271  0.3004 -0.0114
 1009YOPC   C3A14531   0.486   2.391   7.565 -0.2685  0.2383  0.1070
 1009YOPC   C4A14532   0.567   2.587   7.888  0.1068 -0.0461 -0.1893
 1009YOPC   C1B14533   0.600   3.083   7.051 -0.0634 -0.0258  0.1646
 1009YOPC   C2B14534   0.707   3.087   7.451  0.2834  0.1091 -0.2442
 1009YOPC   D3B14535   0.437   3.131   7.760 -0.2222 -0.2193 -0.0572
 1009YOPC   C4B14536   0.262   2.873   8.126 -0.1218  0.1369 -0.1576
 1010YOPC   NC314537  16.099  13.163   5.804 -0.2738 -0.1033 -0.0776
 1010YOPC   PO414538  15.861  13.027   6.205  0.2818 -0.1147 -0.1640
 1010YOPC   GL114539  16.127  12.911   6.550  0.1377  0.3344  0.0114
 1010YOPC   GL214540  16.389  12.667   6.456  0.0378  0.1802  0.1485
 1010YOPC   C1A14541  16.120  13.019   7.011 -0.1079 -0.1686  0.2356
 1010YOPC   D2A14542  15.993  13.142   7.373 -0.1761  0.1580 -0.3055
 1010YOPC   C3A14543  16.096  12.934   7.649  0.1409  0.1425  0.2319
 1010YOPC   C4A14544  16.209  12.967   8.071 -0.2133  0.0541  0.3107
 1010YOPC   C1B14545  16.424  12.608   6.862  0.5262 -0.2487  0.0094
 1010YOPC   C2B14546  16.429  12.702   7.322  0.0815 -0.0514  0.2174
 1010YOPC   D3B14547  16.506  13.168   7.426 -0.2741 -0.0193 -0.3020
 1010YOPC   C4B14548  16.396  13.494   7.186  0.3581  0.1007  0.4860
 1011YOPC   NC314549   3.665  16.974   5.881 -0.2755  0.0347 -0.0589
 1011YOPC   PO414550   3.282  17.220   5.999 -0.2484 -0.1562  0.3625
 1011YOPC   GL114551   3.230  17.313   6.449  0.2960  0.1550 -0.2229
 1011YOPC   GL214552   3.034  17.509   6.504  0.0499  0.0910  0.0505
 1011YOPC   C1A14553   3.192  17.229   6.892  0.2154 -0.1093 -0.2993
 1011YOPC   D2A14554   2.968  17.140   7.298  0.0673  0.1277  0.0829
 1011YOPC   C3A14555   2.921  16.722   7.489  0.1083  0.1557 -0.2538
 1011YOPC   C4A14556   2.844  16.535   7.746 -0.1104 -0.3910 -0.3044
 1011YOPC   C1B14557   2.801  17.552   6.831  0.0171 -0.2756  0.0211
 1011YOPC   C2B14558   2.640  17.495   7.309 -0.1815  0.3251 -0.1836
 1011YOPC   D3B14559   2.655  17.870   7.497 -0.0132  0.0852 -0.0567
 1011YOPC   C4B14560   2.518  18.326   7.628  0.1801 -0.0841 -0.0893
 1012YOPC   NC314561  10.655   5.706   5.658  0.1709 -0.2529  0.0199
 1012YOPC   PO414562  10.516   6.076   5.813  0.2043  0.2542 -0.0875
 1012YOPC   GL114563  10.589   5.972   6.243 -0.0878 -0.1854  0.0861
 1012YOPC   GL214564  10.460   6.288   6.422  0.0052  0.1138  0.0007
 1012YOPC   C1A14565  10.810   5.972   6.619  0.4386 -0.2598  0.0585
 1012YOPC   D2A14566  10.838   6.014   7.026 -0.1938 -0.1767 -0.1466
 1012YOPC   C3A14567  10.515   6.214   7.369 -0.0508  0.1380 -0.0958
 1012YOPC   C4A14568  10.339   6.299   7.795 -0.0375  0.0010 -0.1961
 1012YOPC   C1B14569  10.358   6.085   6.780  0.2522  0.0758  0.0127
 1012YOPC   C2B14570  10.105   6.417   6.952  0.0336  0.0789  0.0641
 1012YOPC   D3B14571  10.183   6.617   7.357  0.2211  0.1694  0.0281
 1012YOPC   C4B14572  10.323   6.769   7.696 -0.1163  0.2759 -0.1112
 1013YOPC   NC314573   7.810   8.277   6.666 -0.1950 -0.1658  0.0582
 1013YOPC   PO414574   7.598   8.647   6.496 -0.3356  0.2006  0.0073
 1013YOPC   GL114575   7.612   8.809   6.855  0.1523  0.0391  0.0931
 1013YOPC   GL214576   7.816   9.076   6.803 -0.0933  0.0149  0.4900
 1013YOPC   C1A14577   7.544   8.608   7.276 -0.0657 -0.3221 -0.1723
 1013YOPC   D2A14578   7.539   8.655   7.621  0.1525 -0.3607 -0.0874
 1013YOPC   C3A14579   7.483   9.055   7.881  0.0860  0.2350 -0.0808
 1013YOPC   C4A14580   7.298   9.376   7.925  0.1854  0.1876 -0.0396
 1013YOPC   C1B14581   8.243   9.114   6.920  0.1161 -0.3011  0.1093
 1013YOPC   C2B14582   8.604   9.213   6.934 -0.0630  0.0049 -0.0666
 1013YOPC   D3B14583   8.732   9.384   7.362 -0.0803  0.1201 -0.1544
 1013YOPC   C4B14584   8.842   9.355   7.773  0.2167 -0.0670  0.0975
 1014YOPC   NC314585   4.505  16.387   5.072 -0.1906  0.1255 -0.1974
 1014YOPC   PO414586   4.584  16.372   5.548  0.0367  0.4909 -0.1051
 1014YOPC   GL114587   4.368  16.331   5.953  0.3754  0.1701  0.0894
 1014YOPC   GL214588   4.107  16.267   6.023 -0.2655  0.1544 -0.0862
 1014YOPC   C1A14589   4.301  16.705   6.215 -0.0182  0.2964 -0.1127
 1014YOPC   D2A14590   4.216  16.841   6.652 -0.1172  0.0420 -0.2326
 1014YOPC   C3A14591   3.897  16.505   6.846  0.1105 -0.0127  0.1825
 1014YOPC   C4A14592   3.784  16.050   6.910 -0.1032  0.0365  0.0370
 1014YOPC   C1B14593   4.098  16.136   6.426 -0.2951  0.2176  0.0345
 1014YOPC   C2B14594   4.518  16.160   6.567 -0.0967 -0.3715 -0.1158
 1014YOPC   D3B14595   4.742  16.552   6.427  0.1043  0.1893  0.2132
 1014YOPC   C4B14596   4.972  16.837   6.628 -0.1705 -0.0590 -0.0003
 1015YOPC   NC314597   5.971  10.906   5.305 -0.2391  0.0297 -0.0776
 1015YOPC   PO414598   6.005  10.838   5.808  0.0958  0.0537  0.0020
 1015YOPC   GL114599   5.973  10.729   6.335 -0.0027  0.0769 -0.0294
 1015YOPC   GL214600   6.251  10.530   6.398  0.0795 -0.1095 -0.0729
 1015YOPC   C1A14601   5.828  10.555   6.679 -0.1778  0.0343 -0.3226
 1015YOPC   D2A14602   5.725  10.175   6.935 -0.0292  0.0169  0.0803
 1015YOPC   C3A14603   5.640  10.295   7.268  0.2264 -0.1014 -0.5211
 1015YOPC   C4A14604   5.378  10.524   7.569 -0.1112  0.0032 -0.2645
 1015YOPC   C1B14605   6.609  10.419   6.535 -0.2364 -0.2618  0.0014
 1015YOPC   C2B14606   6.880  10.724   6.724 -0.4600 -0.0804  0.0034
 1015YOPC   D3B14607   6.736  11.078   6.919  0.1549  0.0456 -0.0358
 1015YOPC   C4B14608   6.465  11.375   6.863  0.0846  0.1868 -0.2378
 1016YOPC   NC314609  15.042  16.141   6.055 -0.1218 -0.2738 -0.0660
 1016YOPC   PO414610  14.658  16.401   6.189  0.1963 -0.1549  0.1047
 1016YOPC   GL114611  14.547  16.091   6.449  0.0073 -0.4013 -0.0492
 1016YOPC   GL214612  14.540  15.730   6.387 -0.2496 -0.0698  0.1194
 1016YOPC   C1A14613  14.541  15.902   6.888  0.0582 -0.0940 -0.3696
 1016YOPC   D2A14614  14.542  15.805   7.376 -0.2105 -0.0855  0.3880
 1016YOPC   C3A14615  14.852  15.751   7.767  0.1536  0.0106 -0.2128
 1016YOPC   C4A14616  15.172  15.650   8.147 -0.0894 -0.4713  0.0597
 1016YOPC   C1B14617  14.816  15.614   6.649 -0.0403  0.0549 -0.0075
 1016YOPC   C2B14618  14.731  15.410   7.066 -0.2640  0.0904 -0.0865
 1016YOPC   D3B14619  14.944  15.023   7.232  0.0545  0.0249 -0.1652
 1016YOPC   C4B14620  14.988  14.735   7.630  0.0806 -0.1407  0.1988
 1017YOPC   NC314621  11.844   0.095   5.385  0.0960 -0.1950 -0.1202
 1017YOPC   PO414622  11.597   0.207   5.680 -0.1149 -0.1003 -0.2080
 1017YOPC   GL114623  11.456   0.110   6.170 -0.0956  0.0820 -0.1249
 1017YOPC   GL214624  11.694   0.359   6.283  0.0730  0.0105  0.1496
 1017YOPC   C1A14625  11.517  -0.158   6.435 -0.2405  0.0336 -0.1709
 1017YOPC   D2A14626  11.741  -0.204   6.759  0.2332 -0.1700 -0.1994
 1017YOPC   C3A14627  11.530  -0.219   7.150  0.4370 -0.2354  0.1628
 1017YOPC   C4A14628  11.744  -0.266   7.555 -0.1891  0.0399  0.1974
 1017YOPC   C1B14629  11.876   0.359   6.652  0.0348  0.1339  0.0877
 1017YOPC   C2B14630  11.954   0.327   6.988 -0.0492  0.0819  0.0028
 1017YOPC   D3B14631  11.767   0.199   7.287 -0.0234 -0.1527 -0.2180
 1017YOPC   C4B14632  11.510   0.306   7.670  0.2627  0.2467 -0.2972
 1018YOPC   NC314633   4.385   4.924   6.461  0.0328 -0.2560  0.0039
 1018YOPC   PO414634   3.971   4.789   6.509 -0.0729 -0.0007 -0.3373
 1018YOPC   GL114635   4.210   4.732   6.945 -0.2639 -0.1477  0.0530
 1018YOPC   GL214636   4.392   4.919   6.950 -0.2957 -0.1307 -0.1314
 1018YOPC   C1A14637   4.122   4.564   7.310  0.0535 -0.0147  0.2179
 1018YOPC   D2A14638   4.193   4.693   7.780 -0.0872  0.0644 -0.4954
 1018YOPC   C3A14639   4.466   4.497   8.016 -0.1170  0.1495 -0.0977
 1018YOPC   C4A14640   4.627   4.256   8.464 -0.0666 -0.1407  0.0165
 1018YOPC   C1B14641   4.476   4.977   7.336  0.0950 -0.2422 -0.0143
 1018YOPC   C2B14642   4.427   5.244   7.723  0.0750  0.0011 -0.1659
 1018YOPC   D3B14643   4.507   5.287   8.188  0.1744  0.0705  0.0956
 1018YOPC   C4B14644   4.509   5.142   8.616  0.0414  0.2483 -0.1778
 1019YOPC   NC314645   8.999  16.474   5.476  0.1325 -0.0970  0.4844
 1019YOPC   PO414646   9.199  16.541   5.845  0.0088 -0.0659  0.0367
 1019YOPC   GL114647   9.211  16.353   6.207  0.0667  0.2540  0.1797
 1019YOPC   GL214648   8.970  16.574   6.303 -0.2299 -0.1909 -0.1787
 1019YOPC   C1A14649   9.366  16.476   6.605  0.2012 -0.1768  0.1935
 1019YOPC   D2A14650   9.114  16.469   6.905  0.1701  0.1069 -0.2519
 1019YOPC   C3A14651   9.293  16.402   7.293  0.1650 -0.0877 -0.1392
 1019YOPC   C4A14652   9.317  15.991   7.493  0.2547  0.3758 -0.1235
 1019YOPC   C1B14653   8.974  16.879   6.568 -0.0573  0.1651  0.3142
 1019YOPC   C2B14654   9.215  16.958   6.982  0.0207 -0.0501 -0.1717
 1019YOPC   D3B14655   9.096  16.862   7.309  0.1009 -0.0247 -0.1369
 1019YOPC   C4B14656   9.271  16.787   7.652  0.0971 -0.3377  0.3202
 1020YOPC   NC314657   8.905   3.481   5.497  0.5198  0.2340  0.3025
 1020YOPC   PO414658   8.548   3.209   5.708  0.2267 -0.0574  0.0540
 1020YOPC   GL114659   8.551   3.443   6.187  0.3317  0.1159  0.2282
 1020YOPC   GL214660   8.851   3.463   6.339 -0.0904 -0.2002 -0.0650
 1020YOPC   C1A14661   8.358   3.550   6.583 -0.0848 -0.2283  0.2785
 1020YOPC   D2A14662   8.437   3.622   7.071 -0.1546  0.0141  0.0915
 1020YOPC   C3A14663   8.683   3.544   7.282 -0.2160  0.2772 -0.0596
 1020YOPC   C4A14664   8.573   3.426   7.633  0.0404  0.0697 -0.1263
 1020YOPC   C1B14665   8.863   3.499   6.785 -0.1287  0.1549  0.2196
 1020YOPC   C2B14666   8.866   3.071   6.976  0.1038 -0.3149 -0.0017
 1020YOPC   D3B14667   8.962   3.087   7.391 -0.0223  0.2739  0.0070
 1020YOPC   C4B14668   8.761   2.799   7.709 -0.1809 -0.0522 -0.1723
 1021YOPC   NC314669   6.300   4.890   6.142 -0.3363  0.1419 -0.1761
 1021YOPC   PO414670   6.797   5.114   6.139  0.2601  0.0961 -0.0817
 1021YOPC   GL114671   6.652   5.017   6.559  0.3118  0.2611  0.0432
 1021YOPC   GL214672   6.381   5.193   6.526  0.1383  0.0061  0.1754
 1021YOPC   C1A14673   6.654   5.094   7.001 -0.0153 -0.0855  0.0115
 1021YOPC   D2A14674   6.567   5.020   7.533 -0.1892 -0.0400  0.0092
 1021YOPC   C3A14675   6.824   5.005   7.840 -0.0997  0.1238  0.0042
 1021YOPC   C4A14676   6.992   4.739   8.199  0.0564 -0.2086 -0.2205
 1021YOPC   C1B14677   6.493   5.535   6.834  0.0816 -0.0449 -0.0337
 1021YOPC   C2B14678   6.583   5.506   7.319  0.0074  0.1470  0.0952
 1021YOPC   D3B14679   6.578   5.479   7.740  0.0330  0.0490  0.2758
 1021YOPC   C4B14680   6.434   5.321   8.182  0.0926 -0.1449  0.1876
 1022YOPC   NC314681  10.271   8.873   5.474 -0.0114  0.0764 -0.0387
 1022YOPC   PO414682  10.457   8.852   5.860  0.0586  0.1271 -0.1028
 1022YOPC   GL114683  10.461   8.943   6.250  0.0225  0.0823 -0.2765
 1022YOPC   GL214684  10.690   8.713   6.314  0.0404  0.0160 -0.0049
 1022YOPC   C1A14685  10.717   9.078   6.663  0.3277  0.2116  0.2697
 1022YOPC   D2A14686  10.515   9.180   7.002 -0.2001  0.0146  0.2592
 1022YOPC   C3A14687  10.543   8.890   7.430  0.2761  0.1092  0.1446
 1022YOPC   C4A14688  10.361   8.619   7.709 -0.0363 -0.1197 -0.2335
 1022YOPC   C1B14689  10.923   8.412   6.590 -0.0031  0.0416  0.1035
 1022YOPC   C2B14690  10.900   8.232   6.965 -0.2564  0.0130  0.1474
 1022YOPC   D3B14691  10.541   8.216   7.157 -0.0655  0.1195  0.0023
 1022YOPC   C4B14692  10.206   8.486   7.293 -0.3407  0.0215  0.0094
 1023YOPC   NC314693  14.713   1.132   6.257  0.2846  0.2078  0.1418
 1023YOPC   PO414694  15.008   1.369   6.158  0.0048 -0.1760  0.3528
 1023YOPC   GL114695  14.995   1.597   6.476 -0.1589 -0.1766  0.1084
 1023YOPC   GL214696  14.950   1.293   6.694 -0.0247  0.0767 -0.1014
 1023YOPC   C1A14697  15.238   1.808   6.745  0.0684  0.2005 -0.0421
 1023YOPC   D2A14698  15.305   1.728   7.158  0.0246 -0.0458 -0.1347
 1023YOPC   C3A14699  15.212   1.789   7.638  0.0324 -0.1202  0.1541
 1023YOPC   C4A14700  15.240   1.463   7.778  0.1474  0.2104  0.0457
 1023YOPC   C1B14701  14.960   1.324   7.130 -0.0182  0.0961 -0.2527
 1023YOPC   C2B14702  14.929   1.123   7.524 -0.1196 -0.0627 -0.0036
 1023YOPC   D3B14703  14.815   1.274   7.933 -0.0803 -0.3284  0.0335
 1023YOPC   C4B14704  14.753   1.621   8.007 -0.2312  0.3487 -0.2475
 1024YOPC   NC314705  17.701  11.240   5.865 -0.3489 -0.0686 -0.0674
 1024YOPC   PO414706  17.591  10.814   5.967 -0.1176 -0.1092 -0.0670
 1024YOPC   GL114707  17.415  10.606   6.328  0.3953  0.0110  0.0067
 1024YOPC   GL214708  17.634  10.415   6.524  0.1639  0.3890 -0.1744
 1024YOPC   C1A14709  17.191  10.586   6.682 -0.0041 -0.0344 -0.0294
 1024YOPC   D2A14710  17.064  10.483   7.105 -0.1922 -0.2132  0.3509
 1024YOPC   C3A14711  16.757  10.333   7.339  0.1829 -0.0274  0.2233
 1024YOPC   C4A14712  16.844  10.340   7.740 -0.1557  0.2725 -0.0238
 1024YOPC   C1B14713  17.529  10.302   6.953 -0.1752  0.1906 -0.0656
 1024YOPC   C2B14714  17.413  10.248   7.446  0.3128  0.2613  0.0308
 1024YOPC   D3B14715  17.356  10.625   7.528  0.0549  0.0286  0.1091
 1024YOPC   C4B14716  17.311  10.998   7.375 -0.0573  0.1266 -0.1117
 1025YOPC   NC314717  13.904   9.047   5.433  0.1322 -0.1953 -0.0398
 1025YOPC   PO414718  13.957   8.755   5.747 -0.2938  0.2054 -0.0676
 1025YOPC   GL114719  13.750   8.607   6.120  0.0738 -0.0793  0.1459
 1025YOPC   GL214720  14.062   8.388   6.115 -0.0759  0.3155  0.0928
 1025YOPC   C1A14721  13.594   8.282   6.398 -0.1100 -0.0150 -0.0814
 1025YOPC   D2A14722  13.278   8.115   6.618 -0.2173  0.2345 -0.3411
 1025YOPC   C3A14723  13.204   8.000   7.063  0.1115  0.2003 -0.0840
 1025YOPC   C4A14724  13.467   8.127   7.440 -0.1222 -0.1749  0.0889
 1025YOPC   C1B14725  14.096   8.511   6.511  0.1136 -0.3319 -0.3323
 1025YOPC   C2B14726  14.038   8.676   6.952  0.2968  0.0300  0.2917
 1025YOPC   D3B14727  13.998   8.603   7.320  0.0218  0.3435 -0.1184
 1025YOPC   C4B14728  13.724   8.530   7.595 -0.1953 -0.1276  0.2007
 1026YOPC   NC314729  11.577   6.543   5.552 -0.3061 -0.1869 -0.1804
 1026YOPC   PO414730  11.260   6.566   5.838  0.0137 -0.1304  0.0639
 1026YOPC   GL114731  11.267   6.429   6.272 -0.1528  0.3948  0.1461
 1026YOPC   GL214732  11.047   6.474   6.397  0.1239  0.1761 -0.0301
 1026YOPC   C1A14733  11.530   6.442   6.627 -0.0454 -0.1628  0.4512
 1026YOPC   D2A14734  11.589   6.602   6.968 -0.1254 -0.0670 -0.1700
 1026YOPC   C3A14735  11.397   6.940   7.036 -0.0188 -0.0945  0.2062
 1026YOPC   C4A14736  11.317   7.355   6.819  0.2977  0.0431 -0.1747
 1026YOPC   C1B14737  11.048   6.530   6.788  0.0084 -0.3694 -0.1634
 1026YOPC   C2B14738  11.151   6.371   7.189  0.3115  0.2685  0.0759
 1026YOPC   D3B14739  11.123   6.475   7.573  0.1923  0.0887  0.1608
 1026YOPC   C4B14740  11.239   6.535   7.989 -0.0645 -0.1236  0.3516
 1027YOPC   NC314741  14.288  15.614   5.602 -0.1255 -0.0315 -0.0154
 1027YOPC   PO414742  14.068  15.859   5.887  0.1692 -0.2305 -0.0445
 1027YOPC   GL114743  14.069  15.913   6.262 -0.1687  0.1103  0.1133
 1027YOPC   GL214744  14.060  15.772   6.583 -0.1204 -0.0460 -0.0171
 1027YOPC   C1A14745  13.784  16.185   6.416 -0.3729  0.2490 -0.1902
 1027YOPC   D2A14746  13.688  16.552   6.666  0.2226 -0.1408 -0.2192
 1027YOPC   C3A14747  13.638  16.509   7.108 -0.0069  0.1789 -0.1376
 1027YOPC   C4A14748  13.764  16.466   7.469  0.0043 -0.3195  0.0355
 1027YOPC   C1B14749  14.152  15.594   7.019  0.0247 -0.0101  0.0384
 1027YOPC   C2B14750  14.339  15.318   7.326 -0.3551 -0.0340 -0.1374
 1027YOPC   D3B14751  14.643  15.347   7.617  0.0215  0.0431 -0.2462
 1027YOPC   C4B14752  15.009  15.314   7.619 -0.2002 -0.1248  0.0621
 1028YOPC   NC314753  16.636   8.259   5.706 -0.0222 -0.1802 -0.0763
 1028YOPC   PO414754  16.900   8.015   5.940 -0.1131 -0.1252  0.3068
 1028YOPC   GL114755  17.056   8.160   6.482  0.1778 -0.0552 -0.1740
 1028YOPC   GL214756  17.174   7.939   6.717  0.0636 -0.0145 -0.3590
 1028YOPC   C1A14757  17.449   8.346   6.785  0.0086  0.1534  0.2798
 1028YOPC   D2A14758  17.651   8.738   7.043  0.1628  0.3818  0.0233
 1028YOPC   C3A14759  17.596   8.539   7.408 -0.0739 -0.0258 -0.0128
 1028YOPC   C4A14760  17.647   8.464   7.843  0.2270  0.1585 -0.2669
 1028YOPC   C1B14761  17.337   8.032   7.131 -0.1431 -0.0572 -0.2764
 1028YOPC   C2B14762  17.291   8.054   7.593  0.1065 -0.3820  0.1089
 1028YOPC   D3B14763  17.467   7.868   7.801 -0.2273  0.1796 -0.1345
 1028YOPC   C4B14764  17.791   8.058   8.087  0.0991 -0.1049 -0.1337
 1029YOPC   NC314765  11.720  16.107   5.704  0.0527 -0.1892 -0.2190
 1029YOPC   PO414766  11.877  15.699   5.825  0.0826 -0.4679 -0.4630
 1029YOPC   GL114767  11.430  15.787   5.996  0.0981  0.0444 -0.2954
 1029YOPC   GL214768  11.303  15.538   6.154 -0.0434  0.0214  0.1672
 1029YOPC   C1A14769  11.357  16.079   6.304  0.3052 -0.1213  0.0378
 1029YOPC   D2A14770  11.223  16.382   6.608  0.0870  0.1222 -0.0666
 1029YOPC   C3A14771  11.266  16.473   7.041  0.1452 -0.0072  0.1719
 1029YOPC   C4A14772  11.473  16.378   7.438  0.4423 -0.1192  0.0376
 1029YOPC   C1B14773  11.498  15.631   6.524 -0.0513  0.0301 -0.0988
 1029YOPC   C2B14774  11.366  15.892   6.867  0.0903  0.0285  0.3785
 1029YOPC   D3B14775  10.877  15.753   6.985 -0.2031  0.2370 -0.1985
 1029YOPC   C4B14776  10.541  15.931   7.235 -0.1069  0.0894 -0.0114
 1030YOPC   NC314777  13.171   8.332   5.402 -0.0442 -0.2220 -0.0878
 1030YOPC   PO414778  13.025   8.230   5.843  0.0294 -0.0352 -0.0023
 1030YOPC   GL114779  12.854   7.980   6.249 -0.0365 -0.1763  0.1633
 1030YOPC   GL214780  13.008   7.671   6.333 -0.0023  0.0878 -0.1868
 1030YOPC   C1A14781  12.804   8.197   6.601 -0.1069 -0.1981  0.1204
 1030YOPC   D2A14782  12.756   8.188   7.044 -0.2193  0.0202  0.0991
 1030YOPC   C3A14783  12.890   8.045   7.460 -0.4688 -0.1670  0.1278
 1030YOPC   C4A14784  12.765   7.872   7.944  0.0682 -0.2993 -0.2835
 1030YOPC   C1B14785  13.192   7.556   6.763 -0.2397  0.2091  0.0894
 1030YOPC   C2B14786  13.159   7.503   7.184 -0.0600 -0.3456  0.1132
 1030YOPC   D3B14787  13.270   7.694   7.545  0.0900 -0.1619 -0.0187
 1030YOPC   C4B14788  13.274   7.475   8.008  0.3150  0.0144  0.4333
 1031YOPC   NC314789   9.376   4.343   5.918 -0.0195 -0.4831  0.0244
 1031YOPC   PO414790   9.118   4.113   6.243  0.2632 -0.2642  0.2906
 1031YOPC   GL114791   9.023   4.334   6.600  0.0390  0.2031 -0.0374
 1031YOPC   GL214792   8.639   4.231   6.682  0.0528  0.0018  0.1108
 1031YOPC   C1A14793   9.014   4.391   7.021  0.0788 -0.2970  0.0865
 1031YOPC   D2A14794   8.914   4.184   7.428 -0.1336  0.3664 -0.1806
 1031YOPC   C3A14795   9.054   4.270   7.767  0.1224 -0.0657  0.0578
 1031YOPC   C4A14796   9.103   4.170   8.144  0.2708 -0.0263 -0.0468
 1031YOPC   C1B14797   8.615   4.091   7.073  0.1844 -0.1392  0.1994
 1031YOPC   C2B14798   8.479   3.923   7.540  0.1407 -0.1296  0.0095
 1031YOPC   D3B14799   8.879   3.792   7.846  0.0704 -0.2352 -0.1969
 1031YOPC   C4B14800   8.871   3.681   8.293 -0.2924  0.0594 -0.0586
 1032YOPC   NC314801   3.992  13.911   5.883 -0.2853 -0.2328  0.2948
 1032YOPC   PO414802   4.196  14.213   6.168  0.0140  0.3652  0.0350
 1032YOPC   GL114803   4.160  14.293   6.620  0.0419  0.0276  0.1924
 1032YOPC   GL214804   4.367  14.284   6.694  0.3172  0.0736 -0.1977
 1032YOPC   C1A14805   4.086  13.994   6.879 -0.1362 -0.1568  0.3757
 1032YOPC   D2A14806   3.976  13.892   7.253 -0.1482 -0.2539  0.2833
 1032YOPC   C3A14807   4.025  13.632   7.555  0.2250 -0.2530  0.1575
 1032YOPC   C4A14808   4.181  13.784   7.967  0.2230  0.2555  0.0589
 1032YOPC   C1B14809   4.269  14.336   7.172 -0.0829  0.2911  0.1136
 1032YOPC   C2B14810   4.308  14.119   7.501  0.0717 -0.3163 -0.2024
 1032YOPC   D3B14811   4.421  14.296   7.911 -0.0607 -0.1308 -0.0338
 1032YOPC   C4B14812   4.372  14.197   8.351 -0.1726  0.1165  0.2260
 1033YOPC   NC314813   2.509  17.463   5.613  0.0635 -0.2083  0.0699
 1033YOPC   PO414814   2.332  17.519   6.004  0.0611  0.0352  0.1010
 1033YOPC   GL114815   2.322  17.333   6.465 -0.0470 -0.1084 -0.1344
 1033YOPC   GL214816   2.074  17.509   6.507 -0.0463  0.3417  0.0834
 1033YOPC   C1A14817   2.351  17.372   6.887 -0.1326 -0.2171 -0.0879
 1033YOPC   D2A14818   2.144  17.354   7.197  0.2049 -0.0461 -0.0900
 1033YOPC   C3A14819   2.156  17.318   7.609 -0.3700 -0.0849 -0.1220
 1033YOPC   C4A14820   2.421  17.542   7.826 -0.0067  0.0080 -0.2585
 1033YOPC   C1B14821   1.787  17.637   6.919  0.1115 -0.0331  0.3005
 1033YOPC   C2B14822   1.663  17.664   7.337  0.1043 -0.2613  0.0644
 1033YOPC   D3B14823   1.746  17.825   7.744  0.2610 -0.2328 -0.3418
 1033YOPC   C4B14824   2.053  17.741   8.095  0.3685  0.2200 -0.1405
 1034YOPC   NC314825  13.936   3.112   6.027  0.2309  0.1004  0.0771
 1034YOPC   PO414826  13.994   3.668   6.115  0.0612 -0.0310  0.0037
 1034YOPC   GL114827  13.992   3.813   6.485 -0.1255  0.1902 -0.3339
 1034YOPC   GL214828  13.874   4.116   6.450  0.0666 -0.2649 -0.0755
 1034YOPC   C1A14829  13.968   3.778   6.939  0.1413  0.1306 -0.1879
 1034YOPC   D2A14830  14.014   3.808   7.450 -0.2163  0.0274 -0.1236
 1034YOPC   C3A14831  13.925   3.493   7.719  0.5502  0.1573 -0.0346
 1034YOPC   C4A14832  13.612   3.293   7.773  0.4295 -0.0374  0.2553
 1034YOPC   C1B14833  13.724   4.333   6.758  0.0684  0.0888  0.0029
 1034YOPC   C2B14834  13.634   4.655   7.080  0.0442  0.3675  0.0484
 1034YOPC   D3B14835  13.597   4.658   7.490  0.1725 -0.2108 -0.0084
 1034YOPC   C4B14836  13.573   4.862   7.798 -0.4080  0.1118 -0.2119
 1035YOPC   NC314837  17.577   0.429   6.172  0.2278  0.1317 -0.1039
 1035YOPC   PO414838  17.650   0.029   6.225  0.0853 -0.0010  0.0207
 1035YOPC   GL114839  17.890   0.144   6.589 -0.1195  0.2713  0.0047
 1035YOPC   GL214840  18.136   0.308   6.637  0.1793  0.0775  0.1285
 1035YOPC   C1A14841  17.791  -0.000   6.944  0.0721 -0.1161 -0.0623
 1035YOPC   D2A14842  17.792   0.030   7.465 -0.1249  0.0135  0.2409
 1035YOPC   C3A14843  17.543  -0.001   7.805 -0.0025 -0.0662  0.0087
 1035YOPC   C4A14844  17.463  -0.313   8.144 -0.1254  0.2317  0.0971
 1035YOPC   C1B14845  17.959   0.471   7.025  0.1252 -0.2493 -0.1530
 1035YOPC   C2B14846  17.921   0.667   7.446 -0.0324  0.2884  0.1714
 1035YOPC   D3B14847  17.860   0.432   7.843  0.0731  0.0596 -0.0791
 1035YOPC   C4B14848  18.119   0.277   8.191  0.2123 -0.2753  0.0594
 1036YOPC   NC314849   8.856  14.316   5.620 -0.0433 -0.2465  0.4037
 1036YOPC   PO414850   8.851  13.833   5.748  0.0589  0.0194 -0.1304
 1036YOPC   GL114851   8.882  14.071   6.099  0.1684  0.0515 -0.1611
 1036YOPC   GL214852   8.652  13.985   6.272  0.2588  0.0584 -0.0495
 1036YOPC   C1A14853   9.079  14.320   6.417  0.1125  0.1129  0.1049
 1036YOPC   D2A14854   9.221  14.710   6.563 -0.0682 -0.2354  0.1943
 1036YOPC   C3A14855   9.245  14.733   6.968  0.1734  0.1623 -0.2230
 1036YOPC   C4A14856   9.025  14.973   7.334 -0.2637 -0.0394  0.0351
 1036YOPC   C1B14857   8.732  14.031   6.714  0.2144 -0.1465  0.3101
 1036YOPC   C2B14858   8.608  14.122   7.151 -0.4501  0.1273 -0.0492
 1036YOPC   D3B14859   8.560  14.390   7.545 -0.2638  0.1280 -0.0923
 1036YOPC   C4B14860   8.613  14.844   7.602 -0.2814  0.3498  0.1367
 1037YOPC   NC314861   1.220   4.224   5.854 -0.2151  0.3214 -0.3049
 1037YOPC   PO414862   1.146   3.850   6.115 -0.1261 -0.0110  0.5814
 1037YOPC   GL114863   1.032   3.813   6.450  0.0751  0.0507 -0.2044
 1037YOPC   GL214864   1.302   3.722   6.689 -0.2087  0.0770 -0.0189
 1037YOPC   C1A14865   0.875   3.996   6.880  0.0178  0.0564 -0.2218
 1037YOPC   D2A14866   0.822   4.059   7.206 -0.2934  0.1688 -0.2505
 1037YOPC   C3A14867   0.663   4.026   7.439  0.0781  0.0139  0.1400
 1037YOPC   C4A14868   0.520   4.012   7.796 -0.0125  0.3639 -0.0881
 1037YOPC   C1B14869   1.350   4.052   7.048  0.0061  0.0553 -0.1436
 1037YOPC   C2B14870   1.151   4.412   6.993 -0.1703  0.0155  0.0697
 1037YOPC   D3B14871   1.039   4.508   7.380  0.2940  0.1359 -0.0106
 1037YOPC   C4B14872   1.023   4.289   7.766 -0.2439 -0.0727 -0.0295
 1038YOPC   NC314873  12.161   1.858   5.746  0.0970 -0.0882  0.0710
 1038YOPC   PO414874  11.866   2.155   6.056  0.1805 -0.0567 -0.4265
 1038YOPC   GL114875  11.586   2.367   6.435  0.2187 -0.1921 -0.0899
 1038YOPC   GL214876  11.333   2.262   6.323 -0.1185  0.1217  0.1328
 1038YOPC   C1A14877  11.659   2.392   6.871  0.0616  0.1550 -0.1679
 1038YOPC   D2A14878  11.755   2.443   7.233 -0.2723  0.1236  0.0649
 1038YOPC   C3A14879  11.498   2.321   7.587 -0.4044  0.0871  0.0406
 1038YOPC   C4A14880  11.460   2.439   8.017  0.0655 -0.1054 -0.0934
 1038YOPC   C1B14881  11.293   2.088   6.755  0.1701 -0.1839 -0.1768
 1038YOPC   C2B14882  11.384   2.089   7.141 -0.1833 -0.0816 -0.1448
 1038YOPC   D3B14883  11.070   2.094   7.481 -0.0714 -0.0964  0.0357
 1038YOPC   C4B14884  10.917   1.969   7.835 -0.0580 -0.3438 -0.1775
 1039YOPC   NC314885  12.314   9.779   5.719 -0.1490 -0.1071 -0.2156
 1039YOPC   PO414886  12.429   9.805   6.138 -0.1795 -0.4367 -0.0537
 1039YOPC   GL114887  12.479   9.861   6.573 -0.0006 -0.0374 -0.0514
 1039YOPC   GL214888  12.754   9.812   6.633 -0.3890 -0.0384 -0.3090
 1039YOPC   C1A14889  12.397   9.887   7.113 -0.0083  0.0551  0.0538
 1039YOPC   D2A14890  12.374   9.970   7.650 -0.1267 -0.0374 -0.2463
 1039YOPC   C3A14891  11.948   9.814   7.896  0.2234 -0.2895 -0.0089
 1039YOPC   C4A14892  11.712   9.797   8.237 -0.0786 -0.2058  0.1227
 1039YOPC   C1B14893  12.889   9.994   7.035  0.2228 -0.1055 -0.1965
 1039YOPC   C2B14894  12.823  10.093   7.411  0.2493 -0.0020 -0.0184
 1039YOPC   D3B14895  13.077  10.341   7.830  0.0735  0.1880  0.0245
 1039YOPC   C4B14896  13.215  10.665   8.010 -0.3127  0.0928 -0.4280
 1040YOPC   NC314897   6.944   9.411   5.676 -0.0456  0.0375  0.2573
 1040YOPC   PO414898   7.138   9.310   6.071 -0.0909 -0.0739  0.1802
 1040YOPC   GL114899   7.074   9.447   6.472  0.1087  0.1848 -0.2006
 1040YOPC   GL214900   7.235   9.657   6.525 -0.2253  0.2381 -0.1449
 1040YOPC   C1A14901   6.935   9.640   6.886  0.0302  0.0158 -0.0724
 1040YOPC   D2A14902   7.051   9.846   7.216 -0.0042  0.2159 -0.2907
 1040YOPC   C3A14903   7.001   9.735   7.685 -0.0492  0.3222 -0.1045
 1040YOPC   C4A14904   6.855   9.709   8.145  0.1885 -0.0101  0.0810
 1040YOPC   C1B14905   7.161  10.003   6.742  0.0511 -0.1062  0.1765
 1040YOPC   C2B14906   7.116  10.399   7.070  0.0050  0.4362 -0.1472
 1040YOPC   D3B14907   7.011  10.279   7.487  0.0386  0.1693 -0.3314
 1040YOPC   C4B14908   6.727  10.132   7.872 -0.0707  0.3101 -0.0525
 1041YOPC   NC314909   4.439  17.351   5.527  0.1082  0.0727  0.0356
 1041YOPC   PO414910   3.984  17.257   5.665  0.1639  0.4326  0.2599
 1041YOPC   GL114911   4.101  17.250   6.150 -0.0568 -0.0193  0.3361
 1041YOPC   GL214912   3.711  17.272   6.258  0.1832  0.1755 -0.0536
 1041YOPC   C1A14913   4.454  17.226   6.412 -0.1895  0.0051 -0.0976
 1041YOPC   D2A14914   4.549  17.216   6.863 -0.2177  0.1043  0.0293
 1041YOPC   C3A14915   4.652  16.859   7.109  0.1560 -0.0998  0.2935
 1041YOPC   C4A14916   4.557  16.484   7.034 -0.0109 -0.0928  0.0508
 1041YOPC   C1B14917   3.830  17.266   6.682  0.1629 -0.0467 -0.0519
 1041YOPC   C2B14918   4.077  17.086   7.055  0.0617 -0.1474  0.0541
 1041YOPC   D3B14919   4.091  16.716   7.243 -0.0433  0.1637  0.1470
 1041YOPC   C4B14920   4.006  16.662   7.609 -0.1170 -0.0662  0.0139
 1042YOPC   NC314921   4.399   9.991   5.511 -0.2038 -0.0435 -0.0425
 1042YOPC   PO414922   4.798   9.688   5.618 -0.0265  0.0665  0.3873
 1042YOPC   GL114923   4.541   9.726   5.930  0.2903  0.3089 -0.0644
 1042YOPC   GL214924   4.676   9.869   6.221 -0.3262 -0.1899  0.0197
 1042YOPC   C1A14925   4.192   9.617   6.210  0.1299 -0.3689 -0.1839
 1042YOPC   D2A14926   4.081   9.494   6.559 -0.0162 -0.3812  0.0196
 1042YOPC   C3A14927   3.899   9.645   6.883 -0.2263  0.2817 -0.0842
 1042YOPC   C4A14928   3.812   9.794   7.284  0.3295  0.1678  0.0568
 1042YOPC   C1B14929   4.403   9.886   6.699  0.1192  0.1001  0.2117
 1042YOPC   C2B14930   4.281   9.894   7.143 -0.2983  0.1047  0.0703
 1042YOPC   D3B14931   4.376  10.021   7.461  0.0004  0.1653  0.0255
 1042YOPC   C4B14932   4.614  10.226   7.746  0.0048  0.1192  0.1655
 1043YOPC   NC314933   2.375  14.092   5.511 -0.2046 -0.0607 -0.3138
 1043YOPC   PO414934   2.692  13.980   5.767 -0.1229  0.2238  0.0380
 1043YOPC   GL114935   2.847  13.948   6.201 -0.2047 -0.0829  0.0484
 1043YOPC   GL214936   2.838  13.673   6.541  0.1477  0.1227  0.2817
 1043YOPC   C1A14937   2.909  14.224   6.543  0.1514 -0.2962 -0.2740
 1043YOPC   D2A14938   2.661  14.673   6.603 -0.1405  0.1395  0.2298
 1043YOPC   C3A14939   2.578  14.790   7.024  0.1796  0.0037 -0.2654
 1043YOPC   C4A14940   2.671  14.782   7.373 -0.0532 -0.3027  0.0602
 1043YOPC   C1B14941   2.863  13.706   7.002 -0.0213 -0.3674 -0.0093
 1043YOPC   C2B14942   2.841  13.955   7.279  0.2995 -0.1711 -0.2718
 1043YOPC   D3B14943   2.896  13.802   7.672  0.0981  0.2462 -0.0330
 1043YOPC   C4B14944   3.055  13.833   8.010  0.1546  0.2568 -0.3565
 1044YOPC   NC314945  14.127   9.773   5.822 -0.0650  0.0969 -0.1293
 1044YOPC   PO414946  13.984   9.357   5.981  0.2596  0.3240  0.1451
 1044YOPC   GL114947  13.679   9.526   6.177  0.1580  0.0795  0.0560
 1044YOPC   GL214948  13.421   9.878   6.268 -0.2493  0.0348 -0.1421
 1044YOPC   C1A14949  13.651   9.570   6.630 -0.1964  0.1225  0.0614
 1044YOPC   D2A14950  13.744   9.647   7.066 -0.3190 -0.0589  0.2100
 1044YOPC   C3A14951  13.690   9.522   7.433 -0.0926 -0.1273 -0.1853
 1044YOPC   C4A14952  14.038   9.548   7.673 -0.0573  0.1018 -0.0332
 1044YOPC   C1B14953  13.400  10.115   6.636  0.2675  0.0835  0.0342
 1044YOPC   C2B14954  13.234  10.382   6.931  0.0372  0.1712 -0.1369
 1044YOPC   D3B14955  13.235  10.303   7.312  0.0623 -0.2855 -0.0473
 1044YOPC   C4B14956  13.585  10.395   7.700  0.2123  0.1206  0.0539
 1045YOPC   NC314957  10.763   3.913   5.839  0.2256 -0.1091 -0.2251
 1045YOPC   PO414958  11.154   3.931   5.740 -0.1154  0.0246 -0.1443
 1045YOPC   GL114959  11.460   3.908   6.089  0.1479 -0.2227  0.3827
 1045YOPC   GL214960  11.568   4.209   6.196  0.0902 -0.0971 -0.1325
 1045YOPC   C1A14961  11.540   3.502   6.245 -0.1876  0.0586 -0.2236
 1045YOPC   D2A14962  11.406   3.192   6.660 -0.0497 -0.1017  0.0137
 1045YOPC   C3A14963  11.045   3.164   6.878 -0.0762  0.2137  0.0734
 1045YOPC   C4A14964  11.097   3.079   7.344  0.2208  0.3489 -0.4958
 1045YOPC   C1B14965  11.577   4.285   6.696 -0.2625  0.0775  0.0236
 1045YOPC   C2B14966  11.394   4.075   7.123 -0.0848  0.0022  0.2363
 1045YOPC   D3B14967  11.508   4.172   7.544  0.4044  0.0318  0.3190
 1045YOPC   C4B14968  11.877   4.291   7.563  0.3838  0.0747  0.1262
 1046YOPC   NC314969  14.333   5.503   5.438  0.0880  0.0800  0.1013
 1046YOPC   PO414970  14.085   5.822   5.685  0.0513  0.2358 -0.1450
 1046YOPC   GL114971  13.824   5.941   6.047  0.3305 -0.0807  0.0144
 1046YOPC   GL214972  13.956   6.177   6.299 -0.4044 -0.0470 -0.3059
 1046YOPC   C1A14973  13.490   6.136   6.310  0.0773  0.0279  0.0653
 1046YOPC   D2A14974  13.337   6.222   6.720 -0.1221  0.1009 -0.1251
 1046YOPC   C3A14975  13.714   6.148   6.937  0.3252 -0.0188  0.2783
 1046YOPC   C4A14976  14.132   6.226   6.833  0.0544  0.0155  0.0516
 1046YOPC   C1B14977  13.995   5.801   6.622 -0.1538  0.2161  0.1073
 1046YOPC   C2B14978  14.001   5.730   6.924 -0.1313 -0.0804 -0.0060
 1046YOPC   D3B14979  14.008   5.960   7.294 -0.1192  0.1663  0.2215
 1046YOPC   C4B14980  13.636   6.130   7.429  0.1531  0.0150  0.2206
 1047YOPC   NC314981   6.358   8.687   6.306 -0.0797  0.2601 -0.0713
 1047YOPC   PO414982   6.765   8.550   6.400 -0.0055  0.1189  0.0853
 1047YOPC   GL114983   6.687   8.585   6.802 -0.0390 -0.0666 -0.1006
 1047YOPC   GL214984   6.473   8.768   6.906 -0.3849 -0.1664 -0.0176
 1047YOPC   C1A14985   6.743   8.470   7.251  0.4419 -0.2949  0.2151
 1047YOPC   D2A14986   7.065   8.418   7.462  0.0235  0.1376 -0.0264
 1047YOPC   C3A14987   7.158   8.405   7.842 -0.0756 -0.0918 -0.4911
 1047YOPC   C4A14988   7.075   8.528   8.327 -0.0673 -0.1279 -0.0989
 1047YOPC   C1B14989   6.609   8.991   7.224  0.1523 -0.0710  0.1447
 1047YOPC   C2B14990   6.840   9.340   7.413 -0.1519  0.1858 -0.0958
 1047YOPC   D3B14991   7.274   9.398   7.370  0.1729  0.0282  0.1347
 1047YOPC   C4B14992   7.637   9.179   7.266  0.0343  0.1749  0.1494
 1048YOPC   NC314993   3.070   2.083   6.069  0.1017 -0.0085  0.1031
 1048YOPC   PO414994   3.372   2.420   6.223 -0.0542  0.1563  0.1324
 1048YOPC   GL114995   3.434   2.489   6.585  0.1076 -0.0574 -0.1835
 1048YOPC   GL214996   3.707   2.492   6.778  0.1617 -0.1524  0.0019
 1048YOPC   C1A14997   3.232   2.371   6.969 -0.2620 -0.0449 -0.0571
 1048YOPC   D2A14998   2.839   2.312   7.016 -0.0132  0.1198  0.1983
 1048YOPC   C3A14999   2.894   2.205   7.395  0.0581  0.0524  0.1795
 1048YOPC   C4A15000   3.081   2.381   7.756  0.0369 -0.2405  0.2934
 1048YOPC   C1B15001   3.867   2.410   7.182 -0.0987 -0.1274  0.0458
 1048YOPC   C2B15002   3.873   2.306   7.628 -0.1410  0.0153  0.1610
 1048YOPC   D3B15003   4.275   2.161   7.941  0.0250 -0.2747  0.0072
 1048YOPC   C4B15004   4.566   2.057   8.220  0.0387 -0.0427  0.0823
 1049YOPC   NC315005  12.346   3.286   5.883 -0.0875  0.0567  0.1557
 1049YOPC   PO415006  12.264   2.809   5.845 -0.0732 -0.0397 -0.0036
 1049YOPC   GL115007  12.426   3.017   6.282 -0.1963  0.3560 -0.1261
 1049YOPC   GL215008  12.455   2.826   6.571 -0.2231 -0.0808 -0.2403
 1049YOPC   C1A15009  12.466   3.319   6.531  0.0090 -0.0369 -0.1563
 1049YOPC   D2A15010  12.641   3.593   6.792 -0.1288 -0.0023  0.1989
 1049YOPC   C3A15011  12.522   3.712   7.174  0.0094  0.3973  0.0705
 1049YOPC   C4A15012  12.449   3.865   7.551 -0.0136 -0.0015  0.5588
 1049YOPC   C1B15013  12.504   2.712   6.946  0.0482 -0.0052 -0.0231
 1049YOPC   C2B15014  12.552   2.712   7.421  0.0752  0.1467  0.0363
 1049YOPC   D3B15015  12.374   3.033   7.719 -0.0159 -0.2615  0.1129
 1049YOPC   C4B15016  12.541   3.248   8.076  0.1295 -0.1323  0.2500
 1050YOPC   NC315017   1.526   8.366   6.337  0.1378  0.2224  0.3580
 1050YOPC   PO415018   2.012   8.476   6.406 -0.1851 -0.3132  0.0818
 1050YOPC   GL115019   1.786   8.572   6.775 -0.0629 -0.1496 -0.2925
 1050YOPC   GL215020   1.535   8.392   6.857 -0.1023  0.1041  0.1141
 1050YOPC   C1A15021   1.869   8.636   7.192  0.1687  0.2589 -0.3392
 1050YOPC   D2A15022   1.701   8.572   7.704  0.2513 -0.0932  0.0998
 1050YOPC   C3A15023   1.350   8.372   7.836  0.1959  0.0662 -0.1288
 1050YOPC   C4A15024   1.129   8.043   7.872  0.1076  0.1581  0.0093
 1050YOPC   C1B15025   1.463   8.313   7.342 -0.0228 -0.0714  0.2149
 1050YOPC   C2B15026   1.688   7.971   7.560  0.1105  0.0335 -0.0627
 1050YOPC   D3B15027   1.921   8.040   7.964 -0.0202  0.0677  0.0010
 1050YOPC   C4B15028   1.951   7.664   8.274  0.0011  0.2186 -0.3004
 1051YOPC   NC315029  15.577   5.880   5.617 -0.1433  0.1831  0.0161
 1051YOPC   PO415030  15.493   6.286   5.879  0.0457 -0.1480  0.1057
 1051YOPC   GL115031  15.361   6.315   6.282 -0.0668  0.0949  0.1948
 1051YOPC   GL215032  15.455   6.555   6.557 -0.0575 -0.3233  0.1002
 1051YOPC   C1A15033  15.144   6.069   6.582  0.2090 -0.0141 -0.1286
 1051YOPC   D2A15034  15.005   5.983   7.050  0.1488 -0.0347 -0.2103
 1051YOPC   C3A15035  15.012   6.291   7.362 -0.0840 -0.2727  0.0613
 1051YOPC   C4A15036  15.361   6.586   7.416  0.0610  0.1368  0.2604
 1051YOPC   C1B15037  15.322   6.578   6.910  0.2024  0.2031 -0.1138
 1051YOPC   C2B15038  15.056   6.794   7.040  0.0068  0.0233 -0.0290
 1051YOPC   D3B15039  14.843   6.765   7.473  0.2984  0.0588  0.5022
 1051YOPC   C4B15040  14.672   6.649   7.810  0.3939 -0.2100  0.0056
 1052YOPC   NC315041  11.335  13.337   6.114 -0.0984 -0.0689  0.2729
 1052YOPC   PO415042  10.978  13.683   6.034  0.1127  0.1267  0.2580
 1052YOPC   GL115043  10.910  13.793   6.449  0.0300  0.1721 -0.0831
 1052YOPC   GL215044  10.550  13.808   6.611  0.1105 -0.0722 -0.0948
 1052YOPC   C1A15045  11.017  13.887   6.937  0.1232 -0.3502 -0.0583
 1052YOPC   D2A15046  10.924  13.927   7.346 -0.2611 -0.3953 -0.0443
 1052YOPC   C3A15047  11.280  13.815   7.671  0.0625 -0.3863 -0.0048
 1052YOPC   C4A15048  11.564  14.075   7.961  0.1719  0.1273 -0.0283
 1052YOPC   C1B15049  10.558  13.639   7.054  0.0558  0.1344 -0.1717
 1052YOPC   C2B15050  10.489  13.784   7.461  0.0747 -0.0059  0.1440
 1052YOPC   D3B15051  10.564  14.109   7.741  0.0302 -0.0673 -0.0770
 1052YOPC   C4B15052  10.539  14.381   8.048  0.0022 -0.0707 -0.1794
 1053YOPC   NC315053  11.900   7.271   5.819  0.1749  0.0608 -0.3508
 1053YOPC   PO415054  11.554   7.537   5.893 -0.2477 -0.1859  0.2218
 1053YOPC   GL115055  11.674   7.290   6.301  0.0436 -0.0025  0.2284
 1053YOPC   GL215056  11.486   7.021   6.277  0.0577  0.0944 -0.1958
 1053YOPC   C1A15057  11.877   7.163   6.735  0.1517 -0.3042 -0.3408
 1053YOPC   D2A15058  11.768   7.336   7.035 -0.1174 -0.1041 -0.0206
 1053YOPC   C3A15059  11.771   7.088   7.324 -0.0173 -0.1521  0.2350
 1053YOPC   C4A15060  11.574   6.780   7.484  0.1137 -0.1904 -0.0150
 1053YOPC   C1B15061  11.152   6.995   6.561  0.1576  0.0802 -0.2457
 1053YOPC   C2B15062  10.924   6.996   6.978  0.0501  0.1876  0.0958
 1053YOPC   D3B15063  11.154   7.040   7.411  0.3059 -0.0631 -0.0073
 1053YOPC   C4B15064  11.264   7.079   7.886 -0.1738  0.1516 -0.0991
 1054YOPC   NC315065   5.541   4.887   5.957  0.1002 -0.1236 -0.0854
 1054YOPC   PO415066   5.877   4.537   6.187  0.4811 -0.0419 -0.2614
 1054YOPC   GL115067   5.976   4.596   6.606  0.2666  0.4540 -0.2292
 1054YOPC   GL215068   6.213   4.830   6.791  0.1031 -0.0792  0.1309
 1054YOPC   C1A15069   6.006   4.312   6.933  0.1921 -0.1554 -0.0410
 1054YOPC   D2A15070   6.201   4.216   7.328 -0.1321  0.2647  0.0180
 1054YOPC   C3A15071   5.962   4.276   7.660 -0.0370 -0.1373  0.2317
 1054YOPC   C4A15072   6.081   4.362   8.027 -0.1243 -0.1018  0.0955
 1054YOPC   C1B15073   5.968   4.838   7.236  0.0569  0.2162 -0.2088
 1054YOPC   C2B15074   5.590   4.823   7.559  0.3026  0.1002  0.1213
 1054YOPC   D3B15075   5.573   5.251   7.790 -0.0402  0.0707  0.1459
 1054YOPC   C4B15076   5.522   5.736   7.872  0.1810  0.0142  0.2039
 1055YOPC   NC315077  17.629   4.320   6.428  0.2393 -0.1133  0.0581
 1055YOPC   PO415078  17.871   4.634   6.324 -0.0191 -0.0689  0.2140
 1055YOPC   GL115079  17.692   4.718   6.672  0.0720 -0.0261  0.0085
 1055YOPC   GL215080  17.574   5.010   6.632  0.0593  0.1418 -0.1696
 1055YOPC   C1A15081  17.705   4.844   7.087 -0.0589 -0.2615  0.0401
 1055YOPC   D2A15082  17.661   5.142   7.422  0.0782 -0.3041 -0.1197
 1055YOPC   C3A15083  17.864   4.924   7.694 -0.0019  0.1564 -0.1084
 1055YOPC   C4A15084  17.989   4.846   8.052  0.2252 -0.1437  0.0522
 1055YOPC   C1B15085  17.704   5.332   6.967 -0.0453  0.1287  0.2755
 1055YOPC   C2B15086  17.756   5.681   7.163  0.1295  0.0813 -0.2441
 1055YOPC   D3B15087  17.650   5.624   7.625  0.0353  0.2915 -0.1225
 1055YOPC   C4B15088  17.745   5.701   8.112 -0.1405  0.0103 -0.1004
 1056YOPC   NC315089   4.128  11.037   5.770 -0.1297 -0.1387 -0.4412
 1056YOPC   PO415090   3.929  11.497   5.716 -0.1968  0.0645  0.2914
 1056YOPC   GL115091   4.046  11.636   6.141  0.1753  0.0312 -0.1208
 1056YOPC   GL215092   3.944  11.859   6.300 -0.2816 -0.0309 -0.0078
 1056YOPC   C1A15093   3.999  11.354   6.546 -0.2567 -0.0861  0.0855
 1056YOPC   D2A15094   4.016  11.542   7.074 -0.0900  0.4813  0.0650
 1056YOPC   C3A15095   3.866  11.369   7.463 -0.2328 -0.0674 -0.0456
 1056YOPC   C4A15096   3.867  11.235   7.841  0.1847 -0.1134 -0.1331
 1056YOPC   C1B15097   3.816  11.814   6.772  0.1071  0.0909 -0.0151
 1056YOPC   C2B15098   3.688  11.926   7.143 -0.2737 -0.0633 -0.0908
 1056YOPC   D3B15099   3.914  11.868   7.450 -0.2789 -0.2070  0.1312
 1056YOPC   C4B15100   3.840  11.776   7.926 -0.2074 -0.2195 -0.0015
 1057YOPC   NC315101  12.807   2.597   6.225 -0.2281 -0.2396  0.0926
 1057YOPC   PO415102  13.214   2.881   6.186 -0.1296 -0.0707  0.2383
 1057YOPC   GL115103  12.964   2.984   6.500 -0.1652  0.1752  0.0035
 1057YOPC   GL215104  13.037   3.332   6.479 -0.0135  0.1568 -0.1519
 1057YOPC   C1A15105  12.773   3.123   6.914  0.0231 -0.0500  0.1742
 1057YOPC   D2A15106  12.563   3.154   7.229  0.1555 -0.3141  0.2105
 1057YOPC   C3A15107  12.729   3.485   7.596 -0.1490 -0.2220 -0.1810
 1057YOPC   C4A15108  12.700   3.722   7.978  0.1275 -0.0387 -0.0851
 1057YOPC   C1B15109  13.155   3.425   6.880  0.2335  0.0177  0.2932
 1057YOPC   C2B15110  13.073   3.542   7.254  0.0930 -0.0086 -0.3043
 1057YOPC   D3B15111  13.161   3.341   7.665  0.0571  0.0359 -0.0785
 1057YOPC   C4B15112  13.085   3.375   8.065 -0.0546  0.2650  0.1143
 1058YOPC   NC315113   2.873  15.985   5.955  0.1773 -0.0428  0.1021
 1058YOPC   PO415114   2.979  16.384   5.776  0.1234  0.1675 -0.4440
 1058YOPC   GL115115   3.044  16.307   6.308 -0.0489  0.0901  0.1187
 1058YOPC   GL215116   3.031  15.993   6.441 -0.1598 -0.0185  0.0428
 1058YOPC   C1A15117   2.908  16.362   6.741  0.0659 -0.1968  0.0522
 1058YOPC   D2A15118   2.575  16.519   6.991 -0.1087 -0.3087  0.1254
 1058YOPC   C3A15119   2.481  16.436   7.414  0.1095  0.2903 -0.0632
 1058YOPC   C4A15120   2.446  16.142   7.787  0.1694  0.1898 -0.0462
 1058YOPC   C1B15121   3.208  15.977   6.851  0.0679 -0.4121 -0.0903
 1058YOPC   C2B15122   3.360  15.987   7.263  0.1193  0.1165 -0.0648
 1058YOPC   D3B15123   3.754  16.146   7.447 -0.0457 -0.1528  0.0778
 1058YOPC   C4B15124   4.186  16.220   7.167 -0.0099  0.2485  0.0010
 1059YOPC   NC315125   7.292  16.091   5.698  0.2572  0.2579  0.1261
 1059YOPC   PO415126   7.443  15.928   6.065  0.0646 -0.0397  0.1500
 1059YOPC   GL115127   7.324  15.987   6.475 -0.2176  0.1898  0.0871
 1059YOPC   GL215128   7.443  15.836   6.674  0.0907  0.2432  0.0476
 1059YOPC   C1A15129   7.205  16.181   6.913 -0.1261 -0.2001 -0.0762
 1059YOPC   D2A15130   7.270  16.142   7.299 -0.1740 -0.1280 -0.0706
 1059YOPC   C3A15131   7.301  16.464   7.680  0.0584 -0.3230  0.1550
 1059YOPC   C4A15132   7.403  16.889   7.793  0.1636  0.1199 -0.0391
 1059YOPC   C1B15133   7.338  15.698   7.051  0.1249  0.0578 -0.0553
 1059YOPC   C2B15134   7.418  15.655   7.491 -0.0675  0.2108 -0.0319
 1059YOPC   D3B15135   7.095  15.490   7.767  0.1436 -0.0037 -0.0691
 1059YOPC   C4B15136   6.849  15.647   8.049 -0.3728  0.0921 -0.0969
 1060YOPC   NC315137  17.071  10.093   5.519  0.1747  0.0134 -0.2687
 1060YOPC   PO415138  17.372   9.814   5.740 -0.1643  0.0409  0.3185
 1060YOPC   GL115139  17.687   9.728   6.077 -0.0460 -0.1138  0.0650
 1060YOPC   GL215140  17.914   9.890   6.256 -0.0970  0.0658  0.0041
 1060YOPC   C1A15141  17.539   9.439   6.352 -0.2442 -0.2732 -0.0913
 1060YOPC   D2A15142  17.207   9.228   6.487 -0.1000 -0.1223  0.1808
 1060YOPC   C3A15143  17.061   9.453   6.711 -0.0056 -0.0548  0.0705
 1060YOPC   C4A15144  16.972   9.495   7.104 -0.1854 -0.0131  0.1080
 1060YOPC   C1B15145  17.495   9.907   6.493 -0.1773  0.0668 -0.1290
 1060YOPC   C2B15146  17.475   9.695   6.932 -0.0875 -0.3064  0.3140
 1060YOPC   D3B15147  17.449   9.735   7.391 -0.0786 -0.4409  0.0413
 1060YOPC   C4B15148  17.540   9.788   7.781 -0.0472  0.1119 -0.0978
 1061YOPC   NC315149  10.984  11.091   6.088 -0.1285  0.2784 -0.0499
 1061YOPC   PO415150  11.069  11.528   6.116  0.3020  0.0927  0.3040
 1061YOPC   GL115151  10.885  11.477   6.467  0.0602 -0.0365 -0.0179
 1061YOPC   GL215152  10.996  11.844   6.566  0.0206  0.2132 -0.1350
 1061YOPC   C1A15153  10.971  11.284   6.910  0.0303  0.0007 -0.0890
 1061YOPC   D2A15154  10.809  11.267   7.233 -0.1550 -0.0745  0.4387
 1061YOPC   C3A15155  10.934  11.227   7.591  0.0207 -0.1519  0.1522
 1061YOPC   C4A15156  10.920  11.107   8.057  0.0705 -0.0822 -0.0359
 1061YOPC   C1B15157  10.975  11.742   7.026  0.0556 -0.2434  0.2263
 1061YOPC   C2B15158  10.992  11.790   7.432 -0.0397 -0.1987 -0.0487
 1061YOPC   D3B15159  11.054  11.946   7.880  0.1241 -0.4667  0.2987
 1061YOPC   C4B15160  11.232  11.884   8.279 -0.1708  0.2416  0.1879
 1062YOPC   NC315161  14.570  12.885   6.043 -0.2929 -0.0852  0.0135
 1062YOPC   PO415162  14.284  12.852   5.722 -0.0914 -0.0116  0.2595
 1062YOPC   GL115163  14.055  13.043   6.074 -0.0107 -0.0693  0.4087
 1062YOPC   GL215164  13.747  13.088   6.068  0.2182 -0.2617 -0.1226
 1062YOPC   C1A15165  14.116  13.125   6.476  0.0844 -0.1277 -0.0421
 1062YOPC   D2A15166  13.875  13.250   6.792 -0.1473  0.0757  0.1505
 1062YOPC   C3A15167  14.090  13.353   7.164 -0.0452  0.1594  0.0935
 1062YOPC   C4A15168  13.984  13.296   7.655 -0.1191 -0.1414  0.4075
 1062YOPC   C1B15169  13.632  12.954   6.484 -0.2152  0.1114  0.4110
 1062YOPC   C2B15170  13.366  13.042   6.946 -0.3959 -0.0912  0.1499
 1062YOPC   D3B15171  13.503  13.108   7.382 -0.2148  0.2038  0.0330
 1062YOPC   C4B15172  13.576  13.124   7.857  0.0734  0.1750  0.1600
 1063YOPC   NC315173  13.365  13.728   5.750  0.0814 -0.0148 -0.3139
 1063YOPC   PO415174  13.798  13.615   5.906 -0.0565 -0.0467  0.1013
 1063YOPC   GL115175  13.925  13.521   6.251  0.2086 -0.2674 -0.0492
 1063YOPC   GL215176  14.172  13.812   6.281 -0.1180 -0.1346  0.1483
 1063YOPC   C1A15177  14.237  13.585   6.704 -0.0068 -0.0048  0.1075
 1063YOPC   D2A15178  14.297  13.869   7.032  0.0291 -0.0933  0.2366
 1063YOPC   C3A15179  14.238  13.766   7.453  0.2095  0.2815 -0.1689
 1063YOPC   C4A15180  14.209  13.663   7.880  0.2703 -0.0744 -0.1139
 1063YOPC   C1B15181  14.215  14.072   6.607 -0.1108 -0.2050 -0.1111
 1063YOPC   C2B15182  14.441  14.339   6.852  0.0962 -0.3139  0.2251
 1063YOPC   D3B15183  14.724  14.078   6.995  0.1409 -0.2169  0.0521
 1063YOPC   C4B15184  14.999  13.878   7.146  0.3645 -0.0848  0.2336
 1064YOPC   NC315185   2.891   0.454   5.991 -0.1161 -0.0701  0.1268
 1064YOPC   PO415186   3.090   0.811   5.787 -0.1995 -0.1214 -0.2405
 1064YOPC   GL115187   3.099   0.873   6.295  0.0780  0.0320  0.0744
 1064YOPC   GL215188   2.762   0.858   6.283 -0.1029 -0.0081  0.0972
 1064YOPC   C1A15189   3.345   0.726   6.597  0.0021 -0.0444  0.0282
 1064YOPC   D2A15190   3.134   0.442   6.882 -0.0188  0.1499 -0.0129
 1064YOPC   C3A15191   3.073   0.234   7.283  0.1023  0.0827  0.2161
 1064YOPC   C4A15192   3.068   0.053   7.646  0.0488  0.0487  0.1821
 1064YOPC   C1B15193   2.453   0.810   6.632 -0.1230  0.0464 -0.1312
 1064YOPC   C2B15194   2.698   0.623   6.974  0.0945 -0.0515  0.0770
 1064YOPC   D3B15195   2.670   0.720   7.364  0.0881  0.1158  0.2557
 1064YOPC   C4B15196   2.952   0.578   7.586 -0.0326 -0.2085  0.0021
 1065YOPC   NC315197  11.084  16.811   5.678 -0.1195 -0.0334  0.0403
 1065YOPC   PO415198  11.393  16.824   5.982 -0.2195 -0.0395 -0.0067
 1065YOPC   GL115199  11.559  17.081   6.161 -0.1137 -0.0531 -0.2389
 1065YOPC   GL215200  11.835  16.925   6.256  0.2148  0.2522 -0.0336
 1065YOPC   C1A15201  11.303  17.329   6.435 -0.1535  0.0166  0.1289
 1065YOPC   D2A15202  11.206  17.669   6.760  0.1067 -0.0079  0.4364
 1065YOPC   C3A15203  11.001  17.687   7.116  0.2291 -0.3808 -0.3103
 1065YOPC   C4A15204  10.913  17.566   7.464 -0.0919  0.1683 -0.1655
 1065YOPC   C1B15205  11.892  16.882   6.661  0.0127  0.1600  0.0897
 1065YOPC   C2B15206  12.220  17.152   6.831 -0.0791 -0.1114  0.1054
 1065YOPC   D3B15207  12.641  17.067   6.836  0.6337  0.0316 -0.1711
 1065YOPC   C4B15208  12.917  17.003   6.680 -0.1350 -0.3131 -0.3242
 1066YOPC   NC315209   4.766  15.482   5.758  0.0986  0.0291 -0.0720
 1066YOPC   PO415210   5.008  15.633   5.638 -0.0315 -0.1816  0.3531
 1066YOPC   GL115211   5.385  15.705   5.879 -0.0455  0.0768  0.2582
 1066YOPC   GL215212   5.170  15.574   6.232  0.1374  0.0864  0.3500
 1066YOPC   C1A15213   5.834  15.628   6.143 -0.1079  0.1676 -0.1916
 1066YOPC   D2A15214   6.172  15.428   6.242 -0.3290  0.0619 -0.2257
 1066YOPC   C3A15215   6.184  15.404   6.648 -0.0431  0.2717 -0.2948
 1066YOPC   C4A15216   6.093  15.500   7.195 -0.0322 -0.1437 -0.2257
 1066YOPC   C1B15217   5.444  15.805   6.417 -0.0551 -0.0198 -0.2127
 1066YOPC   C2B15218   5.432  16.081   6.833 -0.1955  0.2548 -0.2334
 1066YOPC   D3B15219   5.254  15.968   7.081  0.2797 -0.2383 -0.3238
 1066YOPC   C4B15220   5.260  15.863   7.510 -0.1230 -0.1086  0.1241
 1067YOPC   NC315221   5.325   8.651   6.234  0.0940 -0.1807 -0.1258
 1067YOPC   PO415222   4.998   8.417   6.435 -0.3633 -0.1054  0.3319
 1067YOPC   GL115223   4.912   8.621   6.760 -0.0616  0.0697  0.0807
 1067YOPC   GL215224   4.816   8.383   7.038  0.0998  0.0935 -0.0542
 1067YOPC   C1A15225   5.066   8.886   7.184  0.1248 -0.0820 -0.0679
 1067YOPC   D2A15226   4.947   9.265   7.401 -0.0491 -0.1273  0.1837
 1067YOPC   C3A15227   5.142   9.417   7.664  0.1262  0.1357 -0.0311
 1067YOPC   C4A15228   5.197   9.405   8.116 -0.2973 -0.0014  0.0803
 1067YOPC   C1B15229   4.915   8.474   7.512 -0.2574  0.1674  0.2333
 1067YOPC   C2B15230   4.728   8.647   7.939 -0.0014  0.0416 -0.2242
 1067YOPC   D3B15231   4.803   9.033   8.154  0.0676  0.0849  0.1481
 1067YOPC   C4B15232   4.788   9.317   8.456 -0.0285 -0.1268  0.0309
 1068YOPC   NC315233  13.876  11.776   5.806  0.0567  0.0771  0.1140
 1068YOPC   PO415234  13.898  12.187   5.538 -0.2126 -0.1331 -0.2329
 1068YOPC   GL115235  13.851  12.249   5.992 -0.1696  0.3226 -0.0254
 1068YOPC   GL215236  14.194  12.405   5.944  0.2865 -0.2587 -0.2090
 1068YOPC   C1A15237  13.908  12.609   6.302  0.0123 -0.0005 -0.0950
 1068YOPC   D2A15238  14.042  12.682   6.723 -0.1124  0.1781  0.1373
 1068YOPC   C3A15239  13.828  12.823   7.079  0.2340  0.1057  0.0182
 1068YOPC   C4A15240  14.050  12.899   7.387 -0.0452  0.1182 -0.0452
 1068YOPC   C1B15241  14.369  12.364   6.390 -0.0000 -0.3366 -0.0427
 1068YOPC   C2B15242  14.381  12.170   6.776 -0.1923  0.1720 -0.0041
 1068YOPC   D3B15243  14.317  11.875   6.945  0.0832 -0.5264  0.0024
 1068YOPC   C4B15244  14.270  11.940   7.264  0.0259  0.3447 -0.0353
 1069YOPC   NC315245   4.573   8.620   6.291  0.0544  0.1969  0.3090
 1069YOPC   PO415246   4.846   8.914   6.206 -0.0942 -0.1245 -0.2837
 1069YOPC   GL115247   4.899   9.051   6.559 -0.2136 -0.0570 -0.1757
 1069YOPC   GL215248   5.058   9.300   6.518 -0.0298 -0.2020  0.0380
 1069YOPC   C1A15249   4.747   9.111   6.895 -0.0915  0.3848  0.0491
 1069YOPC   D2A15250   4.667   9.548   7.077 -0.0866  0.1844  0.3815
 1069YOPC   C3A15251   4.765   9.735   7.473 -0.1363 -0.0895 -0.1591
 1069YOPC   C4A15252   4.793   9.759   7.891 -0.0708  0.2473 -0.1392
 1069YOPC   C1B15253   5.185   9.361   6.957 -0.3333  0.1006  0.0079
 1069YOPC   C2B15254   5.525   9.291   7.366 -0.1515 -0.1228  0.0866
 1069YOPC   D3B15255   5.597   9.519   7.708 -0.3827  0.0937 -0.4688
 1069YOPC   C4B15256   5.670   9.434   8.220 -0.0222  0.0305 -0.0932
 1070YOPC   NC315257  10.996  17.926   5.824 -0.1874 -0.0491 -0.0070
 1070YOPC   PO415258  10.623  17.566   5.905 -0.1885 -0.0432  0.0251
 1070YOPC   GL115259  10.576  17.342   6.209  0.1795  0.2361 -0.0627
 1070YOPC   GL215260  10.509  17.084   6.363  0.0638 -0.0840  0.0941
 1070YOPC   C1A15261  10.804  17.390   6.567 -0.0994 -0.0034  0.1101
 1070YOPC   D2A15262  11.028  17.219   6.930 -0.0814 -0.2005  0.0351
 1070YOPC   C3A15263  11.312  17.346   7.316 -0.1745 -0.0928 -0.0246
 1070YOPC   C4A15264  11.511  17.319   7.842 -0.0972 -0.1595  0.3014
 1070YOPC   C1B15265  10.592  16.933   6.618  0.0097  0.1105 -0.2329
 1070YOPC   C2B15266  10.759  16.748   6.968  0.2496  0.2306 -0.1003
 1070YOPC   D3B15267  10.871  16.981   7.350  0.0976 -0.0181 -0.3285
 1070YOPC   C4B15268  11.015  17.142   7.749 -0.0875  0.1622 -0.1657
 1071YOPC   NC315269   5.238  12.515   5.712 -0.0916  0.0431  0.1822
 1071YOPC   PO415270   5.484  12.240   5.835 -0.1865  0.3474 -0.0216
 1071YOPC   GL115271   5.585  12.347   6.264  0.1451  0.0750 -0.1448
 1071YOPC   GL215272   5.699  12.607   6.458  0.1129 -0.1984  0.0143
 1071YOPC   C1A15273   5.553  12.227   6.661  0.2235 -0.0310  0.1305
 1071YOPC   D2A15274   5.634  12.123   6.973  0.0339 -0.1008  0.0936
 1071YOPC   C3A15275   5.468  11.891   7.194  0.0234 -0.1202 -0.0355
 1071YOPC   C4A15276   5.427  11.992   7.591 -0.1220 -0.1186 -0.1129
 1071YOPC   C1B15277   5.668  12.621   6.931  0.1395  0.1380  0.0778
 1071YOPC   C2B15278   5.568  12.536   7.277  0.0979  0.3439  0.1224
 1071YOPC   D3B15279   5.827  12.267   7.421  0.0941 -0.2588  0.1529
 1071YOPC   C4B15280   5.968  12.043   7.720  0.0671  0.0595 -0.0525
 1072YOPC   NC315281   4.668   6.646   6.434  0.0324  0.0494 -0.2451
 1072YOPC   PO415282   4.287   6.874   6.656  0.0051 -0.1183 -0.2026
 1072YOPC   GL115283   4.251   7.067   7.012 -0.1590  0.1945  0.2120
 1072YOPC   GL215284   4.444   6.969   7.172  0.2469 -0.1755 -0.1042
 1072YOPC   C1A15285   4.129   7.104   7.484 -0.1969 -0.1969  0.0439
 1072YOPC   D2A15286   4.125   7.188   7.878 -0.0208  0.2412  0.1605
 1072YOPC   C3A15287   4.068   6.978   8.121  0.0372  0.2047 -0.0832
 1072YOPC   C4A15288   3.671   6.625   8.193 -0.2887  0.1245  0.3034
 1072YOPC   C1B15289   4.579   6.866   7.594 -0.0497  0.0986 -0.0297
 1072YOPC   C2B15290   4.797   6.949   8.041 -0.2058  0.0756  0.2992
 1072YOPC   D3B15291   4.477   7.310   8.284 -0.2089 -0.3201 -0.0694
 1072YOPC   C4B15292   4.117   7.509   8.276 -0.0762  0.3717 -0.0365
 1073YOPC   NC315293   4.332   2.226   5.828  0.0015 -0.1865 -0.4108
 1073YOPC   PO415294   4.501   1.822   5.929  0.1623  0.1020 -0.2284
 1073YOPC   GL115295   4.233   1.518   6.219  0.2586 -0.1154 -0.0097
 1073YOPC   GL215296   3.891   1.404   6.213  0.0681  0.1181 -0.1369
 1073YOPC   C1A15297   4.284   1.593   6.618  0.2172  0.2057 -0.0961
 1073YOPC   D2A15298   4.333   1.660   7.074  0.1999  0.0877 -0.0316
 1073YOPC   C3A15299   4.052   1.484   7.334  0.0502 -0.0967 -0.0498
 1073YOPC   C4A15300   4.194   1.342   7.710  0.3117 -0.0718  0.2806
 1073YOPC   C1B15301   3.690   1.509   6.577 -0.0438  0.2810 -0.0322
 1073YOPC   C2B15302   3.881   1.543   6.875  0.1183 -0.1461  0.0641
 1073YOPC   D3B15303   3.560   1.515   7.351 -0.2947 -0.0333 -0.1264
 1073YOPC   C4B15304   3.231   1.429   7.661 -0.1475 -0.1086 -0.2388
 1074YOPC   NC315305   9.111   2.363   5.921 -0.0658  0.1014  0.0064
 1074YOPC   PO415306   9.459   2.273   6.160 -0.1896  0.0680 -0.3787
 1074YOPC   GL115307   9.681   2.232   6.466  0.2844  0.0164  0.3023
 1074YOPC   GL215308   9.902   2.212   6.331 -0.0127  0.1181 -0.2587
 1074YOPC   C1A15309   9.580   2.281   6.810 -0.0492 -0.1131  0.0190
 1074YOPC   D2A15310   9.501   2.258   7.290  0.0857 -0.0063  0.1613
 1074YOPC   C3A15311   9.443   1.886   7.594 -0.2976 -0.0347  0.1790
 1074YOPC   C4A15312   9.393   2.014   8.084  0.2563  0.1073  0.1565
 1074YOPC   C1B15313   9.886   1.890   6.686  0.1662  0.0981 -0.1974
 1074YOPC   C2B15314   9.715   1.853   7.073 -0.0322 -0.1080 -0.0749
 1074YOPC   D3B15315   9.887   1.850   7.456  0.2248 -0.1208 -0.3731
 1074YOPC   C4B15316   9.914   1.815   7.911 -0.0190  0.1824  0.3025
 1075YOPC   NC315317  12.589  16.351   5.644  0.2753  0.0326  0.2533
 1075YOPC   PO415318  12.687  15.960   5.873 -0.0389 -0.1479 -0.0903
 1075YOPC   GL115319  12.698  15.902   6.262  0.0927 -0.1747 -0.0752
 1075YOPC   GL215320  12.450  15.989   6.383  0.3147 -0.3712 -0.1456
 1075YOPC   C1A15321  12.628  15.603   6.692 -0.1023 -0.0532  0.1991
 1075YOPC   D2A15322  12.501  15.211   6.945  0.1813 -0.2378  0.1226
 1075YOPC   C3A15323  12.624  15.198   7.379  0.0801  0.0855 -0.2163
 1075YOPC   C4A15324  12.818  15.335   7.703  0.5376 -0.0159 -0.0115
 1075YOPC   C1B15325  12.524  16.108   6.792 -0.0855  0.0376 -0.0223
 1075YOPC   C2B15326  12.320  16.145   7.178  0.0969 -0.1563  0.2857
 1075YOPC   D3B15327  12.493  16.230   7.590 -0.0339  0.1959 -0.2362
 1075YOPC   C4B15328  12.484  16.433   8.032 -0.0985  0.0440 -0.0226
 1076YOPC   NC315329   2.306   4.313   5.929 -0.1097  0.1157 -0.0486
 1076YOPC   PO415330   2.492   4.249   6.297 -0.3299  0.0407 -0.0700
 1076YOPC   GL115331   2.559   4.135   6.610 -0.1716  0.2943 -0.2985
 1076YOPC   GL215332   2.294   3.844   6.763 -0.2418  0.1202 -0.1177
 1076YOPC   C1A15333   2.712   4.218   7.050 -0.1459  0.0359  0.2303
 1076YOPC   D2A15334   2.810   4.121   7.509 -0.1209 -0.0485 -0.0491
 1076YOPC   C3A15335   2.538   4.225   7.864  0.1212 -0.2521  0.1491
 1076YOPC   C4A15336   2.355   4.590   8.076 -0.2792  0.4162 -0.2846
 1076YOPC   C1B15337   2.390   3.803   7.166  0.0138  0.2870 -0.1338
 1076YOPC   C2B15338   2.398   3.897   7.515 -0.0032 -0.1319 -0.0375
 1076YOPC   D3B15339   2.250   3.670   7.860 -0.1960  0.0119  0.1773
 1076YOPC   C4B15340   2.244   3.399   8.232  0.1357 -0.0166 -0.0016
 1077YOPC   NC315341  11.840  17.411   5.827 -0.2174  0.2056 -0.1191
 1077YOPC   PO415342  12.244  17.203   5.944  0.0118 -0.1214  0.1526
 1077YOPC   GL115343  12.193  17.418   6.331 -0.5175  0.1881 -0.0825
 1077YOPC   GL215344  12.475  17.507   6.327  0.1742 -0.1966  0.1126
 1077YOPC   C1A15345  11.819  17.340   6.516  0.2207 -0.0842  0.3397
 1077YOPC   D2A15346  11.551  17.302   6.887 -0.1568 -0.0054 -0.0100
 1077YOPC   C3A15347  11.786  17.316   7.229 -0.1090 -0.0427 -0.0168
 1077YOPC   C4A15348  11.987  17.309   7.638 -0.2337  0.4683 -0.0792
 1077YOPC   C1B15349  12.633  17.535   6.737 -0.0747  0.1125 -0.0870
 1077YOPC   C2B15350  12.665  17.459   7.152 -0.1862  0.2797 -0.0435
 1077YOPC   D3B15351  12.457  17.272   7.414 -0.0971  0.2098 -0.0985
 1077YOPC   C4B15352  12.112  16.988   7.269 -0.0090  0.2500 -0.3598
 1078YOPC   NC315353   2.771  11.564   5.762 -0.0605 -0.0241 -0.0233
 1078YOPC   PO415354   3.004  11.151   6.042 -0.0779 -0.0626 -0.2673
 1078YOPC   GL115355   3.354  11.105   6.337  0.3143  0.0592 -0.2523
 1078YOPC   GL215356   3.099  11.004   6.655  0.1623  0.0696  0.0431
 1078YOPC   C1A15357   3.681  10.974   6.593  0.1679  0.0294  0.0180
 1078YOPC   D2A15358   4.004  10.588   6.719 -0.0341 -0.1060 -0.2327
 1078YOPC   C3A15359   4.009  10.305   7.083 -0.0165  0.0237 -0.0429
 1078YOPC   C4A15360   3.959  10.291   7.503 -0.0955  0.1794  0.0068
 1078YOPC   C1B15361   3.029  10.986   7.038  0.1431  0.3464 -0.1047
 1078YOPC   C2B15362   3.020  11.274   7.329 -0.1942  0.1382  0.1717
 1078YOPC   D3B15363   3.220  11.201   7.708 -0.0128 -0.3096  0.1966
 1078YOPC   C4B15364   2.889  11.244   8.078  0.3012  0.0412  0.1286
 1079YOPC   NC315365  13.602   4.003   6.004  0.0357 -0.3604  0.1275
 1079YOPC   PO415366  13.323   3.719   6.183 -0.0837  0.1468 -0.0648
 1079YOPC   GL115367  13.358   3.961   6.535  0.2292 -0.1040 -0.0920
 1079YOPC   GL215368  13.373   4.260   6.445 -0.1134 -0.0884 -0.0367
 1079YOPC   C1A15369  13.432   3.878   6.998 -0.2584  0.0129 -0.1394
 1079YOPC   D2A15370  13.542   3.607   7.354  0.0043  0.0643 -0.0291
 1079YOPC   C3A15371  13.378   3.729   7.707  0.2889 -0.1077 -0.0272
 1079YOPC   C4A15372  13.319   4.022   7.873  0.4225 -0.0548  0.0672
 1079YOPC   C1B15373  13.150   4.393   6.773 -0.1673 -0.1877 -0.0552
 1079YOPC   C2B15374  13.163   4.410   7.260 -0.1001 -0.0752  0.1209
 1079YOPC   D3B15375  13.569   4.132   7.437 -0.1442 -0.1072  0.2572
 1079YOPC   C4B15376  13.780   4.018   7.864  0.1801 -0.0936 -0.2279
 1080YOPC   NC315377  16.294  11.705   6.113 -0.0728  0.1389 -0.0203
 1080YOPC   PO415378  15.904  11.980   5.965 -0.1983 -0.1702 -0.1235
 1080YOPC   GL115379  15.988  12.120   6.403  0.3235  0.1102 -0.1168
 1080YOPC   GL215380  16.298  12.051   6.561  0.0628  0.3437  0.0687
 1080YOPC   C1A15381  15.961  12.426   6.807 -0.4201  0.0529  0.2155
 1080YOPC   D2A15382  15.954  12.601   7.257  0.0126 -0.1134  0.0738
 1080YOPC   C3A15383  16.037  12.422   7.732  0.0574 -0.3340 -0.1016
 1080YOPC   C4A15384  16.141  12.450   8.124 -0.1209 -0.2863 -0.1236
 1080YOPC   C1B15385  16.310  12.098   6.960 -0.2218  0.0140 -0.1129
 1080YOPC   C2B15386  16.304  12.162   7.350 -0.0097 -0.0835  0.1308
 1080YOPC   D3B15387  16.164  11.843   7.685  0.1105 -0.0498  0.2360
 1080YOPC   C4B15388  16.208  11.467   7.964  0.2295 -0.1469 -0.0711
 1081YOPC   NC315389  11.512  12.169   6.033  0.0901 -0.0670  0.0985
 1081YOPC   PO415390  11.450  11.985   6.366  0.1156  0.0136  0.2248
 1081YOPC   GL115391  11.487  11.983   6.744  0.1748 -0.0370 -0.1586
 1081YOPC   GL215392  11.806  11.809   6.848 -0.0008  0.0493  0.0710
 1081YOPC   C1A15393  11.426  11.970   7.198  0.1825 -0.0163  0.3313
 1081YOPC   D2A15394  11.466  11.966   7.620 -0.0174  0.2107  0.2354
 1081YOPC   C3A15395  11.453  12.240   7.988 -0.2317 -0.3296 -0.1479
 1081YOPC   C4A15396  11.396  12.471   8.291  0.1994  0.0101 -0.1857
 1081YOPC   C1B15397  11.933  11.863   7.174  0.3589 -0.0785  0.1215
 1081YOPC   C2B15398  11.968  11.729   7.623 -0.1487 -0.2333  0.0043
 1081YOPC   D3B15399  11.721  11.796   8.022 -0.2555 -0.2124 -0.2523
 1081YOPC   C4B15400  11.872  11.754   8.391  0.2519  0.2652 -0.2383
 1082YOPC   NC315401  13.217  16.641   6.263  0.1071 -0.0172  0.0035
 1082YOPC   PO415402  13.006  16.407   5.861 -0.2492  0.0005  0.2950
 1082YOPC   GL115403  12.668  16.411   6.139 -0.0629 -0.1974  0.0801
 1082YOPC   GL215404  12.838  16.329   6.473  0.0696 -0.3184 -0.5364
 1082YOPC   C1A15405  12.208  16.460   6.432  0.2802 -0.0724  0.1069
 1082YOPC   D2A15406  12.266  16.573   6.881 -0.3902 -0.4512 -0.2976
 1082YOPC   C3A15407  11.959  16.454   7.289 -0.1059 -0.0475  0.0547
 1082YOPC   C4A15408  12.085  16.424   7.719 -0.0236 -0.1874  0.1552
 1082YOPC   C1B15409  12.774  16.553   6.830  0.0707  0.3785  0.1304
 1082YOPC   C2B15410  12.717  16.509   7.213 -0.1056 -0.0066  0.1368
 1082YOPC   D3B15411  12.523  16.726   7.551 -0.0063 -0.1880 -0.3740
 1082YOPC   C4B15412  12.345  16.855   7.839  0.1630 -0.1018  0.2349
 1083YOPC   NC315413  12.048   5.052   6.137  0.1416  0.4143 -0.1583
 1083YOPC   PO415414  11.743   4.700   5.969  0.1255 -0.0490  0.2553
 1083YOPC   GL115415  11.946   4.524   6.317 -0.3053  0.3302 -0.0770
 1083YOPC   GL215416  12.246   4.763   6.485  0.0210 -0.1578  0.0102
 1083YOPC   C1A15417  12.139   4.302   6.696  0.3947  0.1295 -0.0576
 1083YOPC   D2A15418  12.440   4.203   7.123  0.2025  0.0199  0.2033
 1083YOPC   C3A15419  12.417   4.352   7.530 -0.2679  0.2101 -0.3962
 1083YOPC   C4A15420  12.243   4.127   7.877 -0.0232 -0.1974 -0.2003
 1083YOPC   C1B15421  12.241   4.723   6.900 -0.1053  0.0657 -0.0451
 1083YOPC   C2B15422  12.262   4.868   7.315 -0.2485  0.2002 -0.2545
 1083YOPC   D3B15423  11.945   4.788   7.526  0.0605 -0.0898 -0.0299
 1083YOPC   C4B15424  11.538   4.661   7.778 -0.2434  0.0739  0.3927
 1084YOPC   NC315425   3.893   3.150   6.080 -0.0693  0.0041  0.1343
 1084YOPC   PO415426   3.480   3.219   5.943 -0.0618  0.1390 -0.4470
 1084YOPC   GL115427   3.347   3.350   6.372 -0.2892  0.1368 -0.0085
 1084YOPC   GL215428   3.134   2.999   6.583 -0.1373 -0.1796 -0.0119
 1084YOPC   C1A15429   3.295   3.442   6.736  0.1900 -0.1289 -0.1097
 1084YOPC   D2A15430   3.268   3.385   7.183 -0.0263  0.0192  0.2549
 1084YOPC   C3A15431   3.641   3.471   7.382 -0.2496 -0.0352 -0.1340
 1084YOPC   C4A15432   3.972   3.719   7.327 -0.2115 -0.0508 -0.1704
 1084YOPC   C1B15433   3.042   2.932   6.948 -0.1843  0.1043 -0.2288
 1084YOPC   C2B15434   3.040   2.717   7.336 -0.1384 -0.1328  0.0472
 1084YOPC   D3B15435   2.840   2.990   7.556  0.0810 -0.1393  0.0018
 1084YOPC   C4B15436   2.881   2.844   7.906  0.1382  0.2082 -0.3299
 1085YOPC   NC315437  17.761   3.301   5.966 -0.2040 -0.0048 -0.2575
 1085YOPC   PO415438  18.124   3.528   6.198 -0.4108 -0.1662  0.1380
 1085YOPC   GL115439  18.183   3.506   6.527  0.2141  0.0763 -0.0717
 1085YOPC   GL215440  18.237   3.126   6.666 -0.2521  0.0982 -0.1178
 1085YOPC   C1A15441  18.020   3.582   6.924  0.1133  0.1582  0.1370
 1085YOPC   D2A15442  17.805   3.511   7.280  0.1564 -0.1382 -0.2196
 1085YOPC   C3A15443  18.009   3.212   7.552  0.0134  0.3351 -0.1152
 1085YOPC   C4A15444  17.875   3.169   7.989  0.1168  0.1594  0.1218
 1085YOPC   C1B15445  18.128   3.118   7.068 -0.1070  0.1058 -0.0895
 1085YOPC   C2B15446  18.299   2.829   7.414  0.0074 -0.1369  0.0660
 1085YOPC   D3B15447  18.021   2.758   7.695  0.0476 -0.3198 -0.1402
 1085YOPC   C4B15448  17.590   2.661   7.714 -0.1907 -0.0611  0.0062
 1086YOPC   NC315449  15.451  11.874   5.959  0.0020 -0.0233 -0.0501
 1086YOPC   PO415450  15.489  12.260   6.282  0.0828 -0.0848 -0.0456
 1086YOPC   GL115451  15.388  12.196   6.674 -0.1951  0.0509  0.0821
 1086YOPC   GL215452  15.273  11.938   6.739  0.1640  0.2025  0.0051
 1086YOPC   C1A15453  15.527  12.331   7.160 -0.3480  0.2740  0.0329
 1086YOPC   D2A15454  15.452  12.466   7.607  0.2839 -0.2421  0.2689
 1086YOPC   C3A15455  15.687  12.783   7.918 -0.1735 -0.3873 -0.0586
 1086YOPC   C4A15456  15.749  13.247   7.863 -0.1666  0.3936 -0.1050
 1086YOPC   C1B15457  15.260  11.965   7.297 -0.2695  0.0549 -0.2292
 1086YOPC   C2B15458  15.296  11.973   7.846  0.0281  0.2477 -0.0273
 1086YOPC   D3B15459  15.379  11.635   8.138 -0.0457 -0.1331 -0.0299
 1086YOPC   C4B15460  15.848  11.544   8.315  0.0741  0.0689  0.1935
 1087YOPC   NC315461  12.550  11.600   5.889  0.0126 -0.1520 -0.0669
 1087YOPC   PO415462  12.452  11.290   5.657  0.1239 -0.1214  0.1223
 1087YOPC   GL115463  12.531  11.194   6.154  0.1121  0.0191  0.2594
 1087YOPC   GL215464  12.357  11.371   6.379 -0.0545  0.1348  0.0166
 1087YOPC   C1A15465  12.750  11.194   6.584 -0.1089  0.2808  0.0696
 1087YOPC   D2A15466  12.857  11.173   7.115 -0.3289  0.1309  0.1072
 1087YOPC   C3A15467  12.591  10.973   7.396  0.1016  0.2377  0.0085
 1087YOPC   C4A15468  12.668  10.566   7.736 -0.0565 -0.0916  0.0743
 1087YOPC   C1B15469  12.392  11.424   6.841 -0.2969  0.2687 -0.0703
 1087YOPC   C2B15470  12.430  11.421   7.262 -0.0769 -0.0633 -0.1226
 1087YOPC   D3B15471  12.549  11.458   7.672 -0.2052  0.0103  0.1480
 1087YOPC   C4B15472  12.639  11.032   7.924  0.1517  0.0388  0.2790
 1088YOPC   NC315473   9.143   7.682   5.817  0.0267  0.1110 -0.0313
 1088YOPC   PO415474   9.458   7.778   6.104 -0.1764 -0.1104 -0.0559
 1088YOPC   GL115475   9.743   7.863   6.461 -0.3196 -0.0428  0.1372
 1088YOPC   GL215476  10.061   8.040   6.338  0.0117  0.3091 -0.0973
 1088YOPC   C1A15477  10.036   7.625   6.859 -0.3295 -0.0596  0.3353
 1088YOPC   D2A15478   9.947   7.411   7.162  0.0286 -0.2421 -0.0400
 1088YOPC   C3A15479   9.764   7.522   7.604  0.0450 -0.0108 -0.0518
 1088YOPC   C4A15480   9.757   7.780   7.936 -0.0197 -0.0416 -0.2882
 1088YOPC   C1B15481  10.009   8.463   6.546 -0.0963  0.0295  0.3478
 1088YOPC   C2B15482   9.853   8.604   6.890  0.3445 -0.0602 -0.2725
 1088YOPC   D3B15483   9.715   9.105   6.849 -0.1579 -0.0133  0.0005
 1088YOPC   C4B15484   9.514   9.296   7.175  0.1650 -0.1406 -0.4991
 1089YOPC   NC315485   4.834   6.117   6.103 -0.2069  0.1507 -0.1074
 1089YOPC   PO415486   4.612   6.158   6.483  0.1281  0.0134  0.1083
 1089YOPC   GL115487   4.429   6.175   6.858 -0.0609 -0.3302  0.1192
 1089YOPC   GL215488   4.533   6.506   6.910  0.2045  0.2225 -0.0395
 1089YOPC   C1A15489   4.413   5.954   7.255 -0.1438  0.1390 -0.0911
 1089YOPC   D2A15490   4.449   5.718   7.601  0.1857 -0.1516  0.0984
 1089YOPC   C3A15491   4.718   5.720   8.049 -0.0377 -0.1450 -0.0251
 1089YOPC   C4A15492   5.108   5.979   8.171  0.0277 -0.1230 -0.1451
 1089YOPC   C1B15493   4.624   6.418   7.231 -0.0811  0.0312 -0.1163
 1089YOPC   C2B15494   4.582   6.301   7.634 -0.1412  0.5573  0.0122
 1089YOPC   D3B15495   4.902   5.964   7.694 -0.1782 -0.0045 -0.3191
 1089YOPC   C4B15496   5.280   5.778   7.462  0.1110 -0.2064  0.3943
 1090YOPC   NC315497  12.716   6.727   6.077  0.1571  0.2273 -0.0215
 1090YOPC   PO415498  12.245   6.447   5.985 -0.0804 -0.2981 -0.3202
 1090YOPC   GL115499  12.500   6.266   6.284  0.0055  0.2716  0.3771
 1090YOPC   GL215500  12.493   6.542   6.509 -0.1528 -0.1324  0.3048
 1090YOPC   C1A15501  12.857   6.185   6.559  0.1259  0.2396  0.3314
 1090YOPC   D2A15502  12.879   6.077   7.003  0.1637  0.0719 -0.1015
 1090YOPC   C3A15503  13.215   5.827   7.166  0.1661  0.5593  0.0260
 1090YOPC   C4A15504  13.189   5.611   7.439 -0.3413 -0.0837  0.0618
 1090YOPC   C1B15505  12.383   6.212   6.766 -0.0791  0.2898 -0.0577
 1090YOPC   C2B15506  12.374   6.196   7.200  0.0831  0.0632  0.1748
 1090YOPC   D3B15507  12.315   5.987   7.606  0.2804 -0.1148  0.1396
 1090YOPC   C4B15508  12.178   6.154   8.045 -0.2672  0.2011 -0.1067
 1091YOPC   NC315509   1.064  15.497   5.919 -0.0564 -0.2153 -0.1388
 1091YOPC   PO415510   0.603  15.427   6.012  0.0076  0.0098  0.1875
 1091YOPC   GL115511   0.506  15.510   6.427 -0.1879 -0.0163  0.1148
 1091YOPC   GL215512   0.307  15.638   6.558  0.1403 -0.1944 -0.0338
 1091YOPC   C1A15513   0.688  15.442   6.865  0.3967  0.0018  0.0657
 1091YOPC   D2A15514   1.053  15.485   7.097 -0.1121 -0.1122  0.0062
 1091YOPC   C3A15515   1.104  15.393   7.344  0.1773  0.0244 -0.1457
 1091YOPC   C4A15516   1.109  15.345   7.779 -0.1263  0.0443  0.0254
 1091YOPC   C1B15517   0.253  15.546   7.023  0.0171  0.0046  0.0519
 1091YOPC   C2B15518  -0.010  15.711   7.310  0.0482 -0.1920 -0.1035
 1091YOPC   D3B15519   0.088  15.535   7.645 -0.1990 -0.0127 -0.1936
 1091YOPC   C4B15520   0.144  15.340   8.082  0.1313  0.1581 -0.1216
 1092YOPC   NC315521   5.309  11.343   5.672 -0.0510 -0.3244 -0.1838
 1092YOPC   PO415522   5.488  11.091   5.950  0.0533 -0.1973  0.5053
 1092YOPC   GL115523   5.555  10.977   6.384  0.0065  0.0059 -0.2154
 1092YOPC   GL215524   5.205  10.879   6.500 -0.1208  0.0200 -0.1035
 1092YOPC   C1A15525   5.583  10.982   6.840 -0.1423 -0.0096  0.2402
 1092YOPC   D2A15526   5.693  10.865   7.235  0.1119  0.0053 -0.1377
 1092YOPC   C3A15527   5.594  10.995   7.716  0.1687 -0.0202 -0.1066
 1092YOPC   C4A15528   5.807  11.249   7.953 -0.1212 -0.0310 -0.0225
 1092YOPC   C1B15529   4.836  10.845   6.870 -0.1907 -0.3222  0.2180
 1092YOPC   C2B15530   4.709  10.861   7.337 -0.1619  0.0192 -0.2318
 1092YOPC   D3B15531   4.798  10.657   7.651 -0.1642 -0.0686 -0.2560
 1092YOPC   C4B15532   5.108  10.718   7.945 -0.4155  0.1989 -0.2679
 1093YOPC   NC315533   6.098   6.538   6.360 -0.0958  0.1149  0.0156
 1093YOPC   PO415534   5.793   6.212   6.468 -0.1050  0.0904  0.1552
 1093YOPC   GL115535   5.671   6.176   6.889  0.0171  0.0890  0.0367
 1093YOPC   GL215536   5.404   6.141   7.072  0.0721 -0.1220 -0.1253
 1093YOPC   C1A15537   5.739   6.156   7.412 -0.1141 -0.2742  0.1432
 1093YOPC   D2A15538   5.902   6.079   7.777 -0.0045  0.0665  0.1015
 1093YOPC   C3A15539   6.104   6.261   8.129  0.4847 -0.1435 -0.0144
 1093YOPC   C4A15540   6.376   6.570   8.110  0.1357 -0.0118  0.0997
 1093YOPC   C1B15541   5.204   6.286   7.424 -0.0164  0.0064  0.3040
 1093YOPC   C2B15542   5.009   6.630   7.693  0.1467 -0.0942  0.0235
 1093YOPC   D3B15543   5.042   6.505   8.106  0.0367 -0.1241  0.2527
 1093YOPC   C4B15544   5.137   6.380   8.452 -0.5560  0.1481 -0.0618
 1094YOPC   NC315545  16.317   9.207   5.928  0.0131  0.2954 -0.0280
 1094YOPC   PO415546  16.057   9.575   6.100 -0.1093  0.0715  0.3284
 1094YOPC   GL115547  16.020   9.823   6.472 -0.3321  0.2175  0.0992
 1094YOPC   GL215548  15.831   9.823   6.678 -0.3187  0.1567  0.1470
 1094YOPC   C1A15549  16.395   9.782   6.773 -0.0978  0.1273 -0.2264
 1094YOPC   D2A15550  16.526   9.902   7.177 -0.0763 -0.0707 -0.2974
 1094YOPC   C3A15551  16.535   9.954   7.665 -0.2082 -0.0720 -0.1546
 1094YOPC   C4A15552  16.420   9.792   8.005 -0.0682  0.3774 -0.0000
 1094YOPC   C1B15553  16.006   9.784   7.070 -0.1081  0.0488  0.0812
 1094YOPC   C2B15554  16.145   9.714   7.462  0.0578  0.1319  0.0848
 1094YOPC   D3B15555  16.295   9.376   7.806  0.2126 -0.1716  0.1170
 1094YOPC   C4B15556  16.144   9.042   8.107 -0.3777 -0.0246  0.0431
 1095YOPC   NC315557   7.784   0.332   5.771 -0.2329 -0.4770  0.1506
 1095YOPC   PO415558   7.385   0.465   5.608  0.2406 -0.3222  0.1955
 1095YOPC   GL115559   7.423   0.498   6.048  0.1522  0.0525  0.1094
 1095YOPC   GL215560   7.706   0.621   6.179  0.1698 -0.1155 -0.2237
 1095YOPC   C1A15561   7.252   0.361   6.473  0.1437  0.1636  0.0461
 1095YOPC   D2A15562   6.894   0.447   6.769 -0.3863 -0.1143 -0.1013
 1095YOPC   C3A15563   6.834   0.382   7.278 -0.1695 -0.0499  0.3042
 1095YOPC   C4A15564   6.771   0.440   7.742 -0.0142 -0.1608  0.0854
 1095YOPC   C1B15565   7.648   0.625   6.598  0.2106 -0.1602  0.2496
 1095YOPC   C2B15566   7.311   0.745   6.832 -0.1258 -0.0377 -0.1510
 1095YOPC   D3B15567   7.331   0.506   7.157  0.1741 -0.0474  0.0649
 1095YOPC   C4B15568   7.305   0.431   7.542  0.1222  0.0510 -0.2032
 1096YOPC   NC315569  10.048   6.049   6.042 -0.0757 -0.1525  0.1502
 1096YOPC   PO415570   9.754   5.751   6.303 -0.0431 -0.2054 -0.1849
 1096YOPC   GL115571   9.729   5.746   6.750 -0.0435  0.1479 -0.0891
 1096YOPC   GL215572   9.814   6.045   6.781 -0.0450  0.3283 -0.0315
 1096YOPC   C1A15573   9.866   5.490   7.120 -0.1279  0.3056 -0.4459
 1096YOPC   D2A15574   9.897   5.382   7.507 -0.0904 -0.0409  0.1793
 1096YOPC   C3A15575   9.831   5.490   7.922  0.2416  0.3137  0.0129
 1096YOPC   C4A15576   9.727   5.523   8.360  0.1691 -0.0883 -0.1814
 1096YOPC   C1B15577  10.008   6.004   7.208 -0.0402  0.0006 -0.0415
 1096YOPC   C2B15578  10.096   5.824   7.643 -0.0299  0.0589 -0.0168
 1096YOPC   D3B15579  10.429   5.730   7.987  0.1942  0.0462  0.0951
 1096YOPC   C4B15580  10.776   5.818   8.062 -0.3610 -0.2270 -0.0883
 1097YOPC   NC315581   8.337  11.965   6.409  0.0641  0.2028  0.1878
 1097YOPC   PO415582   8.407  11.549   6.530 -0.1240 -0.1847  0.1688
 1097YOPC   GL115583   8.406  11.833   6.906  0.0331 -0.0627  0.2061
 1097YOPC   GL215584   8.369  12.101   6.882 -0.2550  0.0335 -0.2535
 1097YOPC   C1A15585   8.684  11.771   7.179 -0.1489 -0.0229 -0.2638
 1097YOPC   D2A15586   9.046  11.802   7.360  0.0049 -0.1775 -0.1831
 1097YOPC   C3A15587   9.260  11.997   7.645 -0.2254  0.1285 -0.1012
 1097YOPC   C4A15588   9.676  12.000   7.563  0.2349  0.1683  0.2780
 1097YOPC   C1B15589   8.276  12.111   7.311 -0.0772 -0.0360  0.1204
 1097YOPC   C2B15590   8.299  12.101   7.806  0.0465 -0.0347  0.0104
 1097YOPC   D3B15591   8.483  11.959   8.235  0.2007  0.2828  0.0372
 1097YOPC   C4B15592   8.745  11.597   8.392  0.1066  0.0731  0.4939
 1098YOPC   NC315593  15.170   4.830   5.300 -0.3130  0.2780  0.1612
 1098YOPC   PO415594  14.933   4.468   5.395  0.1435 -0.1887  0.1165
 1098YOPC   GL115595  14.974   4.465   5.871 -0.0807  0.1372 -0.0782
 1098YOPC   GL215596  14.988   4.667   6.113  0.0410  0.0107  0.1250
 1098YOPC   C1A15597  15.272   4.212   6.176  0.3176  0.1665 -0.0946
 1098YOPC   D2A15598  15.513   3.717   6.388 -0.0242 -0.2110 -0.0999
 1098YOPC   C3A15599  15.412   3.680   6.793 -0.1752 -0.0109 -0.3409
 1098YOPC   C4A15600  15.343   3.599   7.200 -0.0809 -0.0084 -0.1771
 1098YOPC   C1B15601  15.069   4.542   6.547 -0.0598  0.0159  0.0756
 1098YOPC   C2B15602  14.913   4.610   7.015 -0.0654 -0.0926 -0.1631
 1098YOPC   D3B15603  15.245   4.637   7.289  0.0419  0.1902 -0.1098
 1098YOPC   C4B15604  15.375   4.707   7.736 -0.1491  0.0807 -0.1410
 1099YOPC   NC315605   3.105  15.342   5.795 -0.0478  0.0913  0.0307
 1099YOPC   PO415606   2.747  15.001   5.733 -0.3812  0.1422 -0.0392
 1099YOPC   GL115607   2.651  15.169   6.123 -0.1023 -0.1492 -0.1066
 1099YOPC   GL215608   2.417  15.215   6.153  0.0065  0.3504 -0.0414
 1099YOPC   C1A15609   2.796  15.164   6.506  0.2672  0.1087 -0.0120
 1099YOPC   D2A15610   3.030  15.066   6.907  0.0408 -0.0903  0.1511
 1099YOPC   C3A15611   2.979  15.280   7.296 -0.2232  0.0384  0.0046
 1099YOPC   C4A15612   2.936  15.175   7.763  0.1243 -0.2015 -0.1378
 1099YOPC   C1B15613   2.182  14.893   6.417 -0.0588 -0.1369 -0.0328
 1099YOPC   C2B15614   2.169  14.935   6.799  0.3732  0.1237  0.0334
 1099YOPC   D3B15615   2.151  14.839   7.198  0.0920 -0.2208  0.0344
 1099YOPC   C4B15616   2.186  14.803   7.661 -0.2594  0.4467  0.0804
 1100YOPC   NC315617  15.439   2.341   5.925 -0.2033 -0.0249 -0.2163
 1100YOPC   PO415618  15.708   2.092   6.133  0.2104 -0.2677  0.2078
 1100YOPC   GL115619  15.712   1.871   6.517  0.0274  0.1347 -0.1644
 1100YOPC   GL215620  16.048   1.840   6.507  0.1825  0.1658  0.3202
 1100YOPC   C1A15621  15.717   1.647   6.903  0.3783 -0.1195  0.2058
 1100YOPC   D2A15622  15.768   1.631   7.388 -0.0827  0.1770 -0.1711
 1100YOPC   C3A15623  16.105   1.809   7.615  0.1993 -0.3041 -0.0625
 1100YOPC   C4A15624  16.109   1.815   8.091 -0.0284  0.0540  0.1860
 1100YOPC   C1B15625  16.214   1.721   6.907 -0.0026  0.0600 -0.0965
 1100YOPC   C2B15626  16.583   1.707   7.111  0.0584 -0.0099 -0.1726
 1100YOPC   D3B15627  16.576   1.653   7.592  0.0293  0.1614  0.4618
 1100YOPC   C4B15628  16.545   1.538   8.091 -0.1945  0.0501  0.3054
 1101YOPC   NC315629  12.840   1.624   5.764  0.2509 -0.4248  0.1027
 1101YOPC   PO415630  12.565   1.749   6.105 -0.4055 -0.0123  0.2666
 1101YOPC   GL115631  12.384   1.949   6.478  0.2418  0.1587 -0.3202
 1101YOPC   GL215632  12.375   2.285   6.485  0.1314  0.0291  0.4984
 1101YOPC   C1A15633  12.263   1.778   6.871  0.2560 -0.3789 -0.0945
 1101YOPC   D2A15634  12.362   1.789   7.358 -0.0404 -0.0455  0.4508
 1101YOPC   C3A15635  12.389   1.473   7.755  0.1349 -0.0641 -0.2717
 1101YOPC   C4A15636  12.817   1.533   8.036  0.0381  0.1113 -0.1096
 1101YOPC   C1B15637  12.204   2.310   6.830  0.0477  0.0945  0.0220
 1101YOPC   C2B15638  12.231   2.318   7.188 -0.0895  0.5189  0.0808
 1101YOPC   D3B15639  12.272   2.278   7.556  0.1220 -0.4233 -0.1904
 1101YOPC   C4B15640  12.514   2.434   7.846 -0.1104  0.1705  0.0131
 1102YOPC   NC315641   6.194  14.667   5.531 -0.1182 -0.2308  0.0597
 1102YOPC   PO415642   6.032  14.598   5.968  0.3360  0.0615 -0.0475
 1102YOPC   GL115643   5.918  14.534   6.412 -0.0349 -0.3680 -0.0305
 1102YOPC   GL215644   5.521  14.402   6.528  0.0643 -0.1183 -0.0394
 1102YOPC   C1A15645   6.085  14.433   6.861 -0.2520  0.1794  0.1469
 1102YOPC   D2A15646   5.874  14.227   7.179  0.0282 -0.0999 -0.2222
 1102YOPC   C3A15647   5.671  14.524   7.361  0.4310 -0.0556 -0.2093
 1102YOPC   C4A15648   5.434  14.923   7.523 -0.1766  0.1429 -0.1666
 1102YOPC   C1B15649   5.480  14.185   6.950  0.3389  0.3010  0.0998
 1102YOPC   C2B15650   5.555  14.003   7.454  0.0405 -0.0601  0.0802
 1102YOPC   D3B15651   5.913  14.121   7.729 -0.1497 -0.2333  0.1231
 1102YOPC   C4B15652   6.191  13.926   7.883 -0.1550 -0.0177 -0.4338
 1103YOPC   NC315653   2.659  12.840   6.043 -0.1580  0.1005 -0.4000
 1103YOPC   PO415654   2.303  12.630   5.831 -0.3655 -0.2104  0.1098
 1103YOPC   GL115655   2.452  12.521   6.339 -0.0353  0.1195  0.0810
 1103YOPC   GL215656   2.311  12.248   6.486 -0.1242 -0.1745 -0.0081
 1103YOPC   C1A15657   2.622  12.699   6.658 -0.2110 -0.1264  0.2628
 1103YOPC   D2A15658   2.805  12.744   6.968 -0.1461  0.0956 -0.0731
 1103YOPC   C3A15659   2.947  12.837   7.322  0.1581 -0.1375  0.0601
 1103YOPC   C4A15660   3.377  12.956   7.566  0.2127 -0.3549  0.0187
 1103YOPC   C1B15661   2.243  12.455   6.890  0.0065 -0.0502 -0.0069
 1103YOPC   C2B15662   2.257  12.757   7.219 -0.1604  0.2173 -0.3191
 1103YOPC   D3B15663   2.250  12.401   7.518  0.0212  0.1302 -0.3073
 1103YOPC   C4B15664   2.063  12.237   7.819 -0.3494  0.0039  0.3333
 1104YOPC   NC315665  15.274  17.633   6.200 -0.0196  0.0548 -0.2991
 1104YOPC   PO415666  14.993  18.096   6.204 -0.2186  0.1168 -0.0306
 1104YOPC   GL115667  14.915  18.357   6.541 -0.1658 -0.0552 -0.0002
 1104YOPC   GL215668  14.759  18.684   6.460 -0.0935 -0.3617 -0.1977
 1104YOPC   C1A15669  14.847  18.421   7.009 -0.2424  0.2863 -0.2869
 1104YOPC   D2A15670  15.032  18.082   7.267  0.0094  0.4207 -0.0157
 1104YOPC   C3A15671  14.933  17.827   7.807  0.1219 -0.2319  0.1830
 1104YOPC   C4A15672  15.164  18.012   8.141 -0.0525 -0.2311 -0.0070
 1104YOPC   C1B15673  14.744  18.863   6.857  0.2508  0.0696 -0.1063
 1104YOPC   C2B15674  14.410  19.132   7.075  0.1698 -0.2104  0.2370
 1104YOPC   D3B15675  14.473  19.310   7.578  0.0226 -0.0224 -0.0229
 1104YOPC   C4B15676  14.303  19.252   8.021  0.1207  0.0136  0.1069
 1105YOPC   NC315677   2.925   9.018   6.060  0.2755  0.1046  0.1080
 1105YOPC   PO415678   2.778   8.620   6.162  0.0911 -0.0065  0.2048
 1105YOPC   GL115679   2.639   8.296   6.499  0.0535 -0.5793  0.0773
 1105YOPC   GL215680   2.396   8.416   6.690 -0.1709  0.1415  0.2994
 1105YOPC   C1A15681   2.481   7.933   6.784  0.0771  0.0521  0.4529
 1105YOPC   D2A15682   2.472   7.814   7.239 -0.2988 -0.0194  0.3279
 1105YOPC   C3A15683   2.103   7.781   7.486 -0.0711  0.0776 -0.1673
 1105YOPC   C4A15684   1.785   7.540   7.754  0.2250  0.1382  0.2737
 1105YOPC   C1B15685   2.564   8.349   7.018  0.1473 -0.0092 -0.0519
 1105YOPC   C2B15686   2.611   8.277   7.437  0.0800  0.2053  0.0979
 1105YOPC   D3B15687   2.575   7.866   7.725  0.0774  0.0274 -0.1920
 1105YOPC   C4B15688   2.312   7.616   7.941 -0.0434 -0.0660 -0.1135
 1106YOPC   NC315689  15.444   3.399   6.032 -0.0835  0.2922 -0.1819
 1106YOPC   PO415690  15.866   3.086   5.818 -0.0076 -0.0472 -0.0259
 1106YOPC   GL115691  15.913   3.277   6.185 -0.0056 -0.1900  0.1317
 1106YOPC   GL215692  16.296   3.215   6.427  0.1118  0.1040  0.0287
 1106YOPC   C1A15693  15.838   3.365   6.592  0.2078 -0.2759  0.1112
 1106YOPC   D2A15694  15.750   3.451   7.032  0.0452 -0.1497  0.0578
 1106YOPC   C3A15695  15.701   3.311   7.422  0.3733  0.0911 -0.0258
 1106YOPC   C4A15696  15.421   3.379   7.696 -0.0927  0.1532 -0.2122
 1106YOPC   C1B15697  16.315   3.053   6.882  0.3274  0.1205  0.1759
 1106YOPC   C2B15698  16.181   2.629   7.048 -0.2624 -0.2319  0.1486
 1106YOPC   D3B15699  16.067   2.534   7.429  0.0048  0.1656 -0.1990
 1106YOPC   C4B15700  16.064   2.367   7.864 -0.1010 -0.1256  0.0264
 1107YOPC   NC315701  11.514  11.655   5.926 -0.1747 -0.1675 -0.2741
 1107YOPC   PO415702  11.557  11.206   6.033 -0.2413 -0.2609  0.2037
 1107YOPC   GL115703  11.381  11.015   6.460  0.0015  0.1514 -0.3391
 1107YOPC   GL215704  11.397  10.637   6.505 -0.1679  0.0556  0.3668
 1107YOPC   C1A15705  11.174  10.804   6.866 -0.1224 -0.0450 -0.0114
 1107YOPC   D2A15706  11.151  10.880   7.286 -0.1588 -0.1752  0.0584
 1107YOPC   C3A15707  11.336  10.962   7.640 -0.0453 -0.3404 -0.1045
 1107YOPC   C4A15708  11.351  10.882   8.058  0.0414  0.3240  0.0359
 1107YOPC   C1B15709  11.426  10.292   6.867 -0.2738  0.0547  0.2386
 1107YOPC   C2B15710  11.497  10.069   7.199 -0.0945  0.2209 -0.1631
 1107YOPC   D3B15711  11.343   9.976   7.592  0.0593 -0.1376 -0.0489
 1107YOPC   C4B15712  11.378  10.267   7.938 -0.4240  0.2070 -0.1070
 1108YOPC   NC315713   5.279  14.614   6.043  0.0528 -0.3209  0.1427
 1108YOPC   PO415714   4.852  14.479   5.907 -0.0917 -0.1033 -0.0245
 1108YOPC   GL115715   4.844  14.465   6.377  0.0054 -0.1461  0.0727
 1108YOPC   GL215716   4.658  14.639   6.487  0.2557  0.0893 -0.1882
 1108YOPC   C1A15717   4.915  14.303   6.814  0.1075  0.1784  0.2423
 1108YOPC   D2A15718   4.737  14.164   7.226 -0.2831  0.1269  0.0336
 1108YOPC   C3A15719   4.673  14.557   7.522  0.0555 -0.0077  0.2494
 1108YOPC   C4A15720   4.988  14.799   7.646  0.1920 -0.1668  0.0363
 1108YOPC   C1B15721   4.574  14.651   6.924  0.1614 -0.1555  0.2189
 1108YOPC   C2B15722   4.382  14.808   7.198  0.2415 -0.0451 -0.0478
 1108YOPC   D3B15723   4.588  15.114   7.557  0.0363 -0.2107  0.0376
 1108YOPC   C4B15724   4.754  15.180   8.014  0.2694 -0.2249 -0.2576
 1109YOPC   NC315725   4.015  15.006   5.959 -0.2080  0.2670 -0.0917
 1109YOPC   PO415726   3.855  14.642   6.121  0.1394 -0.0002  0.0586
 1109YOPC   GL115727   4.149  14.727   6.419 -0.1950  0.1383 -0.2752
 1109YOPC   GL215728   4.324  14.995   6.316  0.0872  0.1133  0.0062
 1109YOPC   C1A15729   4.108  14.792   6.772  0.1216 -0.0233  0.1440
 1109YOPC   D2A15730   3.902  14.910   7.278 -0.3731  0.4144  0.0499
 1109YOPC   C3A15731   4.150  14.638   7.619 -0.1807 -0.1441 -0.0726
 1109YOPC   C4A15732   4.409  14.813   7.888 -0.1648 -0.2379  0.0932
 1109YOPC   C1B15733   4.479  15.139   6.733  0.2324  0.2018 -0.1217
 1109YOPC   C2B15734   4.826  15.055   7.119  0.0532 -0.0391 -0.1566
 1109YOPC   D3B15735   5.318  14.966   7.082  0.1181  0.0489 -0.0598
 1109YOPC   C4B15736   5.645  14.712   6.865 -0.1467  0.2226 -0.1545
 1110YOPC   NC315737   0.501  10.817   6.110 -0.1031 -0.0028 -0.2935
 1110YOPC   PO415738   0.421  10.300   6.199 -0.0861  0.0177  0.2353
 1110YOPC   GL115739   0.112  10.306   6.475 -0.2028 -0.1642  0.0536
 1110YOPC   GL215740   0.020  10.118   6.709  0.3131 -0.0049  0.1825
 1110YOPC   C1A15741   0.025  10.522   6.941  0.0359 -0.0985  0.0990
 1110YOPC   D2A15742   0.210  10.322   7.191  0.0626 -0.1484  0.3154
 1110YOPC   C3A15743   0.389  10.533   7.638 -0.3099  0.1449  0.1546
 1110YOPC   C4A15744   0.701  10.420   7.950 -0.2061 -0.4622  0.1196
 1110YOPC   C1B15745  -0.142  10.033   7.147 -0.0907  0.4051 -0.0730
 1110YOPC   C2B15746   0.026   9.953   7.531  0.2201  0.1655 -0.1891
 1110YOPC   D3B15747  -0.233  10.243   7.805 -0.2534 -0.0680  0.0582
 1110YOPC   C4B15748  -0.563  10.285   7.957 -0.1519 -0.3110 -0.1229
 1111YOPC   NC315749  17.632  15.618   6.024 -0.0244 -0.2505  0.0370
 1111YOPC   PO415750  17.799  15.976   5.935  0.0787 -0.3236 -0.2360
 1111YOPC   GL115751  17.804  15.941   6.329  0.2891 -0.0707 -0.2074
 1111YOPC   GL215752  18.036  16.053   6.474 -0.2004 -0.1695  0.1480
 1111YOPC   C1A15753  17.786  15.637   6.666  0.1130 -0.2063 -0.0215
 1111YOPC   D2A15754  17.789  15.254   6.979 -0.0517  0.1347 -0.0685
 1111YOPC   C3A15755  18.063  15.122   7.294  0.3037  0.0441 -0.2177
 1111YOPC   C4A15756  18.247  14.984   7.671  0.0182 -0.0539  0.2133
 1111YOPC   C1B15757  18.078  15.993   6.883 -0.1461 -0.0002 -0.3504
 1111YOPC   C2B15758  18.343  16.032   7.249  0.1741  0.0969 -0.0475
 1111YOPC   D3B15759  18.418  15.965   7.634  0.1114 -0.0911 -0.2164
 1111YOPC   C4B15760  18.732  16.022   7.859 -0.1177 -0.0520  0.0532
 1112YOPC   NC315761   5.613   6.619   6.217  0.0903  0.0533 -0.2500
 1112YOPC   PO415762   5.718   6.989   6.486 -0.3270 -0.0800 -0.1826
 1112YOPC   GL115763   5.757   6.875   6.921 -0.2481 -0.1183 -0.0432
 1112YOPC   GL215764   6.014   6.951   7.031 -0.0644 -0.0456 -0.1000
 1112YOPC   C1A15765   5.614   6.598   7.158  0.3019 -0.3683 -0.0610
 1112YOPC   D2A15766   5.486   6.645   7.611  0.1014  0.0621  0.1087
 1112YOPC   C3A15767   5.452   6.277   7.862 -0.0979 -0.0326 -0.0494
 1112YOPC   C4A15768   5.676   6.041   8.253  0.2601  0.0423  0.0320
 1112YOPC   C1B15769   6.175   7.004   7.425  0.1357  0.3836 -0.1179
 1112YOPC   C2B15770   6.213   7.011   7.888  0.2346 -0.1800 -0.0568
 1112YOPC   D3B15771   6.606   7.089   8.052  0.2455  0.0551 -0.0537
 1112YOPC   C4B15772   6.790   7.198   8.434  0.0417 -0.0485 -0.0275
 1113YOPC   NC315773   6.252   7.331   6.177 -0.0667 -0.3406 -0.2909
 1113YOPC   PO415774   6.636   7.294   6.421  0.2877  0.0325  0.2422
 1113YOPC   GL115775   6.703   6.975   6.763 -0.0087 -0.1610  0.0269
 1113YOPC   GL215776   6.987   6.766   6.860 -0.1061  0.2988  0.0533
 1113YOPC   C1A15777   6.575   6.846   7.147  0.1013 -0.0746 -0.0924
 1113YOPC   D2A15778   6.546   6.680   7.539  0.2703  0.1559 -0.1551
 1113YOPC   C3A15779   6.795   6.689   7.827  0.1200 -0.1888 -0.1538
 1113YOPC   C4A15780   6.823   6.653   8.270 -0.1031 -0.0369  0.0031
 1113YOPC   C1B15781   7.119   6.704   7.229  0.0106  0.1841 -0.2644
 1113YOPC   C2B15782   7.345   6.700   7.595 -0.2632 -0.1156  0.2805
 1113YOPC   D3B15783   7.210   6.850   8.011  0.0447 -0.0623 -0.3235
 1113YOPC   C4B15784   7.265   7.023   8.522  0.2098  0.2533 -0.0913
 1114YOPC   NC315785   0.649  14.687   6.184 -0.0151  0.0076 -0.4268
 1114YOPC   PO415786   0.937  14.615   5.864 -0.0765 -0.0994  0.1303
 1114YOPC   GL115787   1.162  14.843   6.116  0.1948 -0.1903 -0.0287
 1114YOPC   GL215788   1.358  14.609   6.297 -0.2219 -0.3490 -0.2221
 1114YOPC   C1A15789   1.163  15.118   6.448 -0.2804 -0.0611 -0.0363
 1114YOPC   D2A15790   0.984  15.000   6.800  0.3312  0.1145 -0.1060
 1114YOPC   C3A15791   1.142  14.926   7.133  0.0802  0.1819  0.0768
 1114YOPC   C4A15792   1.028  14.908   7.490  0.1591  0.2562 -0.1796
 1114YOPC   C1B15793   1.506  14.327   6.568  0.0445 -0.1944  0.1422
 1114YOPC   C2B15794   1.439  13.943   6.925  0.1962 -0.1887  0.0595
 1114YOPC   D3B15795   1.476  13.860   7.409  0.0726 -0.4126 -0.2700
 1114YOPC   C4B15796   1.359  13.873   7.785  0.0245 -0.0460 -0.0982
 1115YOPC   NC315797  15.459  10.463   6.031 -0.3672 -0.0007 -0.3395
 1115YOPC   PO415798  15.223  10.704   6.128 -0.0360 -0.4252  0.2151
 1115YOPC   GL115799  15.642  10.941   6.132 -0.0852 -0.0107 -0.1037
 1115YOPC   GL215800  15.701  10.786   6.449 -0.1612 -0.0309  0.2195
 1115YOPC   C1A15801  16.083  11.085   6.299 -0.3564  0.2678  0.1833
 1115YOPC   D2A15802  16.152  11.445   6.450  0.0950  0.0452  0.3215
 1115YOPC   C3A15803  16.017  11.371   6.936  0.0265 -0.0324  0.1062
 1115YOPC   C4A15804  16.337  11.148   7.181 -0.1142  0.0784  0.0445
 1115YOPC   C1B15805  15.887  10.343   6.594 -0.0908  0.0708 -0.0307
 1115YOPC   C2B15806  16.181  10.228   6.947  0.2167 -0.0936 -0.0270
 1115YOPC   D3B15807  16.197  10.218   7.402  0.0188 -0.0547 -0.2884
 1115YOPC   C4B15808  16.249  10.476   7.680  0.0486 -0.1161  0.2819
 1116YOPC   NC315809  10.564  13.456   6.287  0.2524 -0.5409 -0.1344
 1116YOPC   PO415810  10.205  13.248   6.335 -0.1404  0.0584  0.1711
 1116YOPC   GL115811  10.126  13.497   6.617 -0.1166 -0.0656 -0.1727
 1116YOPC   GL215812   9.830  13.611   6.681 -0.1776  0.1668  0.3164
 1116YOPC   C1A15813  10.024  13.581   7.145 -0.2209 -0.3021  0.2864
 1116YOPC   D2A15814   9.915  13.484   7.568 -0.1103  0.2350  0.2245
 1116YOPC   C3A15815   9.859  13.263   7.930  0.0258 -0.3729 -0.1426
 1116YOPC   C4A15816   9.521  13.166   8.097  0.1441  0.0563 -0.0179
 1116YOPC   C1B15817  10.190  13.964   6.844  0.0493  0.1013  0.1635
 1116YOPC   C2B15818  10.555  14.130   7.066 -0.5548 -0.6243  0.2908
 1116YOPC   D3B15819  10.341  14.364   7.317  0.1763  0.1886  0.0838
 1116YOPC   C4B15820  10.152  14.446   7.580  0.2500 -0.0905  0.1802
 1117YOPC   NC315821  11.543   9.779   6.181 -0.4073 -0.0474 -0.0008
 1117YOPC   PO415822  11.305   9.356   6.084 -0.1697 -0.2076 -0.0599
 1117YOPC   GL115823  11.400   9.294   6.450  0.1110 -0.2816  0.0029
 1117YOPC   GL215824  11.682   9.269   6.628  0.0934  0.2732 -0.1148
 1117YOPC   C1A15825  11.267   9.056   6.792 -0.2789  0.0650  0.0582
 1117YOPC   D2A15826  10.928   8.859   7.076  0.1051  0.1517 -0.1870
 1117YOPC   C3A15827  11.052   8.592   7.348  0.0272  0.0605 -0.3156
 1117YOPC   C4A15828  10.833   8.370   7.547  0.0161 -0.0170 -0.2554
 1117YOPC   C1B15829  11.788   9.117   7.003 -0.0023  0.0171  0.0485
 1117YOPC   C2B15830  11.843   9.094   7.427 -0.2795  0.2753 -0.3111
 1117YOPC   D3B15831  11.645   8.964   7.772 -0.2847 -0.0753 -0.3570
 1117YOPC   C4B15832  11.351   8.865   8.121 -0.2497  0.0912  0.1948
 1118YOPC   NC315833   6.984  14.677   5.907 -0.1563  0.1094  0.1174
 1118YOPC   PO415834   6.653  14.878   5.728 -0.1637 -0.1200 -0.1122
 1118YOPC   GL115835   6.515  14.931   6.202 -0.0741 -0.0399  0.0324
 1118YOPC   GL215836   6.225  14.916   6.370  0.0031 -0.2557  0.1237
 1118YOPC   C1A15837   6.663  15.166   6.574 -0.2145  0.2852  0.0361
 1118YOPC   D2A15838   6.538  15.264   6.964 -0.0871  0.2019  0.0991
 1118YOPC   C3A15839   6.482  15.096   7.280 -0.0093  0.0411  0.1393
 1118YOPC   C4A15840   6.499  15.239   7.725  0.0061  0.1727 -0.3805
 1118YOPC   C1B15841   6.240  14.897   6.767 -0.2866 -0.0279  0.0197
 1118YOPC   C2B15842   6.011  14.948   7.084 -0.2883  0.0650  0.0532
 1118YOPC   D3B15843   6.049  15.079   7.520 -0.2391  0.1777  0.1128
 1118YOPC   C4B15844   5.827  15.221   7.908 -0.4285  0.0973  0.2513
 1119YOPC   NC315845  16.085   5.194   5.548 -0.1112 -0.2533  0.0681
 1119YOPC   PO415846  16.572   5.107   5.664 -0.0505  0.1140  0.1443
 1119YOPC   GL115847  16.399   4.922   5.998 -0.0493  0.1161 -0.0607
 1119YOPC   GL215848  16.562   4.652   6.123  0.3145 -0.0301 -0.1800
 1119YOPC   C1A15849  15.975   4.556   6.206 -0.1106 -0.1510 -0.0677
 1119YOPC   D2A15850  15.974   4.620   6.609  0.0161  0.0863  0.4982
 1119YOPC   C3A15851  15.830   4.678   6.977 -0.1640 -0.0541  0.2622
 1119YOPC   C4A15852  15.766   4.743   7.366 -0.2497  0.1352 -0.0328
 1119YOPC   C1B15853  16.399   4.856   6.506  0.1253  0.0746 -0.0560
 1119YOPC   C2B15854  16.350   4.840   6.870 -0.0734  0.0369 -0.1689
 1119YOPC   D3B15855  16.236   4.926   7.209 -0.0718 -0.3456  0.0510
 1119YOPC   C4B15856  16.286   4.675   7.642  0.1541  0.1466 -0.0340
 1120YOPC   NC315857  10.939   7.700   5.917  0.0955 -0.0498  0.0568
 1120YOPC   PO415858  10.537   7.898   5.850 -0.0319 -0.1333 -0.1367
 1120YOPC   GL115859  10.636   7.981   6.298 -0.0611  0.0179  0.0006
 1120YOPC   GL215860  10.996   8.041   6.256  0.0931 -0.0515 -0.1434
 1120YOPC   C1A15861  10.439   8.126   6.679  0.0368 -0.0312 -0.2594
 1120YOPC   D2A15862  10.085   8.119   6.918  0.0596 -0.0520 -0.1075
 1120YOPC   C3A15863  10.065   7.896   7.262 -0.0418 -0.0810  0.2250
 1120YOPC   C4A15864  10.167   7.919   7.700 -0.0012  0.3473 -0.0537
 1120YOPC   C1B15865  10.971   7.752   6.560 -0.1697 -0.1790 -0.1073
 1120YOPC   C2B15866  11.222   7.804   6.994 -0.0595 -0.1858 -0.0563
 1120YOPC   D3B15867  11.005   7.866   7.395  0.0848 -0.0750 -0.1358
 1120YOPC   C4B15868  10.908   7.903   7.820  0.0648  0.1334 -0.0479
 1121YOPC   NC315869   7.183  10.782   5.885  0.2782 -0.0691  0.0427
 1121YOPC   PO415870   6.792  11.033   6.110 -0.1370  0.2845  0.0246
 1121YOPC   GL115871   6.518  10.932   6.394 -0.0645  0.0998 -0.0740
 1121YOPC   GL215872   6.340  11.147   6.383  0.0305  0.0946 -0.1914
 1121YOPC   C1A15873   6.288  10.856   6.785 -0.0937 -0.0221  0.0850
 1121YOPC   D2A15874   6.164  10.782   7.227 -0.0926 -0.0497 -0.0047
 1121YOPC   C3A15875   6.002  10.576   7.600  0.0365 -0.0229 -0.1288
 1121YOPC   C4A15876   6.269  10.288   7.850  0.0234 -0.3031  0.0549
 1121YOPC   C1B15877   5.906  11.246   6.595  0.1322  0.3300  0.0894
 1121YOPC   C2B15878   6.003  11.275   7.055 -0.2937 -0.0263 -0.0255
 1121YOPC   D3B15879   6.450  11.305   7.331 -0.1079 -0.1841  0.1883
 1121YOPC   C4B15880   6.644  11.082   7.614 -0.1245 -0.1913  0.4826
 1122YOPC   NC315881   4.504  10.668   5.865 -0.0538 -0.0514 -0.1563
 1122YOPC   PO415882   4.181  10.500   5.717  0.5038 -0.0256 -0.1938
 1122YOPC   GL115883   4.012  10.382   6.149 -0.1013  0.3052  0.2143
 1122YOPC   GL215884   4.268  10.320   6.380 -0.0661  0.2434 -0.1752
 1122YOPC   C1A15885   3.688  10.494   6.377 -0.1366  0.0604  0.1980
 1122YOPC   D2A15886   3.339  10.576   6.681 -0.3155 -0.0682 -0.1327
 1122YOPC   C3A15887   3.510  10.737   7.023 -0.1259 -0.0840  0.2734
 1122YOPC   C4A15888   3.434  10.873   7.405 -0.1646 -0.2842  0.1908
 1122YOPC   C1B15889   3.907  10.135   6.622 -0.0276  0.1508 -0.0791
 1122YOPC   C2B15890   3.544  10.060   6.895 -0.0795  0.1012 -0.2203
 1122YOPC   D3B15891   3.520  10.361   7.341 -0.0391 -0.0268  0.1561
 1122YOPC   C4B15892   3.418  10.409   7.670 -0.2391 -0.1876 -0.1340
 1123ERGO   ROH15893   6.911   1.275   6.212  0.0660 -0.0235  0.0519
 1123ERGO    R115894   6.868   1.277   6.492  0.1127 -0.0074  0.0587
 1123ERGO    R215895   6.796   1.051   6.633  0.0509  0.0214  0.0688
 1123ERGO    R315896   7.013   1.114   6.783  0.0984 -0.0620  0.0363
 1123ERGO    R415897   6.856   0.931   6.952  0.0236  0.0319  0.0782
 1123ERGO    R515898   6.928   1.130   7.007  0.1260  0.0085  0.0444
 1123ERGO    C115899   7.096   0.921   7.278  0.0524 -0.0402  0.0532
 1123ERGO    C215900   7.062   0.855   7.645 -0.0459 -0.0561 -0.1161
 1124ERGO   ROH15901   6.145   5.904   6.855 -0.1363  0.0238 -0.0067
 1124ERGO    R115902   6.174   5.998   7.120 -0.0204  0.0580 -0.0314
 1124ERGO    R215903   6.264   5.837   7.326 -0.0162  0.0615 -0.0353
 1124ERGO    R315904   6.445   6.036   7.360  0.0671  0.0014 -0.1192
 1124ERGO    R415905   6.365   5.961   7.632 -0.0472  0.2130 -0.0851
 1124ERGO    R515906   6.362   6.162   7.546  0.0683  0.1629 -0.2216
 1124ERGO    C115907   6.595   6.221   7.842  0.0130  0.2447 -0.1930
 1124ERGO    C215908   6.628   6.115   8.105  0.0853 -0.1245 -0.1220
 1125ERGO   ROH15909  15.964   2.330   6.512 -0.0007 -0.2852  0.0043
 1125ERGO    R115910  15.847   2.366   6.767 -0.1258 -0.1537 -0.0693
 1125ERGO    R215911  15.651   2.198   6.866 -0.0543 -0.2074 -0.0094
 1125ERGO    R315912  15.822   2.175   7.076 -0.1169  0.0790  0.0775
 1125ERGO    R415913  15.556   2.137   7.192 -0.1276 -0.1009 -0.0108
 1125ERGO    R515914  15.707   2.279   7.258 -0.2888  0.0808 -0.0318
 1125ERGO    C115915  15.661   2.079   7.580 -0.2292  0.2301  0.0699
 1125ERGO    C215916  15.647   1.750   7.837  0.0789  0.1264 -0.1614
 1126ERGO   ROH15917   4.568  17.714   6.532 -0.2384  0.0573  0.0846
 1126ERGO    R115918   4.704  17.743   6.778 -0.0456 -0.2971  0.0264
 1126ERGO    R215919   4.605  17.896   6.986  0.4201 -0.0639  0.0884
 1126ERGO    R315920   4.638  17.667   7.128 -0.0759 -0.1686  0.0495
 1126ERGO    R415921   4.577  17.871   7.329  0.3455 -0.0629  0.0824
 1126ERGO    R515922   4.748  17.736   7.329  0.0668 -0.4353  0.0688
 1126ERGO    C115923   4.590  17.641   7.663 -0.1635 -0.1608  0.0424
 1126ERGO    C215924   4.295  17.397   7.900 -0.1404  0.0410 -0.4713
 1127ERGO   ROH15925   5.352  11.911   6.244 -0.1624  0.0837  0.0371
 1127ERGO    R115926   5.168  11.996   6.443 -0.0259  0.1092  0.1542
 1127ERGO    R215927   4.991  11.823   6.564 -0.1371  0.1790  0.0919
 1127ERGO    R315928   5.103  11.920   6.792  0.0212 -0.0734  0.1245
 1127ERGO    R415929   4.853  11.793   6.880 -0.3596  0.5670  0.0388
 1127ERGO    R515930   4.917  11.997   6.922  0.1505  0.4242  0.0357
 1127ERGO    C115931   4.878  11.865   7.278 -0.3406  0.5560  0.0385
 1127ERGO    C215932   4.986  11.778   7.521  0.1455  0.1160  0.0264
 1128ERGO   ROH15933   9.264   4.851   6.763 -0.0326  0.3176  0.0673
 1128ERGO    R115934   9.395   4.756   6.995 -0.0066  0.1660 -0.0073
 1128ERGO    R215935   9.636   4.860   7.083  0.0658  0.0314 -0.0280
 1128ERGO    R315936   9.499   4.894   7.315  0.1385 -0.0067  0.0198
 1128ERGO    R415937   9.779   4.939   7.387  0.1425  0.0456 -0.0682
 1128ERGO    R515938   9.642   4.800   7.483  0.2067  0.0178 -0.0304
 1128ERGO    C115939   9.734   5.017   7.783  0.2554  0.0181 -0.0466
 1128ERGO    C215940   9.696   5.054   8.101  0.0414  0.0152  0.0716
 1129ERGO   ROH15941  13.172  16.025   6.308  0.0492  0.0010  0.0396
 1129ERGO    R115942  13.201  15.996   6.588  0.1332  0.2340  0.0557
 1129ERGO    R215943  13.232  16.212   6.757 -0.2449  0.4049 -0.0909
 1129ERGO    R315944  13.019  16.102   6.885 -0.0339  0.0931  0.0076
 1129ERGO    R415945  13.196  16.193   7.100 -0.2109  0.6924 -0.0681
 1129ERGO    R515946  13.114  15.993   7.075  0.1966  0.4811  0.1331
 1129ERGO    C115947  12.974  16.079   7.420  0.0070  0.5672  0.0377
 1129ERGO    C215948  12.893  16.108   7.906 -0.1151  0.1614 -0.0611
 1130ERGO   ROH15949   9.229   3.885   6.660  0.2399  0.0959 -0.0848
 1130ERGO    R115950   9.205   3.918   6.940  0.1809  0.0158 -0.0817
 1130ERGO    R215951   9.118   3.715   7.107  0.3505 -0.0940 -0.1385
 1130ERGO    R315952   9.350   3.767   7.238  0.2872  0.0896 -0.0924
 1130ERGO    R415953   9.174   3.653   7.442  0.2534  0.1202 -0.0797
 1130ERGO    R515954   9.281   3.842   7.455  0.1681  0.1870 -0.1541
 1130ERGO    C115955   9.425   3.665   7.760  0.1374  0.4174 -0.0020
 1130ERGO    C215956   9.384   3.641   8.097  0.3563  0.1013  0.0938
 1131ERGO   ROH15957  16.278   4.248   6.441  0.2297 -0.0334  0.0932
 1131ERGO    R115958  16.265   4.174   6.713  0.0205 -0.0328  0.0855
 1131ERGO    R215959  16.336   4.346   6.918  0.1065 -0.1135  0.1273
 1131ERGO    R315960  16.087   4.287   7.010 -0.0041  0.1454  0.0036
 1131ERGO    R415961  16.236   4.371   7.248  0.0461 -0.2551  0.1202
 1131ERGO    R515962  16.125   4.185   7.223 -0.2020 -0.0880 -0.0684
 1131ERGO    C115963  15.944   4.330   7.526 -0.0929 -0.0946 -0.0001
 1131ERGO    C215964  15.890   4.393   7.848 -0.0969 -0.3164 -0.1032
 1132ERGO   ROH15965   5.940   9.719   6.668  0.1411  0.1583 -0.0087
 1132ERGO    R115966   6.019   9.701   6.939  0.1074  0.1646  0.0013
 1132ERGO    R215967   6.092   9.922   7.089 -0.0548  0.1848  0.0470
 1132ERGO    R315968   5.901   9.829   7.259 -0.0249  0.0407  0.0044
 1132ERGO    R415969   6.053  10.026   7.416 -0.0615 -0.0026  0.1077
 1132ERGO    R515970   6.011   9.819   7.471 -0.0077 -0.0491 -0.0050
 1132ERGO    C115971   5.850  10.001   7.766 -0.0374 -0.2471  0.1029
 1132ERGO    C215972   5.869   9.857   8.021  0.4482  0.0223 -0.3313
 1133ERGO   ROH15973   7.011  13.404   6.540  0.2233 -0.2593  0.0350
 1133ERGO    R115974   7.148  13.562   6.731  0.2325 -0.1883 -0.0301
 1133ERGO    R215975   7.017  13.704   6.930  0.2353 -0.0426 -0.1295
 1133ERGO    R315976   7.186  13.567   7.093  0.1726  0.0033 -0.0252
 1133ERGO    R415977   7.072  13.776   7.263  0.0610  0.0102 -0.1110
 1133ERGO    R515978   7.284  13.735   7.232  0.0811  0.0342  0.0006
 1133ERGO    C115979   7.263  13.690   7.610 -0.0994  0.0841 -0.0024
 1133ERGO    C215980   7.318  13.600   7.956  0.2894 -0.1262 -0.0803
 1134ERGO   ROH15981   8.854  12.172   6.561  0.1982  0.1714  0.0924
 1134ERGO    R115982   8.816  12.118   6.836 -0.0526  0.1156  0.0493
 1134ERGO    R215983   9.009  12.174   7.027 -0.1343 -0.1303  0.2070
 1134ERGO    R315984   8.805  12.311   7.144 -0.0905  0.0254  0.1055
 1134ERGO    R415985   9.000  12.270   7.359 -0.1844 -0.0445  0.1815
 1134ERGO    R515986   8.789  12.217   7.364 -0.2213  0.0870  0.1243
 1134ERGO    C115987   8.805  12.454   7.662 -0.1726  0.1515  0.0713
 1134ERGO    C215988   8.691  12.540   7.882  0.3567 -0.0366 -0.3113
 1135ERGO   ROH15989  13.832   7.786   6.437  0.2193  0.0253  0.0846
 1135ERGO    R115990  13.697   7.798   6.685  0.1855 -0.1070  0.0735
 1135ERGO    R215991  13.663   7.576   6.846  0.2547 -0.1743  0.0009
 1135ERGO    R315992  13.780   7.734   7.034  0.1724 -0.1853  0.0615
 1135ERGO    R415993  13.679   7.502   7.184  0.1533 -0.2099 -0.0019
 1135ERGO    R515994  13.638   7.713   7.226  0.1147 -0.2240  0.0113
 1135ERGO    C115995  13.797   7.608   7.556  0.0170 -0.2409  0.0534
 1135ERGO    C215996  13.757   7.695   7.884  0.1394 -0.1719  0.3394
 1136ERGO   ROH15997   9.963  11.553   6.626  0.1700 -0.1703  0.0471
 1136ERGO    R115998   9.868  11.533   6.892 -0.0647 -0.0119 -0.0230
 1136ERGO    R215999  10.011  11.408   7.092 -0.4198 -0.2515  0.0850
 1136ERGO    R316000   9.976  11.645   7.221 -0.1229 -0.1892  0.0594
 1136ERGO    R416001  10.086  11.465   7.425 -0.1218 -0.2442  0.0205
 1136ERGO    R516002   9.903  11.584   7.440 -0.0155 -0.0820  0.1303
 1136ERGO    C116003  10.096  11.721   7.739  0.3302 -0.1815 -0.0410
 1136ERGO    C216004  10.094  11.835   8.140  0.0487  0.1229  0.1307
 1137ERGO   ROH16005  12.697   2.087   6.934  0.1584  0.0251 -0.0790
 1137ERGO    R116006  12.742   2.288   7.128 -0.0805 -0.0206  0.0272
 1137ERGO    R216007  12.739   2.236   7.399  0.0619 -0.1872 -0.0017
 1137ERGO    R316008  12.985   2.352   7.391 -0.1002  0.1732  0.0002
 1137ERGO    R416009  12.946   2.277   7.672  0.2818 -0.5322 -0.1100
 1137ERGO    R516010  12.999   2.475   7.596 -0.0694 -0.2705  0.2781
 1137ERGO    C116011  13.298   2.410   7.824  0.2576 -0.3948 -0.1712
 1137ERGO    C216012  13.613   2.356   7.945 -0.1087  0.1794 -0.0484
 1138ERGO   ROH16013   8.767   4.736   6.690  0.2684 -0.2923 -0.1124
 1138ERGO    R116014   8.628   4.768   6.934  0.0844 -0.1765 -0.2301
 1138ERGO    R216015   8.472   4.568   7.044  0.1461 -0.1886 -0.1663
 1138ERGO    R316016   8.629   4.609   7.262 -0.0250  0.1013 -0.0918
 1138ERGO    R416017   8.419   4.426   7.355  0.2526 -0.2810 -0.1898
 1138ERGO    R516018   8.475   4.616   7.446 -0.1308 -0.1712 -0.1641
 1138ERGO    C116019   8.537   4.382   7.740  0.1540 -0.0626 -0.1334
 1138ERGO    C216020   8.552   4.165   7.939 -0.0856 -0.2120  0.0515
 1139ERGO   ROH16021   9.113   0.964   6.631 -0.1853  0.0409 -0.1368
 1139ERGO    R116022   9.155   1.071   6.890 -0.2118  0.0621 -0.1411
 1139ERGO    R216023   8.975   1.036   7.097 -0.0874 -0.1844 -0.0710
 1139ERGO    R316024   9.194   0.941   7.227  0.0858  0.0661 -0.1709
 1139ERGO    R416025   9.012   1.026   7.440  0.0529 -0.2005 -0.0862
 1139ERGO    R516026   9.220   1.087   7.415 -0.0287  0.0674 -0.1547
 1139ERGO    C116027   9.239   0.931   7.763  0.2972  0.0253 -0.1888
 1139ERGO    C216028   9.434   1.005   8.061  0.0403  0.0867 -0.1957
 1140ERGO   ROH16029  10.438  13.098   6.914 -0.0718 -0.0582 -0.0376
 1140ERGO    R116030  10.366  13.180   7.175 -0.0410 -0.0362 -0.0358
 1140ERGO    R216031  10.218  13.021   7.346 -0.1152  0.0199 -0.0434
 1140ERGO    R316032  10.427  13.065   7.515 -0.0964 -0.0771 -0.0405
 1140ERGO    R416033  10.190  13.060   7.688 -0.0929  0.0336 -0.0430
 1140ERGO    R516034  10.340  13.218   7.678 -0.0217 -0.0384 -0.0405
 1140ERGO    C116035  10.369  13.125   8.046 -0.0624 -0.0495 -0.0400
 1140ERGO    C216036  10.451  12.966   8.382 -0.0250  0.0420 -0.0641
 1141ERGO   ROH16037   7.995   0.261   6.246 -0.0680 -0.0070 -0.0070
 1141ERGO    R116038   8.146   0.327   6.477 -0.0966 -0.0745  0.0319
 1141ERGO    R216039   8.116   0.567   6.610  0.0727 -0.0003 -0.0557
 1141ERGO    R316040   8.076   0.405   6.825 -0.1653  0.1010 -0.0210
 1141ERGO    R416041   8.132   0.668   6.940  0.2252  0.0417 -0.0753
 1141ERGO    R516042   8.234   0.482   6.988 -0.0496 -0.0998 -0.0384
 1141ERGO    C116043   8.104   0.575   7.334  0.0907  0.1612 -0.0542
 1141ERGO    C216044   8.021   0.599   7.679  0.3466 -0.0135  0.0268
 1142ERGO   ROH16045  17.312  13.025   6.071 -0.0796  0.3757 -0.0008
 1142ERGO    R116046  17.366  12.963   6.342  0.0381  0.2937 -0.0425
 1142ERGO    R216047  17.497  13.138   6.511 -0.0361  0.3096 -0.0019
 1142ERGO    R316048  17.278  13.099   6.668  0.0335  0.0891  0.0435
 1142ERGO    R416049  17.486  13.194   6.852 -0.0390  0.3846 -0.0146
 1142ERGO    R516050  17.367  13.012   6.873  0.1761  0.2440  0.0513
 1142ERGO    C116051  17.274  13.190   7.197  0.0246  0.2213  0.0206
 1142ERGO    C216052  17.410  13.470   7.439 -0.1788  0.0236  0.0545
 1143ERGO   ROH16053  12.923  11.583   6.249  0.1713  0.0077  0.0228
 1143ERGO    R116054  12.952  11.722   6.494  0.0797  0.0429  0.0134
 1143ERGO    R216055  12.744  11.753   6.673  0.0657 -0.1030  0.0187
 1143ERGO    R316056  12.920  11.642   6.848  0.1558  0.0393  0.0205
 1143ERGO    R416057  12.738  11.798   7.016  0.0130 -0.1173  0.0205
 1143ERGO    R516058  12.955  11.812   7.013  0.0056  0.0676  0.0276
 1143ERGO    C116059  12.900  11.721   7.379  0.0670  0.0079  0.0230
 1143ERGO    C216060  12.943  11.716   7.710 -0.2311 -0.1176  0.0290
 1144ERGO   ROH16061  17.077   1.849   6.435  0.1707  0.0501 -0.1865
 1144ERGO    R116062  17.028   2.051   6.627  0.1858 -0.0323 -0.0958
 1144ERGO    R216063  16.812   2.042   6.800  0.1323 -0.0475 -0.1631
 1144ERGO    R316064  17.005   2.070   6.990  0.0876 -0.2130 -0.0912
 1144ERGO    R416065  16.765   2.183   7.112  0.1616  0.0949 -0.2218
 1144ERGO    R516066  16.958   2.281   7.093  0.2829 -0.1284 -0.1705
 1144ERGO    C116067  16.918   2.291   7.472  0.1369  0.0225 -0.1886
 1144ERGO    C216068  17.076   2.502   7.815  0.1123 -0.0774  0.1568
 1145ERGO   ROH16069   5.231   0.611   6.303 -0.1273 -0.3959  0.1253
 1145ERGO    R116070   5.254   0.501   6.563  0.0938 -0.3012  0.1490
 1145ERGO    R216071   5.466   0.558   6.731  0.0026  0.1370  0.1315
 1145ERGO    R316072   5.267   0.627   6.904 -0.1293 -0.1961  0.1194
 1145ERGO    R416073   5.476   0.511   7.074  0.0722  0.1943  0.1371
 1145ERGO    R516074   5.266   0.452   7.067  0.1758 -0.1804  0.1389
 1145ERGO    C116075   5.295   0.549   7.435 -0.0109 -0.0851  0.1291
 1145ERGO    C216076   5.293   0.515   7.825 -0.0772  0.0322  0.2441
 1146ERGO   ROH16077   1.110  11.387   6.519  0.1091 -0.0119 -0.0837
 1146ERGO    R116078   1.187  11.483   6.774  0.1884  0.1301 -0.1604
 1146ERGO    R216079   1.184  11.324   7.001  0.0018  0.3288 -0.0214
 1146ERGO    R316080   1.443  11.403   7.020  0.0855  0.0742 -0.0697
 1146ERGO    R416081   1.375  11.308   7.288  0.0096  0.2213 -0.0323
 1146ERGO    R516082   1.460  11.502   7.237  0.2019  0.1243 -0.0992
 1146ERGO    C116083   1.730  11.372   7.473  0.0927 -0.0804 -0.0838
 1146ERGO    C216084   1.900  11.344   7.692  0.1444 -0.3498  0.3299
 1147ERGO   ROH16085  14.728   6.825   6.169 -0.2383  0.1269 -0.0508
 1147ERGO    R116086  14.680   6.647   6.384  0.0032  0.0803 -0.0320
 1147ERGO    R216087  14.875   6.577   6.566  0.1011  0.3670 -0.0223
 1147ERGO    R316088  14.691   6.662   6.747 -0.0201  0.1351 -0.0334
 1147ERGO    R416089  14.761   6.391   6.835  0.1439  0.1344 -0.1623
 1147ERGO    R516090  14.561   6.467   6.796  0.1018  0.0134 -0.1848
 1147ERGO    C116091  14.522   6.363   7.161  0.0551 -0.2186 -0.2542
 1147ERGO    C216092  14.342   6.212   7.446 -0.5201  0.4941 -0.1506
 1148ERGO   ROH16093  14.690  16.930   7.990 -0.1152 -0.0156 -0.1377
 1148ERGO    R116094  14.579  17.031   8.230 -0.3000 -0.1481 -0.1646
 1148ERGO    R216095  14.424  16.876   8.399  0.0728 -0.4265 -0.0592
 1148ERGO    R316096  14.605  16.957   8.586 -0.0590  0.0723 -0.1339
 1148ERGO    R416097  14.353  16.929   8.733  0.0015 -0.2919 -0.0958
 1148ERGO    R516098  14.482  17.105   8.728 -0.3324 -0.0445 -0.2447
 1148ERGO    C116099  14.482  17.035   9.103 -0.1637  0.2548 -0.1873
 1148ERGO    C216100  14.298  17.043   9.406  0.1340  0.2190 -0.0999
 1149ERGO   ROH16101   8.575  10.294   6.889 -0.0031  0.0196 -0.0326
 1149ERGO    R116102   8.646  10.210   7.150  0.0062 -0.0810 -0.0680
 1149ERGO    R216103   8.703  10.388   7.353  0.1082 -0.1614 -0.0294
 1149ERGO    R316104   8.511  10.248   7.485  0.0764 -0.1235 -0.0340
 1149ERGO    R416105   8.634  10.417   7.691 -0.0047 -0.0223 -0.0631
 1149ERGO    R516106   8.608  10.201   7.699  0.0124 -0.0238  0.0198
 1149ERGO    C116107   8.414  10.304   8.011 -0.1004  0.0942 -0.0870
 1149ERGO    C216108   8.453  10.314   8.337  0.2687 -0.1697  0.4272
 1150ERGO   ROH16109  14.566  10.185   6.534 -0.1414  0.1147 -0.0760
 1150ERGO    R116110  14.357  10.181   6.725 -0.1009  0.0258 -0.0322
 1150ERGO    R216111  14.402  10.147   6.995 -0.0387 -0.0502 -0.0510
 1150ERGO    R316112  14.260  10.378   7.015 -0.0681 -0.0768  0.0485
 1150ERGO    R416113  14.249  10.261   7.283  0.0118 -0.1548  0.0173
 1150ERGO    R516114  14.079  10.324   7.163 -0.0256 -0.1451  0.0755
 1150ERGO    C116115  14.027  10.543   7.470  0.0135 -0.2406  0.1505
 1150ERGO    C216116  14.104  10.552   7.893  0.0774  0.1162  0.2088
 1151ERGO   ROH16117  13.406  12.562   6.128 -0.0899 -0.0550 -0.0199
 1151ERGO    R116118  13.318  12.502   6.391 -0.1921  0.0879 -0.0206
 1151ERGO    R216119  13.486  12.395   6.582 -0.3619 -0.1731 -0.0176
 1151ERGO    R316120  13.402  12.608   6.728 -0.0305 -0.0343 -0.0200
 1151ERGO    R416121  13.497  12.414   6.927 -0.3498 -0.2010 -0.0158
 1151ERGO    R516122  13.302  12.511   6.923 -0.2024  0.1174 -0.0270
 1151ERGO    C116123  13.425  12.626   7.265 -0.0315 -0.0868 -0.0168
 1151ERGO    C216124  13.669  12.644   7.592 -0.2268  0.2905  0.4111
 1152ERGO   ROH16125  10.168   2.645   6.510 -0.0393  0.0459 -0.0184
 1152ERGO    R116126  10.019   2.542   6.727  0.0046 -0.0222 -0.0202
 1152ERGO    R216127  10.082   2.302   6.850  0.0837 -0.0180 -0.0499
 1152ERGO    R316128  10.084   2.455   7.074  0.0524 -0.0407 -0.0340
 1152ERGO    R416129  10.097   2.180   7.173 -0.2748 -0.0623 -0.0452
 1152ERGO    R516130   9.953   2.331   7.232 -0.1824  0.0641 -0.1427
 1152ERGO    C116131  10.109   2.252   7.571 -0.5127 -0.1094 -0.0275
 1152ERGO    C216132  10.180   2.340   7.975  0.2118 -0.0385  0.2351
 1153ERGO   ROH16133  11.592   3.072   8.185  0.1918  0.1345  0.1549
 1153ERGO    R116134  11.792   2.877   8.142  0.1490  0.0974  0.1222
 1153ERGO    R216135  12.060   2.941   8.122  0.1668  0.0386  0.1613
 1153ERGO    R316136  12.085   2.755   8.319  0.1052 -0.0177  0.1164
 1153ERGO    R416137  12.361   2.819   8.242  0.1243 -0.1575  0.0715
 1153ERGO    R516138  12.271   2.620   8.251  0.0145 -0.1089  0.0485
 1153ERGO    C116139  12.559   2.573   8.497  0.0418 -0.3245 -0.0228
 1153ERGO    C216140  12.766   2.381   8.701 -0.1534  0.0732  0.0051
 1154ERGO   ROH16141   1.208  10.408   6.587 -0.0287  0.0262  0.0250
 1154ERGO    R116142   1.086  10.441   6.840 -0.0726  0.1076 -0.0060
 1154ERGO    R216143   1.040  10.230   7.011 -0.2298  0.1408 -0.0030
 1154ERGO    R316144   1.177  10.384   7.187 -0.1864  0.0768  0.0190
 1154ERGO    R416145   1.031  10.194   7.355 -0.1723  0.0414 -0.0118
 1154ERGO    R516146   1.028  10.411   7.373 -0.1507  0.0354  0.0528
 1154ERGO    C116147   1.155  10.318   7.720 -0.0981 -0.0765  0.0037
 1154ERGO    C216148   1.215  10.115   7.986  0.0915  0.2131 -0.0652
 1155ERGO   ROH16149  16.841  13.438   6.588 -0.0943  0.0609  0.0858
 1155ERGO    R116150  16.773  13.515   6.852 -0.0133 -0.0053  0.1249
 1155ERGO    R216151  16.837  13.362   7.073  0.1040 -0.0296  0.0663
 1155ERGO    R316152  16.952  13.593   7.159  0.0806 -0.0197  0.0763
 1155ERGO    R416153  16.912  13.434   7.402  0.2326 -0.1099  0.0561
 1155ERGO    R516154  16.845  13.638   7.368  0.1571 -0.1123  0.1426
 1155ERGO    C116155  17.065  13.692   7.675  0.2851 -0.1475  0.0596
 1155ERGO    C216156  17.320  13.560   7.954 -0.2371 -0.1326 -0.2089
 1156ERGO   ROH16157   8.476   1.958   6.281  0.1381 -0.1220  0.2161
 1156ERGO    R116158   8.600   1.928   6.534  0.2206  0.0756  0.2017
 1156ERGO    R216159   8.685   2.143   6.685 -0.0016  0.2104  0.1437
 1156ERGO    R316160   8.530   2.028   6.877  0.1631  0.0675  0.1906
 1156ERGO    R416161   8.710   2.206   7.024 -0.0535  0.3301  0.1257
 1156ERGO    R516162   8.679   1.994   7.061  0.2191  0.3044  0.1866
 1156ERGO    C116163   8.579   2.135   7.401  0.0706  0.2656  0.1593
 1156ERGO    C216164   8.600   2.307   7.731 -0.2773 -0.2014 -0.2278
 1157ERGO   ROH16165  16.758   7.730   6.951  0.1187 -0.1282  0.0579
 1157ERGO    R116166  16.723   7.872   7.194 -0.0541 -0.0961  0.0158
 1157ERGO    R216167  16.642   7.749   7.428 -0.1595 -0.0765 -0.0096
 1157ERGO    R316168  16.867   7.864   7.527 -0.2431 -0.0068  0.1014
 1157ERGO    R416169  16.733   7.750   7.761 -0.2447 -0.1888  0.0143
 1157ERGO    R516170  16.800   7.956   7.738 -0.3445 -0.1418  0.1292
 1157ERGO    C116171  16.997   7.858   8.049 -0.3730 -0.1887  0.1323
 1157ERGO    C216172  17.178   7.770   8.263 -0.0406  0.1267 -0.2753
 1158ERGO   ROH16173   2.252   1.761   6.458  0.0372  0.3562  0.0696
 1158ERGO    R116174   2.231   1.818   6.735 -0.2404  0.1522  0.0944
 1158ERGO    R216175   2.052   1.688   6.901 -0.2124 -0.1737 -0.1247
 1158ERGO    R316176   2.276   1.635   7.046 -0.2557  0.0006  0.0089
 1158ERGO    R416177   2.054   1.546   7.216 -0.2885 -0.1973 -0.1341
 1158ERGO    R516178   2.213   1.684   7.272 -0.4361 -0.0683 -0.0243
 1158ERGO    C116179   2.265   1.414   7.536 -0.3734 -0.0474 -0.0141
 1158ERGO    C216180   2.144   1.201   7.757 -0.3132 -0.0310 -0.0196
 1159ERGO   ROH16181   3.722  15.806   6.277 -0.0190  0.2098  0.1669
 1159ERGO    R116182   3.631  15.790   6.544  0.0112  0.0496  0.1673
 1159ERGO    R216183   3.475  15.582   6.636  0.1128 -0.0568  0.0851
 1159ERGO    R316184   3.670  15.560   6.823  0.1341 -0.0584  0.0643
 1159ERGO    R416185   3.440  15.419   6.939  0.1266 -0.0414  0.0958
 1159ERGO    R516186   3.555  15.580   7.032  0.1505 -0.0385  0.0769
 1159ERGO    C116187   3.603  15.304   7.291  0.1547 -0.0340  0.0825
 1159ERGO    C216188   3.543  15.158   7.550 -0.1629 -0.1510  0.1022
 1160ERGO   ROH16189   7.519  14.530   6.370  0.0500 -0.0474  0.0714
 1160ERGO    R116190   7.429  14.536   6.639 -0.0209 -0.0182  0.0482
 1160ERGO    R216191   7.495  14.739   6.813  0.0295 -0.0559  0.0764
 1160ERGO    R316192   7.225  14.756   6.845  0.0265  0.0705  0.0024
 1160ERGO    R416193   7.337  14.853   7.099  0.0071  0.0049  0.0381
 1160ERGO    R516194   7.188  14.695   7.074 -0.0638  0.0753 -0.0103
 1160ERGO    C116195   6.992  14.936   7.294 -0.0087  0.1589 -0.0538
 1160ERGO    C216196   6.932  15.014   7.606  0.1336  0.0638 -0.2666
 1161ERGO   ROH16197  15.072  16.068   6.604  0.1470 -0.0511 -0.0097
 1161ERGO    R116198  15.012  16.049   6.880  0.0796 -0.0497 -0.0245
 1161ERGO    R216199  15.063  15.821   7.028  0.0933 -0.0289  0.0007
 1161ERGO    R316200  15.197  15.995   7.188  0.0115  0.0103  0.0277
 1161ERGO    R416201  15.167  15.752   7.350  0.0336  0.0057  0.0279
 1161ERGO    R516202  15.109  15.954   7.407 -0.0314 -0.0063  0.0082
 1161ERGO    C116203  15.354  15.874   7.688 -0.0778  0.0624  0.0691
 1161ERGO    C216204  15.653  15.744   7.910  0.1051 -0.0389  0.0334
 1162ERGO   ROH16205  14.858   3.852   6.241  0.1282  0.2389  0.0190
 1162ERGO    R116206  14.980   3.822   6.494  0.0169  0.1052  0.0582
 1162ERGO    R216207  15.121   4.025   6.617  0.0497  0.0112  0.1776
 1162ERGO    R316208  14.950   3.975   6.823 -0.0539  0.0096  0.0990
 1162ERGO    R416209  15.146   4.164   6.933 -0.0417 -0.0591  0.2159
 1162ERGO    R516210  15.091   3.970   7.016 -0.1290 -0.0690  0.1568
 1162ERGO    C116211  15.000   4.197   7.309 -0.1922 -0.1015  0.1644
 1162ERGO    C216212  14.976   4.344   7.643  0.0747  0.1235 -0.0099
 1163ERGO   ROH16213  12.043   6.793   6.454  0.0772  0.0588 -0.1060
 1163ERGO    R116214  12.047   6.670   6.709  0.2337  0.0176 -0.1282
 1163ERGO    R216215  12.260   6.697   6.885  0.1068  0.4478 -0.0365
 1163ERGO    R316216  12.066   6.780   7.055 -0.1528 -0.0007 -0.0949
 1163ERGO    R416217  12.284   6.693   7.229 -0.0199  0.4028 -0.0272
 1163ERGO    R516218  12.077   6.627   7.239  0.0973 -0.0403 -0.1323
 1163ERGO    C116219  12.116   6.769   7.590 -0.3375 -0.0444 -0.0766
 1163ERGO    C216220  12.199   7.032   7.773  0.0355 -0.0313 -0.1244
 1164ERGO   ROH16221   2.760   5.234   6.956  0.0961  0.0690 -0.0195
 1164ERGO    R116222   2.636   5.260   7.210 -0.0435  0.0012 -0.0815
 1164ERGO    R216223   2.531   5.044   7.347  0.1482 -0.0767 -0.0725
 1164ERGO    R316224   2.693   5.132   7.546 -0.0442  0.1661 -0.0149
 1164ERGO    R416225   2.511   4.944   7.677  0.4320 -0.4527 -0.1615
 1164ERGO    R516226   2.550   5.150   7.737 -0.0898 -0.3834  0.0263
 1164ERGO    C116227   2.653   4.968   8.056  0.4167 -0.4437 -0.1592
 1164ERGO    C216228   2.758   4.770   8.411  0.1615  0.1358  0.1708
 1165ERGO   ROH16229  17.873  16.537   6.929 -0.1636 -0.1154 -0.0557
 1165ERGO    R116230  17.830  16.450   7.195 -0.1073 -0.2325 -0.0834
 1165ERGO    R216231  17.923  16.207   7.289  0.1409 -0.1632 -0.1339
 1165ERGO    R316232  18.036  16.362   7.482 -0.0488 -0.0876 -0.0815
 1165ERGO    R416233  17.928  16.131   7.626  0.1598 -0.2238 -0.1482
 1165ERGO    R516234  17.889  16.341   7.669 -0.0593 -0.2730 -0.1113
 1165ERGO    C116235  18.038  16.232   8.003 -0.0071 -0.1882 -0.1073
 1165ERGO    C216236  17.945  16.181   8.341  0.2504 -0.0875 -0.1581
 1166ERGO   ROH16237  13.810   2.153   6.782  0.0483  0.2780  0.1674
 1166ERGO    R116238  13.925   2.025   7.007 -0.0746  0.0940  0.1283
 1166ERGO    R216239  13.949   2.149   7.252  0.1301  0.0298  0.1466
 1166ERGO    R316240  13.816   1.929   7.341 -0.1429  0.1849  0.1312
 1166ERGO    R416241  13.929   2.050   7.583  0.3171 -0.1725  0.0989
 1166ERGO    R516242  13.954   1.843   7.517 -0.0947 -0.1703 -0.0744
 1166ERGO    C116243  13.793   1.785   7.858  0.1697 -0.1447  0.0567
 1166ERGO    C216244  13.634   1.909   8.195 -0.0337 -0.1584 -0.0977
 1167ERGO   ROH16245   3.403  14.392   6.328 -0.0817 -0.0477  0.0131
 1167ERGO    R116246   3.561  14.318   6.551 -0.0430  0.0363  0.0138
 1167ERGO    R216247   3.700  14.502   6.702 -0.0913  0.1029 -0.0242
 1167ERGO    R316248   3.564  14.388   6.908 -0.0401  0.0912  0.0034
 1167ERGO    R416249   3.825  14.460   7.022 -0.0274  0.1331 -0.0450
 1167ERGO    R516250   3.731  14.263   7.027  0.0002  0.1187 -0.0216
 1167ERGO    C116251   3.770  14.328   7.401  0.0579  0.1398 -0.0312
 1167ERGO    C216252   3.882  14.235   7.820  0.3074 -0.1514 -0.2653
 1168ERGO   ROH16253   1.142   9.320   6.746  0.1457  0.2052  0.0385
 1168ERGO    R116254   1.064   9.201   6.991  0.1120  0.0893 -0.0285
 1168ERGO    R216255   1.193   9.254   7.229  0.0012  0.0722  0.0328
 1168ERGO    R316256   0.943   9.318   7.314 -0.0598 -0.0728 -0.0325
 1168ERGO    R416257   1.075   9.208   7.551 -0.0409  0.0477  0.0149
 1168ERGO    R516258   0.885   9.142   7.466  0.0173 -0.0871 -0.0178
 1168ERGO    C116259   0.771   9.240   7.817 -0.1227 -0.1028 -0.0570
 1168ERGO    C216260   0.694   9.210   8.230 -0.3805  0.0953 -0.0755
 1169ERGO   ROH16261  10.594  12.753   6.597 -0.0323 -0.0545  0.0035
 1169ERGO    R116262  10.656  12.712   6.871 -0.0418 -0.0413  0.0071
 1169ERGO    R216263  10.907  12.760   6.975 -0.0504 -0.0251  0.0147
 1169ERGO    R316264  10.769  12.917   7.149 -0.0639 -0.0260  0.0057
 1169ERGO    R416265  10.967  12.779   7.315  0.0645  0.1257 -0.0125
 1169ERGO    R516266  10.752  12.786   7.348  0.0701  0.0353  0.0615
 1169ERGO    C116267  10.873  12.938   7.676  0.1186  0.2127 -0.0369
 1169ERGO    C216268  10.865  13.018   8.042  0.0111 -0.0463 -0.1775
 1170ERGO   ROH16269   3.539  17.891   6.428  0.1070 -0.1394 -0.1178
 1170ERGO    R116270   3.602  17.692   6.618  0.1572 -0.0388 -0.0275
 1170ERGO    R216271   3.761  17.742   6.840  0.1352  0.1043 -0.0391
 1170ERGO    R316272   3.549  17.640   6.975  0.1563  0.1030 -0.0076
 1170ERGO    R416273   3.774  17.611   7.159  0.1663  0.1412 -0.0252
 1170ERGO    R516274   3.638  17.454   7.095  0.1760  0.1259  0.0071
 1170ERGO    C116275   3.581  17.439   7.472  0.2042  0.1618  0.0124
 1170ERGO    C216276   3.598  17.428   7.780  0.2582  0.0163  0.0014
 1171ERGO   ROH16277  10.130  17.042   6.620  0.0765  0.0040 -0.0370
 1171ERGO    R116278  10.194  17.156   6.871 -0.0543  0.0561 -0.0260
 1171ERGO    R216279  10.082  17.067   7.108  0.0154 -0.0690 -0.0372
 1171ERGO    R316280  10.341  17.041   7.184  0.0384  0.1848 -0.0219
 1171ERGO    R416281  10.188  17.012   7.432  0.0453 -0.0643 -0.0466
 1171ERGO    R516282  10.352  17.150   7.396 -0.0996  0.1257  0.0156
 1171ERGO    C116283  10.494  16.955   7.692  0.0843  0.1770 -0.0377
 1171ERGO    C216284  10.781  16.671   7.866  0.2767  0.0823  0.1239
 1172ERGO   ROH16285  10.230   7.085   6.386 -0.0579  0.3428 -0.0824
 1172ERGO    R116286  10.271   7.200   6.641 -0.0305  0.2177 -0.0313
 1172ERGO    R216287  10.200   7.071   6.875 -0.0395  0.1202 -0.0916
 1172ERGO    R316288  10.460   7.116   6.941 -0.0302  0.0519 -0.0756
 1172ERGO    R416289  10.323   7.078   7.198 -0.0397 -0.0094 -0.0868
 1172ERGO    R516290  10.448   7.248   7.141 -0.0082 -0.0109 -0.0306
 1172ERGO    C116291  10.638   7.126   7.448 -0.0311 -0.1491 -0.0690
 1172ERGO    C216292  10.829   7.298   7.744  0.1320  0.1561 -0.2219
 1173ERGO   ROH16293   9.751  10.280   8.282 -0.1272  0.0199 -0.0528
 1173ERGO    R116294   9.741  10.203   8.554 -0.1122  0.0635 -0.0401
 1173ERGO    R216295   9.949  10.071   8.679 -0.2050 -0.1404 -0.0988
 1173ERGO    R316296   9.929  10.276   8.856  0.0731 -0.0964 -0.1145
 1173ERGO    R416297   9.936  10.035   9.023 -0.0875 -0.0853 -0.0879
 1173ERGO    R516298   9.786  10.193   9.029  0.0661  0.0636 -0.0398
 1173ERGO    C116299   9.910  10.207   9.389  0.2420 -0.0118 -0.0961
 1173ERGO    C216300   9.949  10.181   9.690  0.3814 -0.0837  0.0295
 1174ERGO   ROH16301   9.371   6.128   6.785  0.0431 -0.1847  0.0012
 1174ERGO    R116302   9.323   5.988   7.026 -0.0885 -0.0702  0.0447
 1174ERGO    R216303   9.526   5.874   7.176 -0.1918 -0.2640  0.0566
 1174ERGO    R316304   9.418   6.022   7.376 -0.0063 -0.0809  0.0208
 1174ERGO    R416305   9.558   5.803   7.512 -0.2096 -0.1570  0.0795
 1174ERGO    R516306   9.349   5.861   7.539 -0.1397  0.0602  0.0963
 1174ERGO    C116307   9.476   5.902   7.897 -0.0459  0.0772  0.0593
 1174ERGO    C216308   9.489   5.959   8.234  0.2245 -0.1457  0.0006
 1175ERGO   ROH16309  17.875   2.322   6.338  0.1182 -0.0582  0.1791
 1175ERGO    R116310  17.909   2.124   6.538 -0.0049 -0.0410  0.2165
 1175ERGO    R216311  18.061   2.166   6.765 -0.0256 -0.0731  0.2319
 1175ERGO    R316312  17.833   2.091   6.892 -0.0795  0.0479  0.2103
 1175ERGO    R416313  18.049   2.008   7.072 -0.1375  0.0068  0.2702
 1175ERGO    R516314  17.889   1.882   6.996 -0.1760  0.0488  0.2716
 1175ERGO    C116315  17.828   1.846   7.371 -0.2533  0.1670  0.2720
 1175ERGO    C216316  17.860   1.791   7.757 -0.0233  0.1889 -0.1346
 1176ERGO   ROH16317  15.595  12.707   6.578 -0.0155 -0.1149 -0.0364
 1176ERGO    R116318  15.644  12.779   6.847 -0.0681 -0.0051 -0.0555
 1176ERGO    R216319  15.562  13.020   6.954 -0.2559 -0.0379 -0.1180
 1176ERGO    R316320  15.443  12.861   7.139 -0.1307 -0.0839 -0.0763
 1176ERGO    R416321  15.478  13.119   7.274 -0.1489 -0.0850 -0.0750
 1176ERGO    R516322  15.545  12.925   7.346 -0.0620 -0.0689 -0.1156
 1176ERGO    C116323  15.317  13.026   7.635  0.0309 -0.1555 -0.0108
 1176ERGO    C216324  15.136  12.978   7.955 -0.2999 -0.2579  0.0257
 1177ERGO   ROH16325   1.663  17.978   6.587  0.0054  0.2139 -0.0550
 1177ERGO    R116326   1.667  18.134   6.823 -0.0741  0.0741  0.0398
 1177ERGO    R216327   1.574  18.040   7.065  0.1106 -0.1740  0.0156
 1177ERGO    R316328   1.821  18.112   7.152  0.0678  0.0326 -0.0279
 1177ERGO    R416329   1.644  18.168   7.379  0.0719 -0.2377  0.0507
 1177ERGO    R516330   1.783  18.307   7.285 -0.0893 -0.0582  0.0665
 1177ERGO    C116331   1.917  18.310   7.642  0.0091 -0.0809  0.0304
 1177ERGO    C216332   1.938  18.320   7.995 -0.0040  0.1742 -0.2962
 1178ERGO   ROH16333   6.784   8.181  10.506  0.0128  0.1528 -0.0220
 1178ERGO    R116334   6.794   8.039  10.261 -0.2236  0.2052 -0.0654
 1178ERGO    R216335   6.667   8.127  10.032 -0.0032  0.5424 -0.0679
 1178ERGO    R316336   6.914   8.103   9.924 -0.0192  0.0752 -0.0183
 1178ERGO    R416337   6.732   8.088   9.695 -0.0047  0.4326 -0.0554
 1178ERGO    R516338   6.887   7.944   9.747 -0.2847  0.1317 -0.0298
 1178ERGO    C116339   7.003   8.042   9.397 -0.0206 -0.0700 -0.0015
 1178ERGO    C216340   6.820   8.070   9.107 -0.0516 -0.0942 -0.0561
 1179ERGO   ROH16341  11.511   5.921   6.148 -0.1381 -0.0921  0.2135
 1179ERGO    R116342  11.436   6.003   6.409 -0.1933 -0.1000  0.2019
 1179ERGO    R216343  11.276   5.848   6.573 -0.1791 -0.1385  0.1934
 1179ERGO    R316344  11.481   5.879   6.748 -0.2028 -0.0783  0.2084
 1179ERGO    R416345  11.244   5.853   6.917 -0.1963 -0.0945  0.1902
 1179ERGO    R516346  11.390   6.013   6.924 -0.2315 -0.0747  0.1817
 1179ERGO    C116347  11.418   5.884   7.282 -0.2287 -0.0123  0.2024
 1179ERGO    C216348  11.427   5.846   7.606  0.0320 -0.1039  0.0407
 1180ERGO   ROH16349   3.190   4.261   6.610 -0.0532 -0.1544 -0.1318
 1180ERGO    R116350   3.303   4.300   6.866 -0.0670 -0.0116 -0.1454
 1180ERGO    R216351   3.181   4.452   7.062 -0.1443 -0.0081 -0.1872
 1180ERGO    R316352   3.211   4.226   7.210 -0.0251  0.0511 -0.1226
 1180ERGO    R416353   3.192   4.443   7.407 -0.0802  0.0899 -0.1873
 1180ERGO    R516354   3.350   4.294   7.393 -0.0257  0.1563 -0.1674
 1180ERGO    C116355   3.227   4.226   7.748  0.0690  0.2025 -0.1266
 1180ERGO    C216356   3.168   3.873   8.071 -0.5587 -0.1142 -0.0268
 1181ERGO   ROH16357   1.704   4.001   6.665 -0.3401 -0.1457  0.1800
 1181ERGO    R116358   1.801   3.846   6.882 -0.0646 -0.0799  0.1086
 1181ERGO    R216359   1.909   3.960   7.109 -0.1217  0.0040  0.0965
 1181ERGO    R316360   1.722   3.809   7.235  0.1104 -0.2634  0.1292
 1181ERGO    R416361   1.874   3.936   7.452 -0.0823  0.0155  0.1013
 1181ERGO    R516362   1.836   3.723   7.428  0.2469 -0.0514  0.1450
 1181ERGO    C116363   1.678   3.779   7.770  0.1587 -0.2287  0.1347
 1181ERGO    C216364   1.792   3.712   8.123  0.1603 -0.0917 -0.1548
 1182ERGO   ROH16365   7.899   8.018   7.068  0.1040 -0.0294 -0.0147
 1182ERGO    R116366   8.004   8.129   7.306  0.0504  0.1674 -0.0809
 1182ERGO    R216367   7.849   8.270   7.485 -0.1177 -0.1612  0.0384
 1182ERGO    R316368   7.948   8.090   7.663  0.3805  0.0172 -0.0412
 1182ERGO    R416369   7.871   8.321   7.827 -0.3403 -0.2727  0.0709
 1182ERGO    R516370   8.066   8.223   7.824 -0.0347  0.2907  0.0538
 1182ERGO    C116371   7.976   8.181   8.192 -0.0021 -0.1702  0.0151
 1182ERGO    C216372   7.928   8.295   8.489 -0.1748 -0.3079 -0.0408
 1183ERGO   ROH16373   6.559   2.247   6.165  0.0533  0.0292 -0.0226
 1183ERGO    R116374   6.681   2.159   6.404 -0.0782  0.0425  0.0514
 1183ERGO    R216375   6.614   2.262   6.652 -0.1626  0.1121  0.0060
 1183ERGO    R316376   6.573   2.000   6.714 -0.2654  0.1350  0.0331
 1183ERGO    R416377   6.595   2.136   6.973  0.1573  0.0881  0.0178
 1183ERGO    R516378   6.710   1.964   6.907 -0.0479  0.0174 -0.1452
 1183ERGO    C116379   6.546   1.818   7.218  0.2472  0.0956  0.0502
 1183ERGO    C216380   6.304   1.668   7.533 -0.1584  0.1054 -0.0927
 1184ERGO   ROH16381   6.241  11.420   8.052 -0.0876  0.0728  0.2083
 1184ERGO    R116382   6.497  11.349   8.148 -0.0301  0.0516  0.0418
 1184ERGO    R216383   6.547  11.107   8.273 -0.0134  0.1260  0.1818
 1184ERGO    R316384   6.740  11.085   8.082 -0.1841 -0.0885  0.0287
 1184ERGO    R416385   6.867  10.990   8.328  0.0500  0.2259  0.0340
 1184ERGO    R516386   6.942  11.145   8.195 -0.0839  0.0721 -0.2282
 1184ERGO    C116387   7.235  10.901   8.181 -0.0732  0.0827 -0.1956
 1184ERGO    C216388   7.412  10.587   8.281  0.2852 -0.0747  0.0124
 1185ERGO   ROH16389   5.344   3.839   6.677 -0.3180  0.5315  0.1847
 1185ERGO    R116390   5.516   3.765   6.890 -0.2503  0.3449  0.0689
 1185ERGO    R216391   5.680   3.946   7.018 -0.1556  0.2203  0.1305
 1185ERGO    R316392   5.554   3.854   7.241 -0.0919  0.0979  0.1158
 1185ERGO    R416393   5.829   3.908   7.328 -0.1252  0.2496  0.1192
 1185ERGO    R516394   5.720   3.720   7.352 -0.0081  0.1783  0.0852
 1185ERGO    C116395   5.797   3.798   7.717 -0.0477  0.1519  0.0989
 1185ERGO    C216396   6.051   3.881   8.003 -0.2166  0.1420 -0.0574
 1186ERGO   ROH16397  12.003   3.250   6.289  0.2785  0.0178 -0.1399
 1186ERGO    R116398  11.986   3.387   6.536  0.1357 -0.0050 -0.1363
 1186ERGO    R216399  11.869   3.275   6.761  0.1794 -0.1020 -0.1613
 1186ERGO    R316400  12.108   3.336   6.875  0.1169  0.0694 -0.1182
 1186ERGO    R416401  11.920   3.327   7.099  0.1332 -0.3479 -0.1147
 1186ERGO    R516402  12.054   3.491   7.049 -0.0546 -0.1467  0.0260
 1186ERGO    C116403  12.174   3.414   7.402  0.0476 -0.3302 -0.0471
 1186ERGO    C216404  12.145   3.539   7.791 -0.0135  0.1580 -0.1509
 1187ERGO   ROH16405   8.878  17.972   6.311 -0.0310  0.0519  0.1585
 1187ERGO    R116406   9.020  17.896   6.543 -0.0392 -0.0443  0.1333
 1187ERGO    R216407   9.142  18.079   6.710  0.0795 -0.1206  0.1375
 1187ERGO    R316408   8.994  17.955   6.901  0.0369 -0.0627  0.1410
 1187ERGO    R416409   9.209  18.091   7.048  0.0462 -0.0902  0.1424
 1187ERGO    R516410   9.156  17.879   7.061  0.0019 -0.0741  0.1672
 1187ERGO    C116411   9.110  17.981   7.425 -0.0135 -0.0181  0.1487
 1187ERGO    C216412   9.308  18.012   7.641 -0.0468 -0.1577 -0.2745
 1188ERGO   ROH16413   5.535   1.489   6.430  0.0354 -0.0246 -0.1281
 1188ERGO    R116414   5.470   1.610   6.678 -0.0445 -0.0114 -0.1549
 1188ERGO    R216415   5.269   1.516   6.842 -0.0316 -0.0631 -0.1675
 1188ERGO    R316416   5.468   1.512   7.028 -0.0545  0.0400 -0.1407
 1188ERGO    R416417   5.233   1.612   7.172 -0.1288 -0.0934 -0.1693
 1188ERGO    R516418   5.428   1.707   7.161 -0.1795  0.0144 -0.1395
 1188ERGO    C116419   5.398   1.664   7.539 -0.2069 -0.0142 -0.1452
 1188ERGO    C216420   5.381   1.694   7.826  0.0280 -0.0673  0.3233
 1189ERGO   ROH16421   5.098  12.595   6.206  0.1612 -0.0809 -0.1067
 1189ERGO    R116422   5.166  12.592   6.480  0.0820 -0.0320 -0.0877
 1189ERGO    R216423   4.977  12.607   6.681  0.0392  0.1545 -0.1509
 1189ERGO    R316424   5.096  12.379   6.767 -0.1291  0.1083 -0.0304
 1189ERGO    R416425   5.019  12.521   7.013  0.2890  0.4845 -0.0908
 1189ERGO    R516426   5.218  12.447   6.962  0.1607  0.1986 -0.2295
 1189ERGO    C116427   5.156  12.257   7.287  0.2765  0.6333  0.0573
 1189ERGO    C216428   5.079  12.313   7.563  0.1543  0.0818  0.2382
 1190ERGO   ROH16429   3.574   4.650   6.849 -0.0703  0.0974 -0.1367
 1190ERGO    R116430   3.664   4.741   7.102  0.0342  0.0039 -0.1386
 1190ERGO    R216431   3.491   4.800   7.309  0.1027  0.1436 -0.1164
 1190ERGO    R316432   3.647   4.625   7.446 -0.0365 -0.0046 -0.1456
 1190ERGO    R416433   3.443   4.708   7.639  0.0088  0.0924 -0.1446
 1190ERGO    R516434   3.659   4.716   7.667  0.0101 -0.0711 -0.1226
 1190ERGO    C116435   3.562   4.490   7.959 -0.1766 -0.0765 -0.1883
 1190ERGO    C216436   3.440   4.279   8.186  0.1810  0.1503  0.0156
 1191ERGO   ROH16437   4.708   0.804   8.456  0.1488  0.1421 -0.0226
 1191ERGO    R116438   4.988   0.776   8.485  0.1580  0.0460 -0.1778
 1191ERGO    R216439   5.139   0.611   8.322  0.0258  0.0376 -0.3059
 1191ERGO    R316440   5.282   0.838   8.281  0.0659  0.0079 -0.3202
 1191ERGO    R416441   5.481   0.623   8.276  0.0568  0.0069 -0.0861
 1191ERGO    R516442   5.487   0.802   8.400 -0.0159  0.0606 -0.1722
 1191ERGO    C116443   5.815   0.843   8.211  0.1125 -0.0390  0.0283
 1191ERGO    C216444   6.102   0.971   8.080 -0.2381 -0.1196 -0.0099
 1192ERGO   ROH16445   0.570  17.034   6.786 -0.0942  0.0347  0.0739
 1192ERGO    R116446   0.549  16.965   7.060 -0.1537  0.0344  0.0689
 1192ERGO    R216447   0.737  16.809   7.189 -0.2430 -0.0617  0.0796
 1192ERGO    R316448   0.745  17.019   7.362 -0.1564 -0.0734  0.0908
 1192ERGO    R416449   0.909  16.811   7.489 -0.0277 -0.0581 -0.0411
 1192ERGO    R516450   0.741  16.917   7.579  0.0155 -0.0934  0.0880
 1192ERGO    C116451   1.017  17.008   7.826  0.1790 -0.0668 -0.1010
 1192ERGO    C216452   1.340  17.046   7.977  0.2765 -0.0305 -0.0605
 1193ERGO   ROH16453   7.951  15.820   6.276  0.1239  0.1815  0.0294
 1193ERGO    R116454   7.903  15.674   6.514  0.0373  0.1230 -0.0242
 1193ERGO    R216455   8.107  15.590   6.681 -0.0306  0.1848  0.0811
 1193ERGO    R316456   7.964  15.722   6.870 -0.2034  0.0906  0.0263
 1193ERGO    R416457   8.112  15.517   7.019 -0.0992  0.1867  0.0831
 1193ERGO    R516458   7.897  15.552   7.024 -0.1387  0.0329  0.0015
 1193ERGO    C116459   7.979  15.599   7.393 -0.3015  0.0995  0.0327
 1193ERGO    C216460   8.222  15.625   7.686  0.1164 -0.1095 -0.2162
 1194ERGO   ROH16461  17.447  17.780   6.631 -0.1361 -0.0942  0.1506
 1194ERGO    R116462  17.364  17.751   6.900 -0.0702 -0.1911  0.1633
 1194ERGO    R216463  17.389  17.513   7.039  0.0519 -0.2241  0.1096
 1194ERGO    R316464  17.522  17.669   7.217  0.0324 -0.2069  0.1040
 1194ERGO    R416465  17.492  17.413   7.354 -0.0784 -0.1290  0.1811
 1194ERGO    R516466  17.434  17.608   7.430 -0.0456 -0.0999  0.0914
 1194ERGO    C116467  17.677  17.502   7.704 -0.1723 -0.0578  0.2174
 1194ERGO    C216468  17.959  17.407   7.863 -0.2405  0.0578  0.2131
 1195ERGO   ROH16469  12.022  12.267   6.256 -0.0059  0.3036  0.1129
 1195ERGO    R116470  12.017  12.391   6.510 -0.1100  0.1278  0.1989
 1195ERGO    R216471  11.798  12.379   6.677 -0.1285 -0.1162  0.1635
 1195ERGO    R316472  11.979  12.284   6.856 -0.0921 -0.1362  0.1220
 1195ERGO    R416473  11.781  12.425   7.020 -0.1164 -0.2361  0.1809
 1195ERGO    R516474  11.997  12.457   7.021 -0.1206 -0.1857  0.1789
 1195ERGO    C116475  11.942  12.362   7.386 -0.0751 -0.3246  0.1522
 1195ERGO    C216476  11.870  12.226   7.716 -0.1993  0.0898  0.2124
 1196ERGO   ROH16477  13.632   3.519   6.655 -0.0675 -0.2638 -0.0896
 1196ERGO    R116478  13.641   3.352   6.883 -0.0500 -0.1461 -0.0035
 1196ERGO    R216479  13.834   3.156   6.916 -0.0764 -0.1588  0.0606
 1196ERGO    R316480  13.877   3.284   7.151 -0.0089 -0.0439 -0.0127
 1196ERGO    R416481  14.007   3.023   7.183  0.1154  0.0197  0.0282
 1196ERGO    R516482  13.860   3.112   7.317  0.1451  0.0137  0.0677
 1196ERGO    C116483  14.149   3.065   7.560  0.2903  0.2316 -0.0595
 1196ERGO    C216484  14.405   2.821   7.875  0.4136  0.0077  0.2300
 1197ERGO   ROH16485   7.199   5.179   6.596  0.1167  0.0553  0.0899
 1197ERGO    R116486   7.075   5.008   6.784  0.0935  0.0337  0.0578
 1197ERGO    R216487   7.210   4.802   6.910  0.0817  0.0130  0.0552
 1197ERGO    R316488   7.120   4.924   7.136  0.0575 -0.0018  0.0516
 1197ERGO    R416489   7.198   4.654   7.222 -0.0147 -0.0136  0.0378
 1197ERGO    R516490   7.005   4.751   7.255  0.0033  0.0134  0.0092
 1197ERGO    C116491   7.108   4.683   7.616 -0.0933 -0.0431  0.0243
 1197ERGO    C216492   7.376   4.711   7.860 -0.2854 -0.2442 -0.0934
 1198ERGO   ROH16493   9.529   7.623   6.898 -0.2592 -0.2731 -0.0285
 1198ERGO    R116494   9.366   7.462   7.064 -0.1052 -0.2501  0.1493
 1198ERGO    R216495   9.464   7.329   7.286  0.0480 -0.0026  0.2388
 1198ERGO    R316496   9.264   7.462   7.414 -0.0075 -0.0287  0.1782
 1198ERGO    R416497   9.303   7.218   7.571  0.0429  0.0345  0.2500
 1198ERGO    R516498   9.115   7.290   7.487  0.0350 -0.0475  0.2095
 1198ERGO    C116499   9.021   7.278   7.856 -0.0123  0.0316  0.1995
 1198ERGO    C216500   9.045   7.289   8.208  0.0450 -0.0648  0.2701
 1199ERGO   ROH16501  12.564   5.795   6.253 -0.0288  0.3030  0.2054
 1199ERGO    R116502  12.481   5.828   6.522 -0.1221  0.1802  0.1932
 1199ERGO    R216503  12.236   5.739   6.614 -0.0642 -0.0662  0.1239
 1199ERGO    R316504  12.389   5.611   6.799  0.0173  0.0439  0.1337
 1199ERGO    R416505  12.126   5.642   6.927 -0.0165 -0.1601  0.1112
 1199ERGO    R516506  12.319   5.704   7.009 -0.0716 -0.0163  0.1298
 1199ERGO    C116507  12.206   5.464   7.283  0.0877 -0.1115  0.1130
 1199ERGO    C216508  12.100   5.281   7.580 -0.0092 -0.1980 -0.4329
 1200ERGO   ROH16509   8.737   8.279   6.715  0.0902  0.0379 -0.2143
 1200ERGO    R116510   8.889   8.218   6.946 -0.1047 -0.0594 -0.1096
 1200ERGO    R216511   9.052   8.403   7.070  0.0413 -0.2016 -0.0869
 1200ERGO    R316512   8.906   8.335   7.290 -0.1590  0.0390 -0.1398
 1200ERGO    R416513   9.067   8.566   7.374  0.2041 -0.2251 -0.0810
 1200ERGO    R516514   9.056   8.372   7.473 -0.1603 -0.2143 -0.0841
 1200ERGO    C116515   8.939   8.597   7.758  0.1108 -0.0130 -0.1272
 1200ERGO    C216516   8.679   8.684   8.011 -0.1824 -0.0387 -0.1453
 1201ERGO   ROH16517   5.716  14.963   6.203 -0.1617  0.1355  0.0987
 1201ERGO    R116518   5.770  15.159   6.400  0.0634  0.0342  0.1421
 1201ERGO    R216519   5.572  15.319   6.508  0.2614  0.3326  0.0812
 1201ERGO    R316520   5.668  15.222   6.744  0.0203  0.1509  0.1075
 1201ERGO    R416521   5.525  15.468   6.817  0.2280  0.2696  0.1060
 1201ERGO    R516522   5.731  15.418   6.867  0.1464  0.0416  0.2154
 1201ERGO    C116523   5.586  15.463   7.217 -0.0178  0.0623  0.1451
 1201ERGO    C216524   5.569  15.501   7.517  0.2268 -0.2084  0.1748
 1202ERGO   ROH16525   8.924  12.639   6.498 -0.1561  0.0100 -0.1475
 1202ERGO    R116526   8.882  12.596   6.775 -0.0334 -0.0693 -0.1400
 1202ERGO    R216527   9.084  12.618   6.961  0.0052  0.0919 -0.1967
 1202ERGO    R316528   8.911  12.791   7.080 -0.1220 -0.0831 -0.1231
 1202ERGO    R416529   9.098  12.714   7.293  0.0746  0.1432 -0.2144
 1202ERGO    R516530   8.881  12.702   7.301  0.0909 -0.0936 -0.0972
 1202ERGO    C116531   8.944  12.932   7.598 -0.0043  0.0088 -0.1556
 1202ERGO    C216532   9.103  12.994   7.923 -0.1654  0.1815 -0.2657
 1203ERGO   ROH16533   4.196   0.939   6.236 -0.0833 -0.2258 -0.1117
 1203ERGO    R116534   4.272   1.066   6.478 -0.0886 -0.1201 -0.1645
 1203ERGO    R216535   4.089   1.141   6.670 -0.0959 -0.0187 -0.2074
 1203ERGO    R316536   4.248   0.993   6.833 -0.1150  0.0430 -0.1328
 1203ERGO    R416537   4.057   1.123   7.014 -0.2676 -0.0586 -0.2247
 1203ERGO    R516538   4.274   1.128   7.029 -0.2796  0.0392 -0.1086
 1203ERGO    C116539   4.188   0.973   7.367 -0.3857 -0.0240 -0.1647
 1203ERGO    C216540   3.994   0.741   7.594  0.2189  0.2701 -0.3382
 1204ERGO   ROH16541   0.645  16.288   6.053 -0.2028 -0.2410 -0.1552
 1204ERGO    R116542   0.603  16.298   6.333 -0.2174 -0.2034 -0.1582
 1204ERGO    R216543   0.508  16.082   6.477 -0.1066 -0.2259 -0.1132
 1204ERGO    R316544   0.731  16.125   6.626 -0.1325 -0.0722 -0.1183
 1204ERGO    R416545   0.564  15.950   6.792 -0.0818 -0.0373 -0.0373
 1204ERGO    R516546   0.650  16.141   6.851 -0.1509  0.0214 -0.1334
 1204ERGO    C116547   0.806  15.913   7.115 -0.0916  0.2169  0.0022
 1204ERGO    C216548   0.724  15.691   7.390  0.2029 -0.0328  0.1800
 1205ERGO   ROH16549  11.927  14.108   6.406 -0.0710  0.0386  0.0555
 1205ERGO    R116550  11.752  14.230   6.592 -0.0056  0.0982  0.0786
 1205ERGO    R216551  11.597  14.084   6.768 -0.1100  0.1466  0.0275
 1205ERGO    R316552  11.717  14.241   6.954 -0.0210  0.0184  0.0799
 1205ERGO    R416553  11.446  14.198   7.057 -0.0557  0.1577  0.0515
 1205ERGO    R516554  11.544  14.391   7.027  0.0671  0.1064  0.1123
 1205ERGO    C116555  11.471  14.413   7.400  0.0594  0.0438  0.1146
 1205ERGO    C216556  11.263  14.314   7.607 -0.1661 -0.2517  0.1196
 1206ERGO   ROH16557   3.966   8.337  10.627  0.1699 -0.1031 -0.0025
 1206ERGO    R116558   3.934   8.169  10.402  0.0053 -0.1238  0.0336
 1206ERGO    R216559   3.752   8.222  10.201  0.0294 -0.0082  0.0377
 1206ERGO    R316560   3.971   8.202  10.041  0.0001 -0.2263  0.0242
 1206ERGO    R416561   3.745   8.225   9.855  0.0149  0.0263  0.0390
 1206ERGO    R516562   3.897   8.069   9.856 -0.1495 -0.1339  0.0177
 1206ERGO    C116563   3.947   8.207   9.504 -0.0211 -0.1585  0.0270
 1206ERGO    C216564   3.929   8.252   9.197 -0.0600 -0.0587  0.2197
 1207ERGO   ROH16565   8.089  17.444   6.649 -0.1098  0.1273  0.1904
 1207ERGO    R116566   8.152  17.525   6.913  0.1689  0.0928  0.1378
 1207ERGO    R216567   8.022  17.423   7.135  0.0383  0.4386  0.2238
 1207ERGO    R316568   8.275  17.366   7.216 -0.0373 -0.0651  0.1428
 1207ERGO    R416569   8.124  17.399   7.464  0.1794  0.7454  0.2057
 1207ERGO    R516570   8.308  17.502   7.410  0.4249  0.2021 -0.0992
 1207ERGO    C116571   8.420  17.332   7.732  0.1905  0.4511  0.1192
 1207ERGO    C216572   8.708  17.184   7.828 -0.0812 -0.4922 -0.1097
 1208ERGO   ROH16573   5.546  12.963  10.333  0.0084  0.1442 -0.0957
 1208ERGO    R116574   5.624  12.815  10.105 -0.0448  0.0647 -0.0625
 1208ERGO    R216575   5.454  12.773   9.890 -0.0372  0.1363 -0.0812
 1208ERGO    R316576   5.660  12.879   9.748  0.0495 -0.0083 -0.0669
 1208ERGO    R416577   5.465  12.795   9.546 -0.0216  0.1714 -0.0785
 1208ERGO    R516578   5.676  12.740   9.554 -0.0624  0.0015 -0.0853
 1208ERGO    C116579   5.665  12.908   9.212  0.0687  0.0562 -0.0636
 1208ERGO    C216580   5.635  12.863   8.824 -0.0432 -0.2513 -0.0067
 1209ERGO   ROH16581  13.421  13.516   6.245 -0.1953 -0.0040 -0.1006
 1209ERGO    R116582  13.295  13.503   6.498 -0.0036 -0.0461 -0.0032
 1209ERGO    R216583  13.436  13.463   6.733  0.2154  0.1968 -0.0768
 1209ERGO    R316584  13.310  13.691   6.810  0.0203  0.0939 -0.0901
 1209ERGO    R416585  13.328  13.530   7.054  0.1614  0.1395 -0.0842
 1209ERGO    R516586  13.147  13.617   6.969  0.0885 -0.0249 -0.0830
 1209ERGO    C116587  13.146  13.782   7.313 -0.0531  0.0093 -0.1012
 1209ERGO    C216588  13.297  14.102   7.517  0.4593 -0.0433 -0.1316
 1210ERGO   ROH16589   4.269  13.067   6.315 -0.2528  0.2074  0.0452
 1210ERGO    R116590   4.102  12.962   6.518 -0.1102 -0.0371  0.0406
 1210ERGO    R216591   4.185  12.762   6.691  0.1448  0.0164 -0.0106
 1210ERGO    R316592   4.109  12.940   6.882 -0.0448 -0.1107  0.0343
 1210ERGO    R416593   4.093  12.679   7.014  0.0488 -0.1716 -0.0852
 1210ERGO    R516594   3.935  12.828   7.002 -0.0316 -0.2617 -0.0895
 1210ERGO    C116595   3.968  12.798   7.380 -0.1852 -0.4003 -0.0865
 1210ERGO    C216596   3.824  12.731   7.659  0.1007  0.2263 -0.3229
 1211ERGO   ROH16597  16.506   3.654   6.451  0.1138  0.0254  0.0044
 1211ERGO    R116598  16.394   3.709   6.705  0.0819  0.0198 -0.0088
 1211ERGO    R216599  16.293   3.511   6.870  0.0158  0.0235 -0.0490
 1211ERGO    R316600  16.466   3.618   7.051  0.0044 -0.0307 -0.0049
 1211ERGO    R416601  16.218   3.572   7.202  0.0052 -0.1275 -0.0225
 1211ERGO    R516602  16.328   3.760   7.187 -0.0168 -0.1043  0.0553
 1211ERGO    C116603  16.336   3.708   7.565 -0.0117 -0.2664  0.0343
 1211ERGO    C216604  16.271   3.969   7.731  0.2994  0.0901  0.1431
 1212ERGO   ROH16605   0.392   4.068   6.644  0.0184 -0.2191  0.0282
 1212ERGO    R116606   0.316   3.955   6.892 -0.1085 -0.2247 -0.0124
 1212ERGO    R216607   0.353   4.086   7.133 -0.0409 -0.3154  0.0263
 1212ERGO    R316608   0.087   4.040   7.162 -0.0846 -0.1138 -0.0251
 1212ERGO    R416609   0.186   4.082   7.435 -0.0571 -0.3861  0.0164
 1212ERGO    R516610   0.071   3.911   7.363 -0.1996 -0.2450 -0.1132
 1212ERGO    C116611  -0.162   4.036   7.638 -0.1075 -0.2380 -0.0377
 1212ERGO    C216612  -0.056   3.967   8.040  0.3233  0.0659  0.1758
 1213ERGO   ROH16613  17.733  12.244   6.445 -0.2300 -0.2290  0.2179
 1213ERGO    R116614  17.709  12.186   6.721  0.1745 -0.2644  0.2523
 1213ERGO    R216615  17.928  12.165   6.889  0.4001  0.2563  0.0430
 1213ERGO    R316616  17.792  12.351   7.034  0.1057 -0.0349  0.1520
 1213ERGO    R416617  17.911  12.173   7.234  0.4257  0.0547  0.0494
 1213ERGO    R516618  17.701  12.228   7.218  0.3267 -0.2824  0.1025
 1213ERGO    C116619  17.774  12.351   7.571  0.1640 -0.3359  0.1555
 1213ERGO    C216620  17.748  12.296   7.927  0.1138 -0.0467 -0.1660
 1214ERGO   ROH16621   0.665   8.349   6.359 -0.1611  0.0947  0.0775
 1214ERGO    R116622   0.653   8.398   6.638 -0.2282 -0.1198  0.1137
 1214ERGO    R216623   0.515   8.612   6.745 -0.0643 -0.0714  0.2275
 1214ERGO    R316624   0.393   8.418   6.892 -0.3158 -0.0737  0.0221
 1214ERGO    R416625   0.368   8.661   7.054  0.2215 -0.2461  0.3956
 1214ERGO    R516626   0.451   8.469   7.118 -0.0715 -0.4980  0.0682
 1214ERGO    C116627   0.168   8.507   7.372  0.1519 -0.3500  0.3006
 1214ERGO    C216628   0.055   8.587   7.641 -0.1483 -0.0889  0.1178
 1215ERGO   ROH16629  10.191   5.702   6.497  0.0750 -0.0623 -0.1174
 1215ERGO    R116630  10.208   5.603   6.761  0.1491 -0.1529 -0.1545
 1215ERGO    R216631  10.446   5.518   6.873  0.2295  0.0320 -0.1665
 1215ERGO    R316632  10.381   5.696   7.067  0.0350 -0.1035 -0.1064
 1215ERGO    R416633  10.631   5.574   7.160  0.0724  0.0246 -0.0643
 1215ERGO    R516634  10.444   5.587   7.271  0.0230 -0.1518 -0.1336
 1215ERGO    C116635  10.677   5.773   7.510 -0.2015 -0.1068  0.0515
 1215ERGO    C216636  10.944   5.985   7.528  0.1231  0.2113  0.0271
 1216ERGO   ROH16637  10.871   5.253   7.900  0.0088 -0.0876  0.0410
 1216ERGO    R116638  10.745   5.011   7.974  0.0574 -0.0866  0.1287
 1216ERGO    R216639  10.706   4.803   7.796 -0.1698 -0.0412  0.1242
 1216ERGO    R316640  10.835   4.658   7.986  0.0244 -0.1025 -0.0510
 1216ERGO    R416641  10.620   4.482   7.891 -0.1465 -0.0298  0.1841
 1216ERGO    R516642  10.660   4.538   8.098  0.1233 -0.0677  0.1469
 1216ERGO    C116643  10.692   4.159   8.125  0.0493 -0.0806  0.0544
 1216ERGO    C216644  10.784   3.900   8.290 -0.2402  0.3460 -0.2717
 1217ERGO   ROH16645   8.339   6.267   6.565  0.1471 -0.0411 -0.0208
 1217ERGO    R116646   8.122   6.246   6.746  0.1493 -0.1194 -0.0266
 1217ERGO    R216647   8.128   6.080   6.966  0.2637 -0.0069  0.0582
 1217ERGO    R316648   8.067   6.308   7.100  0.0768  0.0150 -0.0608
 1217ERGO    R416649   8.155   6.120   7.308  0.0897  0.1490  0.0547
 1217ERGO    R516650   7.967   6.232   7.304  0.0289  0.0438 -0.0740
 1217ERGO    C116651   8.113   6.358   7.633 -0.1870  0.2604 -0.0591
 1217ERGO    C216652   8.259   6.537   7.871 -0.0388 -0.2352  0.0692
 1218ERGO   ROH16653  11.130   2.839   6.437  0.0418 -0.0602 -0.0090
 1218ERGO    R116654  11.076   2.640   6.630  0.1597 -0.0525  0.0331
 1218ERGO    R216655  11.245   2.587   6.841  0.1734  0.1180  0.0666
 1218ERGO    R316656  11.021   2.627   6.989  0.1265 -0.0028  0.0296
 1218ERGO    R416657  11.230   2.561   7.185  0.0831 -0.0765  0.0489
 1218ERGO    R516658  11.035   2.463   7.164  0.1058 -0.0973 -0.0576
 1218ERGO    C116659  11.010   2.583   7.525 -0.0134 -0.3030  0.0038
 1218ERGO    C216660  10.940   2.440   7.926 -0.2003  0.0536  0.0894
 1219ERGO   ROH16661  14.783   9.625  10.403  0.0934  0.0138  0.0392
 1219ERGO    R116662  14.827   9.482  10.163 -0.1287 -0.0407  0.0289
 1219ERGO    R216663  14.621   9.408   9.993 -0.2409  0.3844 -0.0289
 1219ERGO    R316664  14.770   9.539   9.808  0.0610  0.1247  0.0225
 1219ERGO    R416665  14.626   9.335   9.656 -0.0751  0.2244  0.0067
 1219ERGO    R516666  14.841   9.367   9.656 -0.0288 -0.0341  0.1538
 1219ERGO    C116667  14.769   9.414   9.285  0.3051 -0.1125  0.0757
 1219ERGO    C216668  14.581   9.400   8.927 -0.2164 -0.1958 -0.2136
 1220ERGO   ROH16669   5.192  10.105   6.213 -0.2190 -0.3181  0.0903
 1220ERGO    R116670   5.258  10.162   6.483 -0.1339 -0.1952  0.0461
 1220ERGO    R216671   5.375  10.400   6.560 -0.1100 -0.1493 -0.0944
 1220ERGO    R316672   5.164  10.412   6.730 -0.0631 -0.0840 -0.0429
 1220ERGO    R416673   5.367  10.585   6.852 -0.0578 -0.0301 -0.1688
 1220ERGO    R516674   5.263  10.419   6.948 -0.0202  0.0155 -0.0738
 1220ERGO    C116675   5.164  10.704   7.182  0.0168  0.1007 -0.1637
 1220ERGO    C216676   5.216  10.977   7.414  0.3141 -0.3460  0.0771
 1221ERGO   ROH16677   3.131   6.999   6.880 -0.1922  0.1378 -0.1949
 1221ERGO    R116678   3.148   7.178   7.098 -0.1857  0.1187 -0.1810
 1221ERGO    R216679   3.014   7.135   7.336  0.0069 -0.0202 -0.1010
 1221ERGO    R316680   3.262   7.164   7.443  0.0562  0.1598 -0.2559
 1221ERGO    R416681   3.081   7.174   7.673  0.1942 -0.2454 -0.1095
 1221ERGO    R516682   3.233   7.321   7.621 -0.0008 -0.0244 -0.0933
 1221ERGO    C116683   3.353   7.223   7.970  0.3496 -0.2075 -0.2598
 1221ERGO    C216684   3.604   7.084   8.396  0.1236 -0.4253 -0.2135
 1222ERGO   ROH16685  11.025   3.972   6.357  0.0887 -0.3094  0.0319
 1222ERGO    R116686  11.101   4.219   6.473 -0.0663 -0.2062 -0.0838
 1222ERGO    R216687  10.929   4.368   6.630 -0.0676 -0.3867  0.0900
 1222ERGO    R316688  11.134   4.354   6.809  0.1543 -0.1307 -0.1344
 1222ERGO    R416689  11.000   4.609   6.868 -0.2481 -0.3985  0.1577
 1222ERGO    R516690  11.213   4.580   6.826 -0.2305  0.0070 -0.0874
 1222ERGO    C116691  11.233   4.736   7.174 -0.1446 -0.1650 -0.0135
 1222ERGO    C216692  11.198   4.921   7.400  0.1882  0.0071  0.1271
 1223ERGO   ROH16693  15.847  15.558   6.409  0.2528  0.1387  0.0179
 1223ERGO    R116694  15.783  15.369   6.611 -0.0973  0.2186 -0.0129
 1223ERGO    R216695  15.977  15.228   6.749 -0.3538 -0.2345 -0.1019
 1223ERGO    R316696  15.849  15.331   6.967 -0.0791 -0.0120 -0.0388
 1223ERGO    R416697  16.031  15.129   7.076 -0.2625 -0.2280 -0.1142
 1223ERGO    R516698  15.816  15.143   7.111 -0.2287  0.0601  0.0271
 1223ERGO    C116699  15.943  15.167   7.470  0.0487 -0.0153 -0.0621
 1223ERGO    C216700  15.980  15.340   7.741  0.5012  0.2684  0.1091
 1224ERGO   ROH16701  10.221   3.641   6.622 -0.2041  0.1530 -0.0072
 1224ERGO    R116702  10.280   3.516   6.870 -0.2388  0.1377 -0.0062
 1224ERGO    R216703  10.531   3.418   6.931 -0.2880 -0.0147 -0.0410
 1224ERGO    R316704  10.505   3.577   7.150 -0.1506  0.0226 -0.0509
 1224ERGO    R416705  10.678   3.358   7.238 -0.1640 -0.0085 -0.0988
 1224ERGO    R516706  10.494   3.424   7.334 -0.1054  0.0503 -0.0247
 1224ERGO    C116707  10.739   3.472   7.622  0.0372  0.0302 -0.1418
 1224ERGO    C216708  11.063   3.378   7.745  0.0776  0.0451  0.1267
 1225ERGO   ROH16709  14.520   0.040   6.558 -0.1622 -0.1412 -0.0356
 1225ERGO    R116710  14.602  -0.124   6.774 -0.0133 -0.0450 -0.0168
 1225ERGO    R216711  14.633  -0.027   7.031 -0.0868  0.0148 -0.0240
 1225ERGO    R316712  14.463  -0.230   7.093  0.0859 -0.1223 -0.0018
 1225ERGO    R416713  14.630  -0.196   7.332 -0.0764  0.1678  0.0616
 1225ERGO    R516714  14.596  -0.381   7.222  0.1657  0.0790  0.1471
 1225ERGO    C116715  14.468  -0.485   7.566  0.0919  0.1283  0.1323
 1225ERGO    C216716  14.375  -0.505   7.910  0.0769 -0.0095  0.1954
 1226ERGO   ROH16717  10.522  14.193   6.348 -0.4162  0.0681 -0.0162
 1226ERGO    R116718  10.615  14.364   6.554 -0.2248 -0.0379 -0.0123
 1226ERGO    R216719  10.524  14.623   6.584 -0.0778  0.0010  0.1092
 1226ERGO    R316720  10.469  14.540   6.837  0.0071 -0.0441  0.1130
 1226ERGO    R416721  10.451  14.832   6.850 -0.0698 -0.0511  0.1525
 1226ERGO    R516722  10.573  14.704   6.977 -0.0034 -0.0330  0.1072
 1226ERGO    C116723  10.358  14.876   7.242  0.0147 -0.1238  0.1813
 1226ERGO    C216724  10.329  15.110   7.447 -0.0350 -0.2940  0.0882
 1227ERGO   ROH16725  15.412   3.114   6.513  0.0212 -0.2395 -0.0193
 1227ERGO    R116726  15.340   3.226   6.763 -0.1713 -0.1185 -0.1269
 1227ERGO    R216727  15.134   3.125   6.917 -0.0829 -0.2471 -0.0898
 1227ERGO    R316728  15.325   3.114   7.109 -0.1058  0.1497 -0.0351
 1227ERGO    R416729  15.089   2.988   7.231  0.0834 -0.2542 -0.0687
 1227ERGO    R516730  15.207   3.153   7.314 -0.2348 -0.0150 -0.0765
 1227ERGO    C116731  15.244   2.898   7.595  0.1587  0.1142 -0.0051
 1227ERGO    C216732  15.245   2.836   7.957  0.0539  0.2259  0.0981
 1228ERGO   ROH16733   9.105  13.738   6.490 -0.1118  0.0266  0.0769
 1228ERGO    R116734   9.057  13.681   6.763 -0.1857  0.1333  0.0859
 1228ERGO    R216735   9.245  13.727   6.960 -0.1233 -0.0829  0.0739
 1228ERGO    R316736   9.044  13.870   7.073  0.0634  0.2019  0.0583
 1228ERGO    R416737   9.241  13.838   7.287 -0.0022 -0.1141  0.0868
 1228ERGO    R516738   9.030  13.786   7.297 -0.0881  0.1907  0.0495
 1228ERGO    C116739   9.050  14.037   7.584  0.2435  0.1349  0.0797
 1228ERGO    C216740   9.049  14.071   7.872 -0.2178 -0.2807 -0.2418
 1229ERGO   ROH16741   1.123   8.247   6.640 -0.3075 -0.0925 -0.2067
 1229ERGO    R116742   1.084   8.249   6.921 -0.2459  0.0284 -0.1970
 1229ERGO    R216743   0.833   8.261   7.037 -0.2301  0.0179 -0.1423
 1229ERGO    R316744   0.919   8.038   7.166 -0.1387  0.0983 -0.0669
 1229ERGO    R416745   0.719   8.154   7.345 -0.2207  0.0320 -0.1356
 1229ERGO    R516746   0.923   8.101   7.397 -0.2096  0.1531 -0.0867
 1229ERGO    C116747   0.732   7.883   7.646 -0.1294  0.1157 -0.0609
 1229ERGO    C216748   0.595   7.907   8.027  0.0165 -0.0053  0.0955
 1230ERGO   ROH16749   1.430   2.402   6.552 -0.2329  0.1278  0.0158
 1230ERGO    R116750   1.525   2.470   6.810 -0.0331  0.0068 -0.0246
 1230ERGO    R216751   1.355   2.532   7.020  0.1319  0.0069  0.1075
 1230ERGO    R316752   1.494   2.335   7.147  0.1397 -0.0884 -0.0450
 1230ERGO    R416753   1.433   2.529   7.357  0.4239 -0.0887  0.0431
 1230ERGO    R516754   1.629   2.451   7.306  0.3413 -0.1853 -0.1413
 1230ERGO    C116755   1.609   2.344   7.672  0.6013 -0.2338 -0.1376
 1230ERGO    C216756   1.524   2.342   8.140  0.0761  0.0119  0.2058
 1231ERGO   ROH16757   6.073   9.041   6.667 -0.1924  0.0707 -0.2152
 1231ERGO    R116758   5.900   8.867   6.809 -0.0772  0.0409 -0.1103
 1231ERGO    R216759   5.938   8.805   7.076 -0.0054  0.1874 -0.0872
 1231ERGO    R316760   5.682   8.892   7.099 -0.0519  0.0549 -0.0918
 1231ERGO    R416761   5.736   8.749   7.350  0.0602  0.1844 -0.0386
 1231ERGO    R516762   5.569   8.714   7.214  0.0613  0.0361 -0.0055
 1231ERGO    C116763   5.377   8.799   7.532  0.0548  0.0582 -0.0147
 1231ERGO    C216764   5.131   8.919   7.740 -0.3537 -0.1086  0.1044
 1232ERGO   ROH16765  14.681   8.476   6.477  0.0614 -0.0161  0.0584
 1232ERGO    R116766  14.519   8.380   6.688 -0.0987  0.3101  0.0890
 1232ERGO    R216767  14.604   8.183   6.863 -0.4825  0.0914  0.0303
 1232ERGO    R316768  14.539   8.368   7.052 -0.0233  0.2137  0.0844
 1232ERGO    R416769  14.550   8.113   7.197 -0.4765  0.1482  0.0443
 1232ERGO    R516770  14.383   8.254   7.194 -0.2027  0.5007  0.1365
 1232ERGO    C116771  14.456   8.245   7.568 -0.0419  0.2961  0.1033
 1232ERGO    C216772  14.616   8.293   7.919 -0.1107  0.2687 -0.0229
 1233ERGO   ROH16773   7.635   2.954   6.197  0.2874 -0.2288  0.0738
 1233ERGO    R116774   7.647   2.900   6.475  0.1337 -0.1022  0.1047
 1233ERGO    R216775   7.667   3.100   6.663 -0.1627 -0.0106  0.0317
 1233ERGO    R316776   7.447   2.979   6.768 -0.1388 -0.1421 -0.0634
 1233ERGO    R416777   7.587   3.094   7.000 -0.3864  0.1155 -0.0154
 1233ERGO    R516778   7.524   2.886   6.976 -0.1941  0.0367  0.0484
 1233ERGO    C116779   7.335   2.977   7.294 -0.4942  0.0653 -0.1321
 1233ERGO    C216780   7.247   2.935   7.664 -0.0078  0.1794  0.1454
 1234ERGO   ROH16781  17.230   5.100   6.915 -0.2116  0.0160 -0.0383
 1234ERGO    R116782  17.289   5.208   7.170 -0.1344 -0.0949 -0.0083
 1234ERGO    R216783  17.196   5.455   7.252  0.0091 -0.0655  0.0738
 1234ERGO    R316784  17.100   5.313   7.463 -0.0580 -0.0783  0.0345
 1234ERGO    R416785  17.122   5.587   7.563 -0.1326 -0.0813  0.0474
 1234ERGO    R516786  17.208   5.409   7.654 -0.1484 -0.0695  0.0793
 1234ERGO    C116787  16.989   5.531   7.942 -0.2783 -0.1024 -0.0048
 1234ERGO    C216788  16.842   5.633   8.287  0.1850  0.2166  0.0986
 1235ERGO   ROH16789  16.987   8.780   6.387 -0.1738  0.1173  0.0475
 1235ERGO    R116790  16.966   8.776   6.669 -0.3296  0.1440  0.0359
 1235ERGO    R216791  17.186   8.792   6.835 -0.3854 -0.2572  0.1553
 1235ERGO    R316792  17.049   9.000   6.944 -0.0712 -0.0138  0.0864
 1235ERGO    R416793  17.183   8.872   7.171 -0.1682 -0.0458  0.1111
 1235ERGO    R516794  16.971   8.916   7.154 -0.1102  0.2221  0.1635
 1235ERGO    C116795  17.053   9.115   7.469  0.2531  0.3057  0.0206
 1235ERGO    C216796  17.225   9.399   7.637  0.1225 -0.0279  0.0955
 1236ERGO   ROH16797   6.158  17.928   6.463 -0.1879  0.2386  0.1369
 1236ERGO    R116798   6.055  17.897   6.725 -0.1942  0.1081  0.1195
 1236ERGO    R216799   6.050  17.654   6.855 -0.1716  0.0481  0.0087
 1236ERGO    R316800   6.182  17.791   7.049 -0.1944 -0.0248  0.0767
 1236ERGO    R416801   6.045  17.575   7.192 -0.1678 -0.1101 -0.0273
 1236ERGO    R516802   6.033  17.788   7.236 -0.1978 -0.1327  0.0727
 1236ERGO    C116803   6.166  17.658   7.570 -0.1871 -0.2708  0.0157
 1236ERGO    C216804   6.229  17.735   7.936  0.2065  0.3116  0.0715
 1237ERGO   ROH16805  13.287  11.340   6.369 -0.0187 -0.1075  0.1014
 1237ERGO    R116806  13.212  11.388   6.638 -0.0576  0.2820  0.0274
 1237ERGO    R216807  13.285  11.219   6.845 -0.5963  0.2392  0.1932
 1237ERGO    R316808  13.383  11.448   6.953 -0.0753  0.0845  0.0774
 1237ERGO    R416809  13.334  11.275   7.182 -0.3816  0.2648  0.1598
 1237ERGO    R516810  13.260  11.477   7.155  0.0347  0.4231  0.1048
 1237ERGO    C116811  13.455  11.522   7.480  0.2325  0.1346  0.0318
 1237ERGO    C216812  13.509  11.683   7.839  0.0249 -0.3139  0.1492
 1238ERGO   ROH16813   7.182  16.711   6.365 -0.0912 -0.0994 -0.0137
 1238ERGO    R116814   7.330  16.571   6.561 -0.0242 -0.0737 -0.0474
 1238ERGO    R216815   7.561  16.672   6.675 -0.0887  0.0182 -0.0142
 1238ERGO    R316816   7.428  16.627   6.907 -0.0661 -0.1200 -0.0257
 1238ERGO    R416817   7.707  16.667   6.988 -0.1071  0.2171  0.0004
 1238ERGO    R516818   7.581  16.497   7.039  0.0810  0.0646 -0.0001
 1238ERGO    C116819   7.667  16.621   7.389 -0.0966  0.2027 -0.0021
 1238ERGO    C216820   7.763  16.467   7.762  0.1132  0.1377 -0.1115
 1239ERGO   ROH16821   7.072  17.817   6.513  0.1476  0.0797  0.0639
 1239ERGO    R116822   7.167  17.949   6.745 -0.0290  0.2249  0.0553
 1239ERGO    R216823   7.016  17.971   6.975 -0.0225 -0.0609  0.0906
 1239ERGO    R316824   7.235  17.859   7.091  0.2053  0.3053  0.0319
 1239ERGO    R416825   7.075  17.959   7.316 -0.2025 -0.4555  0.1134
 1239ERGO    R516826   7.285  18.003   7.276 -0.2751  0.1509  0.2991
 1239ERGO    C116827   7.314  17.847   7.623 -0.0935 -0.3412  0.0716
 1239ERGO    C216828   7.391  17.952   7.857  0.3395  0.0687  0.2258
 1240ERGO   ROH16829   8.748  17.215   8.362  0.0329  0.2672  0.0420
 1240ERGO    R116830   8.682  17.304   8.623 -0.0748  0.1198  0.0670
 1240ERGO    R216831   8.486  17.184   8.777 -0.0221 -0.0767 -0.0137
 1240ERGO    R316832   8.687  17.164   8.959 -0.0392 -0.0117  0.0120
 1240ERGO    R416833   8.442  17.141   9.117 -0.0503 -0.1300 -0.0241
 1240ERGO    R516834   8.605  17.281   9.151 -0.1135 -0.0658  0.0127
 1240ERGO    C116835   8.605  17.098   9.486 -0.0829 -0.1001 -0.0063
 1240ERGO    C216836   8.600  17.106   9.807 -0.1181 -0.0590 -0.2838
 1241ERGO   ROH16837  14.775  11.200   6.707 -0.0848  0.1720  0.0978
 1241ERGO    R116838  14.889  11.240   6.963 -0.2391 -0.0157  0.1981
 1241ERGO    R216839  14.835  11.075   7.178  0.0096 -0.4748 -0.0786
 1241ERGO    R316840  15.106  11.054   7.189  0.0579  0.0311 -0.0411
 1241ERGO    R416841  15.018  11.015   7.465  0.0500 -0.4702 -0.1025
 1241ERGO    R516842  15.166  11.159   7.395 -0.1985 -0.0941  0.1032
 1241ERGO    C116843  15.378  10.960   7.642  0.1189  0.0075 -0.0814
 1241ERGO    C216844  15.699  10.993   7.830 -0.2210  0.0103 -0.1494
 1242ERGO   ROH16845   0.781  13.719   6.318 -0.0006 -0.0371 -0.1528
 1242ERGO    R116846   0.739  13.757   6.595 -0.1234 -0.1501 -0.1555
 1242ERGO    R216847   0.855  13.965   6.736  0.0871 -0.4003  0.0455
 1242ERGO    R316848   0.598  14.016   6.808  0.1093 -0.0758 -0.0868
 1242ERGO    R416849   0.756  14.074   7.048  0.0652 -0.2889  0.0008
 1242ERGO    R516850   0.584  13.941   7.035 -0.1033 -0.0730 -0.0949
 1242ERGO    C116851   0.457  14.186   7.298  0.0731  0.0807 -0.1495
 1242ERGO    C216852   0.441  14.322   7.638  0.0215  0.1439  0.2229
 1243ERGO   ROH16853  13.166   2.739  10.227 -0.0989  0.0868  0.0476
 1243ERGO    R116854  13.186   2.682   9.950 -0.1885 -0.1888  0.0944
 1243ERGO    R216855  12.971   2.596   9.800 -0.3651  0.1333  0.1501
 1243ERGO    R316856  13.036   2.808   9.643  0.0997 -0.1239 -0.0218
 1243ERGO    R416857  12.867   2.637   9.473 -0.4218  0.1826  0.1740
 1243ERGO    R516858  13.067   2.712   9.425 -0.2450 -0.3498  0.0232
 1243ERGO    C116859  12.869   2.860   9.135 -0.0184 -0.0302  0.0266
 1243ERGO    C216860  12.823   2.836   8.873 -0.0644 -0.3697  0.0223
 1244ERGO   ROH16861  13.580  14.750   6.551 -0.0900 -0.0318 -0.1694
 1244ERGO    R116862  13.773  14.742   6.758 -0.0989  0.0024 -0.1604
 1244ERGO    R216863  13.715  14.653   7.013 -0.1058  0.0321 -0.1537
 1244ERGO    R316864  13.925  14.487   6.968 -0.0955  0.0357 -0.1214
 1244ERGO    R416865  13.942  14.552   7.254 -0.1131  0.0779 -0.1268
 1244ERGO    R516866  14.101  14.575   7.106 -0.1061  0.0654 -0.1241
 1244ERGO    C116867  14.271  14.338   7.352 -0.1078  0.1081 -0.0808
 1244ERGO    C216868  14.409  14.219   7.575 -0.2983 -0.6052  0.0536
 1245ERGO   ROH16869  12.768   0.886   6.460  0.0971 -0.1016 -0.0014
 1245ERGO    R116870  12.717   0.971   6.725 -0.0415 -0.0891 -0.0306
 1245ERGO    R216871  12.480   0.914   6.856 -0.0530 -0.2121 -0.0972
 1245ERGO    R316872  12.647   0.811   7.044 -0.0494 -0.0812 -0.0290
 1245ERGO    R416873  12.396   0.861   7.187 -0.0270  0.0677 -0.0441
 1245ERGO    R516874  12.594   0.933   7.244 -0.0134  0.0875 -0.1218
 1245ERGO    C116875  12.503   0.734   7.556 -0.0085  0.3535  0.0508
 1245ERGO    C216876  12.441   0.543   7.881 -0.1286  0.2163 -0.2551
 1246ERGO   ROH16877  13.963   9.011   6.394  0.0196 -0.1089  0.0894
 1246ERGO    R116878  14.017   9.183   6.612  0.1322 -0.0309  0.0011
 1246ERGO    R216879  13.865   9.183   6.843  0.1084  0.2140 -0.0127
 1246ERGO    R316880  14.105   9.144   6.963  0.0674  0.0913  0.0313
 1246ERGO    R416881  13.910   9.137   7.182  0.0194  0.1516 -0.0090
 1246ERGO    R516882  14.087   9.263   7.171  0.0787  0.0740  0.0422
 1246ERGO    C116883  14.162   9.073   7.493 -0.0710  0.0000  0.0344
 1246ERGO    C216884  14.106   9.003   7.847 -0.1459 -0.0626  0.0542
 1247ERGO   ROH16885  17.983  14.342   6.128 -0.0125 -0.0477 -0.0061
 1247ERGO    R116886  17.961  14.557   6.311 -0.0699 -0.0807  0.0259
 1247ERGO    R216887  17.730  14.608   6.454 -0.0736 -0.1828  0.0569
 1247ERGO    R316888  17.898  14.595   6.667 -0.0467 -0.1527  0.0379
 1247ERGO    R416889  17.656  14.724   6.771 -0.0154 -0.0967  0.0395
 1247ERGO    R516890  17.860  14.800   6.785 -0.0038 -0.1193 -0.0062
 1247ERGO    C116891  17.771  14.780   7.155  0.0438 -0.0183  0.0114
 1247ERGO    C216892  17.696  14.810   7.440  0.0260 -0.2573  0.1149
 1248ERGO   ROH16893   4.415   8.641   6.792 -0.0093  0.1110 -0.1411
 1248ERGO    R116894   4.358   8.708   7.061 -0.1870  0.1713 -0.1915
 1248ERGO    R216895   4.556   8.736   7.253 -0.3337 -0.1374  0.0174
 1248ERGO    R316896   4.442   8.980   7.289 -0.0144  0.0332 -0.0889
 1248ERGO    R416897   4.600   8.936   7.531 -0.2121 -0.1479  0.0054
 1248ERGO    R516898   4.389   8.987   7.522 -0.1373  0.1479 -0.1214
 1248ERGO    C116899   4.519   9.281   7.727  0.1584  0.0061 -0.1014
 1248ERGO    C216900   4.467   9.433   8.079  0.0313  0.1021 -0.3595
 1249ERGO   ROH16901   7.454   6.936   6.656  0.2118  0.1039 -0.1119
 1249ERGO    R116902   7.560   7.066   6.883  0.0766  0.0194  0.0010
 1249ERGO    R216903   7.402   7.202   7.065 -0.0389 -0.1105 -0.0033
 1249ERGO    R316904   7.524   7.039   7.245 -0.0786 -0.1670 -0.0264
 1249ERGO    R416905   7.428   7.266   7.403  0.2338 -0.0186 -0.0388
 1249ERGO    R516906   7.632   7.189   7.397  0.1609 -0.2140 -0.1430
 1249ERGO    C116907   7.558   7.150   7.769  0.3554 -0.0180 -0.0812
 1249ERGO    C216908   7.493   7.356   8.058  0.1545 -0.0841 -0.0087
 1250ERGO   ROH16909  10.283   1.009   6.562  0.1903 -0.4241 -0.1274
 1250ERGO    R116910  10.279   1.093   6.833  0.0249 -0.2375 -0.1867
 1250ERGO    R216911  10.125   0.968   7.025  0.0955 -0.2580 -0.1503
 1250ERGO    R316912  10.363   0.948   7.156  0.0776  0.0741 -0.0559
 1250ERGO    R416913  10.159   0.922   7.366  0.0151 -0.4074 -0.1600
 1250ERGO    R516914  10.325   1.063   7.363 -0.2201 -0.1095  0.0013
 1250ERGO    C116915  10.401   0.878   7.687 -0.0484 -0.1826 -0.0770
 1250ERGO    C216916  10.361   0.960   8.027 -0.3064  0.0106 -0.0391
 1251ERGO   ROH16917   9.422   2.678   6.571 -0.1535 -0.2702 -0.0049
 1251ERGO    R116918   9.537   2.810   6.793  0.0032 -0.1665 -0.1458
 1251ERGO    R216919   9.411   2.825   7.039  0.0927  0.1063 -0.1168
 1251ERGO    R316920   9.644   2.719   7.128  0.0555  0.0307 -0.1066
 1251ERGO    R416921   9.479   2.748   7.369  0.0778  0.1659 -0.0993
 1251ERGO    R516922   9.681   2.825   7.340  0.1124  0.0749 -0.1350
 1251ERGO    C116923   9.738   2.604   7.645  0.0341  0.1297 -0.0796
 1251ERGO    C216924   9.536   2.392   7.876 -0.4762  0.0064 -0.0455
 1252ERGO   ROH16925  17.516   0.632   6.631 -0.0191 -0.0114 -0.0541
 1252ERGO    R116926  17.531   0.810   6.850  0.0415  0.0146 -0.0778
 1252ERGO    R216927  17.330   0.830   7.040  0.0116  0.1642 -0.1191
 1252ERGO    R316928  17.534   0.783   7.213 -0.0509  0.0663 -0.0736
 1252ERGO    R416929  17.350   0.956   7.361  0.0228  0.1896 -0.1308
 1252ERGO    R516930  17.563   0.990   7.330  0.0472  0.0614 -0.0924
 1252ERGO    C116931  17.553   0.985   7.711 -0.0293  0.1126 -0.0950
 1252ERGO    C216932  17.393   1.091   8.032  0.0345 -0.0858 -0.1119
 1253ERGO   ROH16933   3.383   9.657   6.671 -0.3500 -0.1104  0.1505
 1253ERGO    R116934   3.217   9.692   6.898 -0.2833  0.0671  0.1764
 1253ERGO    R216935   3.318   9.711   7.155 -0.2170  0.0483  0.1666
 1253ERGO    R316936   3.176   9.943   7.159 -0.0343  0.1600  0.1237
 1253ERGO    R416937   3.201   9.867   7.440 -0.2660  0.1116  0.1096
 1253ERGO    R516938   3.016   9.912   7.334 -0.1585  0.2743  0.0181
 1253ERGO    C116939   2.999  10.174   7.610 -0.1230  0.2534  0.0362
 1253ERGO    C216940   2.970  10.371   7.959 -0.0673  0.0097 -0.0083
 1254ERGO   ROH16941  12.505   7.672   6.378 -0.1284 -0.1355  0.0154
 1254ERGO    R116942  12.599   7.762   6.629 -0.0591 -0.0255 -0.0484
 1254ERGO    R216943  12.453   7.730   6.862 -0.0306  0.1431 -0.0025
 1254ERGO    R316944  12.681   7.611   6.950 -0.0502  0.1225  0.0184
 1254ERGO    R416945  12.506   7.620   7.185 -0.0264  0.2235  0.0241
 1254ERGO    R516946  12.710   7.695   7.172 -0.0158  0.1769 -0.0099
 1254ERGO    C116947  12.751   7.444   7.456 -0.0421  0.2509  0.0592
 1254ERGO    C216948  12.972   7.247   7.622  0.2393 -0.1104 -0.4800
 1255ERGO   ROH16949   7.881  10.839   6.831 -0.0051 -0.0832  0.0618
 1255ERGO    R116950   7.814  10.969   7.073 -0.0689 -0.2667  0.1445
 1255ERGO    R216951   7.904  10.881   7.320  0.2460 -0.1921  0.0605
 1255ERGO    R316952   7.994  11.137   7.342 -0.1705 -0.0385  0.0728
 1255ERGO    R416953   7.948  11.051   7.618  0.1714 -0.2091  0.0816
 1255ERGO    R516954   7.868  11.229   7.523 -0.2033 -0.3092  0.1935
 1255ERGO    C116955   8.058  11.390   7.812 -0.2630 -0.0750  0.1056
 1255ERGO    C216956   8.165  11.628   7.993 -0.0734 -0.0921 -0.1166
 1256ERGO   ROH16957  15.769  14.226   6.265 -0.0646 -0.2125 -0.1398
 1256ERGO    R116958  15.760  14.338   6.525 -0.1450  0.0365 -0.2447
 1256ERGO    R216959  15.522  14.384   6.659 -0.1859 -0.0467 -0.2656
 1256ERGO    R316960  15.641  14.235   6.853 -0.0262  0.2419 -0.1383
 1256ERGO    R416961  15.393  14.330   6.975 -0.1511  0.0038 -0.2445
 1256ERGO    R516962  15.593  14.352   7.056 -0.1994  0.3159 -0.2298
 1256ERGO    C116963  15.429  14.159   7.341  0.0191  0.3042 -0.1127
 1256ERGO    C216964  15.246  13.937   7.582 -0.1376  0.2628  0.1852
 1257ERGO   ROH16965   4.162  10.307   7.977  0.0459 -0.1036 -0.0136
 1257ERGO    R116966   3.947  10.223   8.141  0.0928 -0.1445  0.0276
 1257ERGO    R216967   3.954   9.988   8.287  0.1938 -0.1086  0.0829
 1257ERGO    R316968   3.896  10.153   8.495  0.1540 -0.0801  0.0491
 1257ERGO    R416969   3.886   9.884   8.609  0.3075 -0.0531  0.1251
 1257ERGO    R516970   3.730  10.035   8.620  0.2361 -0.1265  0.1141
 1257ERGO    C116971   3.792   9.979   8.992  0.3364  0.0059  0.1179
 1257ERGO    C216972   3.668   9.996   9.302 -0.0013 -0.3395 -0.0850
 1258ERGO   ROH16973   8.477   3.281   8.185 -0.4349  0.1157 -0.0650
 1258ERGO    R116974   8.580   3.245   8.446 -0.2653 -0.0112 -0.1465
 1258ERGO    R216975   8.608   3.453   8.626 -0.0126 -0.0700 -0.1079
 1258ERGO    R316976   8.459   3.291   8.786  0.0063 -0.0257 -0.0470
 1258ERGO    R416977   8.655   3.415   8.966  0.0340  0.0053 -0.1066
 1258ERGO    R516978   8.617   3.202   8.943  0.0224  0.0046 -0.0499
 1258ERGO    C116979   8.543   3.242   9.315  0.0790  0.0908 -0.0485
 1258ERGO    C216980   8.580   3.201   9.671 -0.0543 -0.1618 -0.0987
 1259ERGO   ROH16981   3.705   7.918   7.072 -0.0844  0.3091 -0.0916
 1259ERGO    R116982   3.737   8.060   7.314 -0.0532  0.1712 -0.0141
 1259ERGO    R216983   3.621   7.979   7.551  0.0802 -0.0330 -0.0174
 1259ERGO    R316984   3.876   7.993   7.644  0.1119  0.0268 -0.1108
 1259ERGO    R416985   3.708   8.049   7.878  0.1829 -0.0339 -0.0439
 1259ERGO    R516986   3.871   8.173   7.803  0.1236  0.0149 -0.0961
 1259ERGO    C116987   3.998   8.103   8.156  0.2725  0.0220 -0.1470
 1259ERGO    C216988   4.267   8.015   8.396 -0.1603  0.0322  0.0541
 1260ERGO   ROH16989   7.988  12.319   6.450 -0.0514 -0.1987 -0.0593
 1260ERGO    R116990   7.937  12.422   6.709  0.0101 -0.1275 -0.0763
 1260ERGO    R216991   7.733  12.326   6.868  0.0709 -0.1035  0.0071
 1260ERGO    R316992   7.933  12.292   7.049  0.1230 -0.0226 -0.0329
 1260ERGO    R416993   7.698  12.360   7.211  0.0726 -0.2996  0.0289
 1260ERGO    R516994   7.892  12.460   7.215 -0.0054 -0.1334  0.0543
 1260ERGO    C116995   7.866  12.348   7.579  0.1227 -0.3379  0.0040
 1260ERGO    C216996   7.697  12.266   7.904 -0.0393 -0.0277  0.3908
 1261ERGO   ROH16997  17.978  15.347   6.244 -0.1168 -0.0710 -0.0246
 1261ERGO    R116998  18.031  15.150   6.439 -0.0645 -0.0538 -0.0223
 1261ERGO    R216999  18.287  15.063   6.497 -0.0454  0.0064 -0.0316
 1261ERGO    R317000  18.218  15.130   6.751 -0.0479 -0.0064 -0.0281
 1261ERGO    R417001  18.483  15.006   6.776  0.0152  0.1097 -0.0521
 1261ERGO    R517002  18.303  14.951   6.885  0.0487  0.0360 -0.0267
 1261ERGO    C117003  18.532  15.037   7.177  0.0482  0.1579 -0.0607
 1261ERGO    C217004  18.652  15.194   7.484 -0.2891  0.0315 -0.3781
 1262ERGO   ROH17005  16.978  14.407   6.080  0.3094  0.3082 -0.2001
 1262ERGO    R117006  16.859  14.527   6.307  0.2839  0.2159 -0.1645
 1262ERGO    R217007  16.689  14.388   6.477  0.1589  0.1830 -0.3147
 1262ERGO    R317008  16.864  14.473   6.667  0.1308 -0.0208 -0.1955
 1262ERGO    R417009  16.658  14.330   6.816 -0.1015  0.1543 -0.3420
 1262ERGO    R517010  16.727  14.533   6.853  0.0766  0.0823 -0.2673
 1262ERGO    C117011  16.803  14.375   7.192 -0.2791 -0.0537 -0.2458
 1262ERGO    C217012  16.832  14.201   7.523 -0.1844 -0.1638 -0.0301
 1263ERGO   ROH17013  14.553  12.747   6.600 -0.1337 -0.1862 -0.0185
 1263ERGO    R117014  14.534  12.591   6.835 -0.1780 -0.1027  0.0348
 1263ERGO    R217015  14.593  12.692   7.085 -0.0875 -0.0516 -0.0022
 1263ERGO    R317016  14.344  12.602   7.145 -0.1265  0.0964  0.0598
 1263ERGO    R417017  14.510  12.515   7.371 -0.0923 -0.1452 -0.0621
 1263ERGO    R517018  14.381  12.389   7.248 -0.2368  0.0147 -0.0716
 1263ERGO    C117019  14.227  12.327   7.592 -0.1318 -0.0609 -0.0389
 1263ERGO    C217020  14.179  12.125   7.871  0.0733  0.1907 -0.2370
 1264ERGO   ROH17021  11.862   1.942   6.612  0.1929 -0.1564 -0.0197
 1264ERGO    R117022  11.765   1.936   6.878  0.1988  0.1836 -0.0077
 1264ERGO    R217023  11.813   1.726   7.050 -0.2222  0.1674  0.0945
 1264ERGO    R317024  11.909   1.922   7.212  0.1981  0.0613 -0.0112
 1264ERGO    R417025  11.863   1.693   7.390 -0.4379  0.2798  0.1398
 1264ERGO    R517026  11.786   1.896   7.416  0.0404  0.5040 -0.0359
 1264ERGO    C117027  11.983   1.859   7.740 -0.1691  0.2457  0.0670
 1264ERGO    C217028  12.045   1.640   8.024  0.1581 -0.2778  0.5434
 1265ERGO   ROH17029  15.473   7.164   6.666  0.0735  0.2112  0.0378
 1265ERGO    R117030  15.325   7.140   6.907  0.1324  0.1153  0.0671
 1265ERGO    R217031  15.296   7.349   7.085  0.1053  0.0749  0.1229
 1265ERGO    R317032  15.031   7.297   7.053  0.1175 -0.0023  0.1599
 1265ERGO    R417033  15.049   7.442   7.307  0.1090 -0.0681  0.1856
 1265ERGO    R517034  14.953   7.249   7.274  0.1687 -0.0841  0.1545
 1265ERGO    C117035  14.655   7.447   7.407  0.1226 -0.2238  0.2568
 1265ERGO    C217036  14.477   7.705   7.634 -0.0610  0.1419  0.2320
 1266ERGO   ROH17037  17.402  14.834   9.908  0.1244 -0.2584  0.0301
 1266ERGO    R117038  17.475  14.757   9.646 -0.1360 -0.3229 -0.0269
 1266ERGO    R217039  17.290  14.681   9.456 -0.3800  0.1346  0.0132
 1266ERGO    R317040  17.410  14.875   9.308 -0.0211 -0.0564  0.0408
 1266ERGO    R417041  17.303  14.686   9.110 -0.5233  0.2446  0.0086
 1266ERGO    R517042  17.508  14.757   9.124 -0.3537 -0.2028 -0.0516
 1266ERGO    C117043  17.422  14.872   8.771 -0.2700  0.1293  0.0320
 1266ERGO    C217044  17.335  15.024   8.436  0.0521 -0.1724  0.0357
 1267ERGO   ROH17045   1.396   5.374   6.522  0.0048 -0.1589  0.0561
 1267ERGO    R117046   1.380   5.421   6.801 -0.0189  0.0304  0.0251
 1267ERGO    R217047   1.149   5.510   6.923 -0.0871 -0.0532 -0.0276
 1267ERGO    R317048   1.186   5.291   7.080  0.0885  0.0823  0.1221
 1267ERGO    R417049   1.101   5.503   7.265 -0.1410  0.1121 -0.0318
 1267ERGO    R517050   1.280   5.379   7.283 -0.0327  0.2931  0.0834
 1267ERGO    C117051   1.108   5.294   7.612 -0.0075  0.3355  0.1063
 1267ERGO    C217052   0.899   5.398   7.907 -0.0181 -0.1229 -0.2904
 1268ERGO   ROH17053   6.083  14.013   6.650  0.3996 -0.1201  0.0465
 1268ERGO    R117054   6.015  13.790   6.811  0.0689 -0.0127  0.0621
 1268ERGO    R217055   6.148  13.729   7.044  0.0090 -0.2186  0.0436
 1268ERGO    R317056   5.898  13.736   7.152  0.0287  0.1794  0.0806
 1268ERGO    R417057   6.075  13.671   7.377 -0.0594 -0.4606 -0.0119
 1268ERGO    R517058   5.899  13.559   7.313 -0.3136 -0.0237 -0.1261
 1268ERGO    C117059   5.798  13.643   7.672 -0.0807 -0.2281 -0.0094
 1268ERGO    C217060   5.584  13.791   7.986 -0.0057  0.1268  0.1452
 1269ERGO   ROH17061   2.573  16.055   6.490  0.1031 -0.1676  0.0209
 1269ERGO    R117062   2.592  15.923   6.740  0.1258  0.0579  0.1388
 1269ERGO    R217063   2.550  16.053   6.981 -0.4486  0.1481 -0.0054
 1269ERGO    R317064   2.370  15.854   7.020 -0.0424 -0.2497 -0.0613
 1269ERGO    R417065   2.468  15.920   7.288 -0.4862  0.2260  0.0196
 1269ERGO    R517066   2.464  15.722   7.196  0.0816  0.1159  0.1680
 1269ERGO    C117067   2.250  15.655   7.505 -0.1268 -0.1020 -0.0183
 1269ERGO    C217068   2.074  15.751   7.780 -0.0583 -0.0714 -0.1458
 1270ERGO   ROH17069  10.406  10.032   6.523  0.1416 -0.1366  0.0285
 1270ERGO    R117070  10.534   9.908   6.743  0.1389 -0.1259  0.0360
 1270ERGO    R217071  10.460   9.957   7.005  0.1810 -0.0615  0.0343
 1270ERGO    R317072  10.438   9.686   7.015  0.1210 -0.0548  0.0892
 1270ERGO    R417073  10.464   9.769   7.295  0.2027 -0.0022  0.0724
 1270ERGO    R517074  10.586   9.621   7.192  0.1477 -0.0519  0.0711
 1270ERGO    C117075  10.445   9.406   7.474  0.1590  0.0387  0.1461
 1270ERGO    C217076  10.303   9.153   7.775  0.0920  0.2277  0.1566
 1271ERGO   ROH17077  12.675   9.376   6.391  0.1310  0.1110  0.0149
 1271ERGO    R117078  12.670   9.302   6.664  0.0115  0.0706  0.0017
 1271ERGO    R217079  12.858   9.390   6.845 -0.0374 -0.0017  0.0835
 1271ERGO    R317080  12.639   9.472   6.984 -0.0686  0.0276  0.0182
 1271ERGO    R417081  12.861   9.495   7.175 -0.1340 -0.1200  0.1231
 1271ERGO    R517082  12.673   9.387   7.205 -0.1897 -0.0663  0.0051
 1271ERGO    C117083  12.656   9.633   7.496 -0.2197 -0.1613  0.0848
 1271ERGO    C217084  12.799   9.711   7.780 -0.2079  0.1044 -0.0539
 1272ERGO   ROH17085  11.654  15.783   7.953 -0.2022 -0.0367 -0.1445
 1272ERGO    R117086  11.610  16.053   7.877 -0.1086  0.0095 -0.0337
 1272ERGO    R217087  11.358  16.161   7.850 -0.0701  0.0724 -0.1079
 1272ERGO    R317088  11.454  16.347   8.023 -0.1219 -0.0280  0.0309
 1272ERGO    R417089  11.245  16.487   7.872  0.0052  0.0952 -0.0464
 1272ERGO    R517090  11.451  16.551   7.899  0.0128  0.0262  0.1090
 1272ERGO    C117091  11.269  16.851   8.048  0.0004  0.0141  0.1197
 1272ERGO    C217092  11.092  17.078   8.305  0.0276  0.0128 -0.0301
 1273ERGO   ROH17093   5.635   1.978   6.491  0.1746  0.0644 -0.0327
 1273ERGO    R117094   5.692   2.227   6.614  0.0373  0.1219 -0.0851
 1273ERGO    R217095   5.597   2.467   6.515 -0.2453  0.0322 -0.0332
 1273ERGO    R317096   5.499   2.496   6.767 -0.0984 -0.0388  0.0325
 1273ERGO    R417097   5.585   2.765   6.690 -0.2945  0.0196 -0.0147
 1273ERGO    R517098   5.645   2.656   6.869 -0.1161  0.0385 -0.0554
 1273ERGO    C117099   5.487   2.965   7.029 -0.1853 -0.0543  0.0579
 1273ERGO    C217100   5.467   3.285   7.165 -0.0505 -0.1335 -0.1404
 1274ERGO   ROH17101  17.624   1.518   9.927  0.1170 -0.1104  0.0298
 1274ERGO    R117102  17.770   1.464   9.691  0.0007  0.0588 -0.0833
 1274ERGO    R217103  17.924   1.236   9.659  0.2130  0.2165 -0.2130
 1274ERGO    R317104  17.773   1.205   9.435  0.0786  0.0811 -0.1057
 1274ERGO    R417105  18.048   1.144   9.350  0.1165  0.5321 -0.3505
 1274ERGO    R517106  17.912   1.288   9.258 -0.1822  0.3693 -0.1858
 1274ERGO    C117107  17.979   1.060   8.960 -0.0659  0.5889 -0.3297
 1274ERGO    C217108  18.165   0.753   8.905 -0.1160  0.0447  0.1998
 1275ERGO   ROH17109   3.229   1.338   6.440 -0.3641  0.0177 -0.0294
 1275ERGO    R117110   3.171   1.523   6.646 -0.1153  0.1256 -0.0526
 1275ERGO    R217111   3.119   1.446   6.906 -0.2764  0.2214 -0.0520
 1275ERGO    R317112   3.319   1.621   6.964 -0.0130 -0.0766 -0.0378
 1275ERGO    R417113   3.131   1.645   7.188 -0.0683  0.3195 -0.1286
 1275ERGO    R517114   3.207   1.808   7.063  0.2495  0.1489 -0.1600
 1275ERGO    C117115   3.326   1.926   7.406  0.3002  0.0969 -0.1599
 1275ERGO    C217116   3.401   2.223   7.471 -0.1975  0.0510 -0.5247
 1276ERGO   ROH17117  11.681   8.810   6.511  0.0190 -0.1708 -0.0716
 1276ERGO    R117118  11.771   8.620   6.700 -0.0648 -0.1558 -0.0178
 1276ERGO    R217119  11.975   8.671   6.878 -0.0648 -0.1859 -0.0196
 1276ERGO    R317120  11.791   8.595   7.063 -0.1003 -0.0782 -0.0082
 1276ERGO    R417121  12.035   8.645   7.218 -0.0992 -0.0288  0.0005
 1276ERGO    R517122  11.915   8.463   7.219 -0.1253 -0.0218  0.0695
 1276ERGO    C117123  11.897   8.557   7.588 -0.1527  0.1635  0.0228
 1276ERGO    C217124  11.877   8.493   7.948 -0.0329 -0.2550 -0.2068
 1277ERGO   ROH17125  17.099  11.450   6.754  0.1817  0.1253 -0.0250
 1277ERGO    R117126  17.126  11.361   7.021  0.0533  0.0715 -0.0297
 1277ERGO    R217127  17.269  11.502   7.211  0.0876 -0.0435  0.0275
 1277ERGO    R317128  17.036  11.486   7.351  0.0391  0.0802 -0.0362
 1277ERGO    R417129  17.235  11.573   7.548  0.0555 -0.1102  0.0389
 1277ERGO    R517130  17.102  11.402   7.566 -0.0705 -0.0250 -0.0410
 1277ERGO    C117131  16.997  11.599   7.875 -0.0088 -0.0331 -0.0141
 1277ERGO    C217132  16.698  11.671   8.023  0.0532 -0.0440  0.1203
 1278ERGO   ROH17133  17.998  11.669   6.655 -0.1492  0.2358 -0.0442
 1278ERGO    R117134  17.961  11.745   6.925 -0.1382  0.0988 -0.0051
 1278ERGO    R217135  17.711  11.785   7.036 -0.1275 -0.0018  0.0331
 1278ERGO    R317136  17.799  11.605   7.219 -0.0837 -0.0687 -0.0501
 1278ERGO    R417137  17.634  11.792   7.372 -0.0674 -0.1078  0.0508
 1278ERGO    R517138  17.839  11.736   7.416 -0.0458 -0.1228 -0.0113
 1278ERGO    C117139  17.672  11.628   7.741  0.0087 -0.2323 -0.0170
 1278ERGO    C217140  17.467  11.667   8.045  0.0494 -0.0695  0.1928
 1279ERGO   ROH17141  14.311  11.253   6.533  0.1645 -0.0952 -0.1873
 1279ERGO    R117142  14.383  11.412   6.756  0.0795 -0.0728 -0.1760
 1279ERGO    R217143  14.242  11.407   6.993  0.0097 -0.0741 -0.2193
 1279ERGO    R317144  14.486  11.353   7.100 -0.0157 -0.0374 -0.1405
 1279ERGO    R417145  14.310  11.393   7.332 -0.0625  0.1030 -0.1958
 1279ERGO    R517146  14.499  11.495   7.292 -0.0446  0.0672 -0.2132
 1279ERGO    C117147  14.580  11.335   7.629 -0.1285  0.2405 -0.1084
 1279ERGO    C217148  14.575  11.257   8.038  0.1424 -0.2214 -0.0260
 1280ERGO   ROH17149   6.990  16.165   6.088  0.1152 -0.2426  0.2010
 1280ERGO    R117150   6.919  16.286   6.334  0.0610 -0.1276  0.1306
 1280ERGO    R217151   6.663  16.276   6.436  0.0336 -0.0737  0.0779
 1280ERGO    R317152   6.789  16.175   6.655 -0.0164  0.0206  0.1498
 1280ERGO    R417153   6.570  16.337   6.764 -0.0966 -0.0179  0.0304
 1280ERGO    R517154   6.780  16.353   6.816 -0.1235  0.0561  0.1016
 1280ERGO    C117155   6.633  16.277   7.160 -0.2193  0.1032  0.0704
 1280ERGO    C217156   6.578  16.307   7.530  0.0169  0.0637  0.0205
 1281ERGO   ROH17157   7.478   9.894   7.590 -0.1606  0.0990  0.3082
 1281ERGO    R117158   7.624   9.717   7.757 -0.1067  0.0513  0.2119
 1281ERGO    R217159   7.698   9.464   7.676 -0.1013  0.0855  0.1031
 1281ERGO    R317160   7.946   9.549   7.745 -0.0940  0.0840  0.0772
 1281ERGO    R417161   7.932   9.274   7.846 -0.0409  0.0442 -0.0259
 1281ERGO    R517162   7.985   9.451   7.961 -0.0323  0.0047  0.0299
 1281ERGO    C117163   8.301   9.244   8.010  0.0011  0.0187 -0.1252
 1281ERGO    C217164   8.638   9.080   8.259 -0.1559  0.0060  0.0607
 1282ERGO   ROH17165   8.912   1.908   6.189 -0.1181 -0.0996 -0.0067
 1282ERGO    R117166   9.042   1.832   6.429 -0.1088 -0.0176  0.0146
 1282ERGO    R217167   9.159   2.015   6.600 -0.1207  0.0425 -0.0427
 1282ERGO    R317168   8.999   1.895   6.784 -0.1080  0.0856 -0.0030
 1282ERGO    R417169   9.183   2.058   6.942 -0.0557  0.0764 -0.0513
 1282ERGO    R517170   9.145   1.846   6.967 -0.0832  0.0836 -0.0223
 1282ERGO    C117171   9.048   1.970   7.314 -0.0057  0.1366 -0.0191
 1282ERGO    C217172   8.944   1.881   7.664  0.1063 -0.1049 -0.0716
 1283ERGO   ROH17173  17.597   3.946   6.818 -0.1140  0.0293  0.0486
 1283ERGO    R117174  17.485   3.842   7.056 -0.0230 -0.1213  0.0264
 1283ERGO    R217175  17.549   3.939   7.306  0.0663 -0.2753  0.0666
 1283ERGO    R317176  17.280   3.967   7.329  0.0758 -0.2957  0.1810
 1283ERGO    R417177  17.377   3.947   7.605  0.2031 -0.1314  0.1434
 1283ERGO    R517178  17.221   3.825   7.513  0.1766 -0.1987  0.2861
 1283ERGO    C117179  17.023   3.977   7.801  0.2915 -0.0668  0.2956
 1283ERGO    C217180  16.773   3.955   8.125 -0.2065  0.1026 -0.0182
 1284ERGO   ROH17181  15.371   5.238   6.150  0.0280  0.0482 -0.0299
 1284ERGO    R117182  15.441   5.320   6.412  0.0545  0.0637 -0.0422
 1284ERGO    R217183  15.380   5.570   6.511  0.0108  0.0466 -0.0305
 1284ERGO    R317184  15.265   5.427   6.712  0.0822  0.0183 -0.0090
 1284ERGO    R417185  15.374   5.665   6.844 -0.0366  0.0967 -0.0452
 1284ERGO    R517186  15.411   5.457   6.899  0.0685  0.1220 -0.0130
 1284ERGO    C117187  15.262   5.585   7.225  0.0028  0.0992 -0.0337
 1284ERGO    C217188  15.301   5.705   7.440  0.1271  0.0598  0.2194
 1285ERGO   ROH17189  15.639  11.771   6.443  0.3153  0.2574  0.0002
 1285ERGO    R117190  15.683  11.696   6.713  0.0423  0.1069  0.0069
 1285ERGO    R217191  15.871  11.820   6.872  0.0756 -0.1664  0.1836
 1285ERGO    R317192  15.660  11.857   7.039 -0.0008  0.0154  0.0501
 1285ERGO    R417193  15.893  11.940   7.196 -0.0072 -0.2659  0.2265
 1285ERGO    R517194  15.742  11.794   7.255 -0.2051 -0.1261  0.0927
 1285ERGO    C117195  15.707  12.044   7.540 -0.1270 -0.1532  0.1263
 1285ERGO    C217196  15.742  12.084   7.952 -0.4288 -0.0308  0.0059
 1286ERGO   ROH17197  11.661  16.430   6.043  0.1435  0.2907  0.0456
 1286ERGO    R117198  11.795  16.382   6.287  0.1768  0.0956 -0.0092
 1286ERGO    R217199  11.697  16.468   6.530  0.3205  0.0978  0.0502
 1286ERGO    R317200  11.724  16.206   6.598  0.1206  0.0501 -0.0477
 1286ERGO    R417201  11.728  16.350   6.854  0.2040 -0.0510  0.0082
 1286ERGO    R517202  11.878  16.208   6.782  0.1059 -0.1344 -0.0319
 1286ERGO    C117203  11.772  16.036   7.106 -0.0514 -0.1822 -0.1082
 1286ERGO    C217204  11.847  15.995   7.444 -0.5016 -0.1957  0.0339
 1287ERGO   ROH17205  11.452   9.795   6.745 -0.1026 -0.1394 -0.0295
 1287ERGO    R117206  11.461   9.598   6.948  0.1129 -0.1332 -0.0287
 1287ERGO    R217207  11.659   9.591   7.141  0.1160  0.0941 -0.0129
 1287ERGO    R317208  11.448   9.592   7.311  0.0990 -0.1446 -0.0309
 1287ERGO    R417209  11.683   9.561   7.484  0.1136  0.1320 -0.0103
 1287ERGO    R517210  11.506   9.433   7.480  0.2639 -0.0694 -0.0212
 1287ERGO    C117211  11.498   9.544   7.844  0.0959 -0.0698 -0.0257
 1287ERGO    C217212  11.352   9.428   8.074  0.0460  0.1495 -0.0280
 1288ERGO   ROH17213  16.060   0.789   6.576  0.0427  0.1516  0.0321
 1288ERGO    R117214  16.237   0.699   6.777  0.0100  0.0964  0.0360
 1288ERGO    R217215  16.303   0.853   6.997 -0.0192  0.0389  0.0835
 1288ERGO    R317216  16.219   0.634   7.135 -0.0442  0.0067  0.0181
 1288ERGO    R417217  16.411   0.765   7.313  0.0845 -0.1449 -0.0014
 1288ERGO    R517218  16.415   0.557   7.249 -0.0218 -0.1196 -0.1002
 1288ERGO    C117219  16.395   0.508   7.627  0.1215 -0.2821 -0.1122
 1288ERGO    C217220  16.426   0.377   7.962 -0.1264  0.4616 -0.3468
 1289ERGO   ROH17221   1.520  11.828   6.387  0.2148  0.0045 -0.0009
 1289ERGO    R117222   1.601  11.654   6.596  0.2935 -0.0649 -0.0904
 1289ERGO    R217223   1.862  11.566   6.623  0.4132  0.3354  0.0692
 1289ERGO    R317224   1.836  11.667   6.874  0.0084  0.0521  0.1532
 1289ERGO    R417225   2.072  11.495   6.887  0.4703  0.6308  0.1083
 1289ERGO    R517226   1.898  11.486   7.017  0.4007  0.0613  0.0164
 1289ERGO    C117227   2.171  11.548   7.276  0.1235  0.5368  0.2100
 1289ERGO    C217228   2.303  11.664   7.553  0.0274  0.1865 -0.3106
 1290ERGO   ROH17229   1.436   7.927   6.540  0.0681 -0.0329  0.1518
 1290ERGO    R117230   1.667   7.873   6.695  0.0698 -0.0142  0.1567
 1290ERGO    R217231   1.880   8.049   6.710  0.0770 -0.0174  0.1243
 1290ERGO    R317232   1.837   8.028   6.977  0.0791  0.0281  0.1276
 1290ERGO    R417233   2.073   8.198   6.954  0.1519 -0.0770  0.1011
 1290ERGO    R517234   2.056   8.017   7.073  0.0780 -0.0571  0.1194
 1290ERGO    C117235   2.145   8.267   7.348  0.1975 -0.0689  0.0908
 1290ERGO    C217236   2.242   8.345   7.697  0.1231 -0.0749 -0.0897
 1291ERGO   ROH17237   5.682   9.050   7.855 -0.0228  0.0938  0.0463
 1291ERGO    R117238   5.567   8.867   8.038 -0.0371  0.0192 -0.0371
 1291ERGO    R217239   5.497   8.938   8.296  0.0166 -0.1058  0.0117
 1291ERGO    R317240   5.255   8.839   8.223 -0.0169 -0.0125 -0.0070
 1291ERGO    R417241   5.232   8.884   8.512  0.0540 -0.2094  0.0328
 1291ERGO    R517242   5.190   8.699   8.406 -0.0013 -0.1301 -0.0896
 1291ERGO    C117243   4.851   8.760   8.569  0.0442 -0.1821  0.0273
 1291ERGO    C217244   4.743   8.698   8.835 -0.0573 -0.1889  0.2584
 1292ERGO   ROH17245  14.344  16.718   6.450 -0.0929 -0.2962 -0.1846
 1292ERGO    R117246  14.197  16.580   6.650  0.0214 -0.2841 -0.0917
 1292ERGO    R217247  14.191  16.304   6.667  0.1330 -0.2776  0.0059
 1292ERGO    R317248  14.271  16.351   6.922  0.1913 -0.1622 -0.0319
 1292ERGO    R417249  14.098  16.115   6.940  0.1960 -0.1650  0.1069
 1292ERGO    R517250  14.079  16.299   7.055  0.2176 -0.1103  0.0327
 1292ERGO    C117251  14.120  16.048   7.339  0.2875  0.0089  0.1300
 1292ERGO    C217252  14.005  16.091   7.560 -0.1449 -0.0844  0.0859
 1293ERGO   ROH17253  15.873   0.039   6.546  0.2975 -0.0106  0.0329
 1293ERGO    R117254  15.939   0.038   6.822  0.2541  0.1250  0.0447
 1293ERGO    R217255  15.996   0.270   6.961 -0.1722  0.2447  0.0396
 1293ERGO    R317256  15.800   0.180   7.127 -0.0506 -0.0895  0.0105
 1293ERGO    R417257  16.007   0.284   7.306 -0.2707  0.3189  0.0395
 1293ERGO    R517258  15.918   0.086   7.313  0.0867  0.1506  0.0498
 1293ERGO    C117259  15.829   0.209   7.663 -0.2139  0.0483  0.0121
 1293ERGO    C217260  15.885   0.428   7.933  0.3168 -0.0512 -0.2507
 1294ERGO   ROH17261   8.524  16.848   6.350 -0.1707 -0.1622  0.0804
 1294ERGO    R117262   8.459  16.750   6.608 -0.0477 -0.0560  0.1530
 1294ERGO    R217263   8.563  16.514   6.708 -0.1178 -0.0906  0.1381
 1294ERGO    R317264   8.638  16.673   6.915  0.1247 -0.0829  0.0480
 1294ERGO    R417265   8.658  16.400   7.020 -0.1398 -0.0688  0.1534
 1294ERGO    R517266   8.547  16.566   7.109  0.0671  0.0936  0.1234
 1294ERGO    C117267   8.784  16.483   7.396  0.0750 -0.0486  0.0777
 1294ERGO    C217268   8.930  16.297   7.644 -0.1663 -0.3430  0.0992
 1295ERGO   ROH17269   1.125   1.409   6.641  0.2067  0.3058  0.0671
 1295ERGO    R117270   1.069   1.585   6.855  0.1397  0.2439  0.1017
 1295ERGO    R217271   0.825   1.588   6.986  0.1176  0.1702  0.0608
 1295ERGO    R317272   0.981   1.555   7.207  0.0839  0.1436  0.0802
 1295ERGO    R417273   0.723   1.647   7.311  0.0884  0.2221  0.0419
 1295ERGO    R517274   0.918   1.735   7.352  0.1111  0.1740  0.0585
 1295ERGO    C117275   0.810   1.650   7.708  0.0398  0.2273  0.0490
 1295ERGO    C217276   0.646   1.734   7.953 -0.2085  0.0565 -0.1013
 1296ERGO   ROH17277  12.263   0.056   6.356  0.0596 -0.1707 -0.0971
 1296ERGO    R117278  12.145  -0.040   6.595  0.0552 -0.1485 -0.0909
 1296ERGO    R217279  12.234  -0.267   6.724  0.1572 -0.0430  0.0205
 1296ERGO    R317280  12.251  -0.099   6.938 -0.0000  0.0492 -0.0386
 1296ERGO    R417281  12.226  -0.367   7.055  0.1271  0.0762  0.0569
 1296ERGO    R517282  12.101  -0.193   7.099  0.0111  0.0208 -0.0435
 1296ERGO    C117283  12.237  -0.268   7.448 -0.0381  0.2323  0.0226
 1296ERGO    C217284  12.357  -0.424   7.760  0.2902 -0.1543  0.2114
 1297ERGO   ROH17285   3.689   6.232   6.733 -0.2177  0.1247  0.1066
 1297ERGO    R117286   3.900   6.250   6.921 -0.1244  0.2512 -0.0069
 1297ERGO    R217287   3.999   6.492   7.010 -0.2587  0.3143 -0.0163
 1297ERGO    R317288   3.945   6.387   7.255 -0.0450  0.2239 -0.0071
 1297ERGO    R417289   4.140   6.601   7.307 -0.0260  0.2234 -0.0920
 1297ERGO    R517290   4.156   6.393   7.370  0.0479  0.2049 -0.1778
 1297ERGO    C117291   4.171   6.566   7.709  0.3101  0.0856 -0.1274
 1297ERGO    C217292   4.337   6.619   7.976  0.1102 -0.0926  0.2999
 1298ERGO   ROH17293  16.080   9.225   6.523 -0.0646 -0.1561  0.0056
 1298ERGO    R117294  16.070   9.278   6.801 -0.1435  0.0326 -0.0316
 1298ERGO    R217295  15.915   9.130   6.975 -0.1486  0.1167  0.0316
 1298ERGO    R317296  16.150   9.098   7.107 -0.1742  0.2624  0.1148
 1298ERGO    R417297  15.943   9.036   7.306 -0.2119 -0.0563 -0.0108
 1298ERGO    R517298  16.106   9.180   7.328 -0.3552  0.0898  0.1478
 1298ERGO    C117299  16.181   8.951   7.623 -0.2729 -0.0204  0.0426
 1298ERGO    C217300  16.215   8.621   7.887  0.1393 -0.2284  0.2092
 1299ERGO   ROH17301  15.991   8.774   6.644 -0.0450 -0.2262 -0.1659
 1299ERGO    R117302  16.022   8.586   6.853 -0.1054 -0.1435 -0.0823
 1299ERGO    R217303  16.145   8.648   7.093 -0.1314 -0.0622 -0.0922
 1299ERGO    R317304  15.913   8.554   7.199 -0.1610  0.0173 -0.0839
 1299ERGO    R417305  16.116   8.497   7.402 -0.1774 -0.0120 -0.0712
 1299ERGO    R517306  15.977   8.354   7.314 -0.2172  0.0137 -0.0556
 1299ERGO    C117307  15.882   8.321   7.682 -0.2320  0.0920 -0.0513
 1299ERGO    C217308  15.898   8.271   8.003  0.1858 -0.0912  0.2511
 1300ERGO   ROH17309  11.005  17.802   6.272 -0.0213  0.2049 -0.0995
 1300ERGO    R117310  10.893  17.982   6.460 -0.0877  0.0979 -0.0379
 1300ERGO    R217311  10.715  17.900   6.655  0.0595 -0.0625  0.0242
 1300ERGO    R317312  10.894  18.019   6.822  0.0293  0.0681 -0.0332
 1300ERGO    R417313  10.664  17.956   6.993  0.1528 -0.1826  0.0600
 1300ERGO    R517314  10.759  18.151   6.970 -0.0330 -0.0840  0.0545
 1300ERGO    C117315  10.801  18.100   7.346  0.1789 -0.1298  0.0271
 1300ERGO    C217316  10.825  18.014   7.743  0.2745  0.2035  0.2204
 1301ERGO   ROH17317  13.241   5.234   6.474 -0.2211 -0.0886  0.1621
 1301ERGO    R117318  13.129   5.153   6.721  0.0084 -0.2361  0.2215
 1301ERGO    R217319  13.260   4.984   6.896  0.3589 -0.0003  0.1961
 1301ERGO    R317320  13.215   5.185   7.074  0.1036 -0.0426  0.1831
 1301ERGO    R417321  13.205   4.940   7.235  0.3206 -0.0596  0.1823
 1301ERGO    R517322  13.052   5.095   7.225  0.1565 -0.2159  0.1429
 1301ERGO    C117323  13.131   5.103   7.598  0.0587 -0.1337  0.1620
 1301ERGO    C217324  13.038   5.269   7.993 -0.0246  0.1917  0.0119
 1302ERGO   ROH17325  16.754   6.568   6.866  0.0835  0.1565  0.0505
 1302ERGO    R117326  16.789   6.689   7.120 -0.1705  0.1900  0.0718
 1302ERGO    R217327  16.579   6.727   7.296 -0.2711 -0.2257  0.0538
 1302ERGO    R317328  16.741   6.591   7.467 -0.0308  0.0480  0.0523
 1302ERGO    R417329  16.558   6.742   7.640 -0.3076 -0.2758  0.0538
 1302ERGO    R517330  16.776   6.743   7.649 -0.3034  0.1084  0.0593
 1302ERGO    C117331  16.697   6.623   8.002 -0.1035 -0.0481  0.0524
 1302ERGO    C217332  16.678   6.541   8.307 -0.0471  0.0819 -0.1091
 1303ERGO   ROH17333   1.368  12.674   6.646  0.1038  0.1816  0.0997
 1303ERGO    R117334   1.229  12.672   6.892  0.0199 -0.0655  0.0544
 1303ERGO    R217335   1.195  12.443   7.042  0.3561 -0.1403  0.0310
 1303ERGO    R317336   1.307  12.593   7.239  0.0423  0.0451  0.0743
 1303ERGO    R417337   1.183  12.368   7.379  0.2864 -0.1133  0.0341
 1303ERGO    R517338   1.151  12.580   7.420 -0.0346 -0.1511 -0.0057
 1303ERGO    C117339   1.281  12.466   7.760 -0.0489  0.0764  0.0765
 1303ERGO    C217340   1.469  12.581   8.022 -0.2294 -0.0903  0.1679
 1304ERGO   ROH17341   4.618   7.434   6.987 -0.2138  0.4257  0.0874
 1304ERGO    R117342   4.631   7.541   7.249 -0.0539  0.2272  0.1631
 1304ERGO    R217343   4.569   7.393   7.474 -0.0444  0.0941  0.0783
 1304ERGO    R317344   4.817   7.472   7.554  0.0301 -0.0972  0.0424
 1304ERGO    R417345   4.687   7.375   7.799 -0.1096  0.2517  0.1117
 1304ERGO    R517346   4.781   7.569   7.770  0.1014  0.1303 -0.0458
 1304ERGO    C117347   4.987   7.439   8.063 -0.0776  0.1640  0.0974
 1304ERGO    C217348   5.070   7.268   8.338  0.1624 -0.2482  0.2112
 1305ERGO   ROH17349   7.519   2.443   6.176 -0.1037 -0.0665  0.2093
 1305ERGO    R117350   7.538   2.391   6.454 -0.0452 -0.0039  0.2173
 1305ERGO    R217351   7.778   2.339   6.580 -0.0301 -0.0692  0.1606
 1305ERGO    R317352   7.701   2.544   6.741  0.0993  0.0031  0.1328
 1305ERGO    R417353   7.739   2.316   6.922 -0.0359  0.0041  0.1652
 1305ERGO    R517354   7.560   2.440   6.905  0.0387  0.1124  0.1516
 1305ERGO    C117355   7.643   2.494   7.273  0.0823  0.1147  0.1418
 1305ERGO    C217356   7.651   2.644   7.562 -0.2042  0.0089  0.1302
 1306ERGO   ROH17357  11.623   0.814   6.463  0.1044 -0.0760 -0.0182
 1306ERGO    R117358  11.450   0.788   6.686 -0.0209 -0.1510 -0.1216
 1306ERGO    R217359  11.512   0.629   6.904 -0.0689 -0.1026 -0.0668
 1306ERGO    R317360  11.467   0.859   7.042 -0.2763 -0.1120 -0.1173
 1306ERGO    R417361  11.527   0.659   7.248  0.0090  0.0218 -0.0808
 1306ERGO    R517362  11.351   0.788   7.240 -0.1323 -0.1763 -0.0605
 1306ERGO    C117363  11.493   0.892   7.578 -0.1404  0.0854 -0.1364
 1306ERGO    C217364  11.673   0.964   7.823  0.1009  0.1453  0.0031
 1307ERGO   ROH17365  13.232   6.527   6.297  0.0004 -0.3629 -0.0115
 1307ERGO    R117366  13.184   6.652   6.546  0.1421 -0.2374 -0.0459
 1307ERGO    R217367  12.930   6.700   6.643  0.1910  0.1049 -0.0695
 1307ERGO    R317368  13.022   6.564   6.859  0.0132  0.0435 -0.0313
 1307ERGO    R417369  12.744   6.631   6.926 -0.0107  0.1023 -0.2005
 1307ERGO    R517370  12.920   6.675   7.046 -0.0791  0.0352 -0.0778
 1307ERGO    C117371  12.722   6.464   7.294 -0.2951  0.0433 -0.2411
 1307ERGO    C217372  12.525   6.466   7.595  0.2246 -0.2761  0.0060
 1308ERGO   ROH17373   0.489   7.626  10.296  0.0838 -0.2236  0.0303
 1308ERGO    R117374   0.475   7.473  10.058 -0.0398 -0.1088 -0.0363
 1308ERGO    R217375   0.306   7.538   9.849  0.0071  0.1130 -0.0014
 1308ERGO    R317376   0.535   7.528   9.704 -0.0046 -0.0028 -0.0152
 1308ERGO    R417377   0.322   7.500   9.506 -0.0516  0.4102 -0.0414
 1308ERGO    R517378   0.492   7.366   9.534 -0.1903  0.1954 -0.1659
 1308ERGO    C117379   0.547   7.468   9.170 -0.0968  0.4745 -0.0778
 1308ERGO    C217380   0.634   7.525   8.886 -0.1850  0.2871  0.0524
 1309ERGO   ROH17381   2.610  13.111   6.473  0.1216 -0.0425 -0.0078
 1309ERGO    R117382   2.603  13.252   6.718 -0.1240 -0.0803  0.0118
 1309ERGO    R217383   2.521  13.135   6.954  0.0017 -0.2365 -0.0093
 1309ERGO    R317384   2.762  13.222   7.045 -0.1313  0.1008  0.0298
 1309ERGO    R417385   2.612  13.152   7.287  0.0399 -0.3805 -0.0130
 1309ERGO    R517386   2.710  13.342   7.245 -0.2994 -0.1736  0.1475
 1309ERGO    C117387   2.892  13.243   7.566 -0.0628 -0.1476  0.0215
 1309ERGO    C217388   3.083  13.261   7.899  0.2077 -0.3829 -0.3455
 1310ERGO   ROH17389   3.497  11.632   6.280 -0.2767 -0.1272 -0.0663
 1310ERGO    R117390   3.385  11.539   6.523 -0.1397  0.0782  0.0779
 1310ERGO    R217391   3.535  11.408   6.715 -0.0860  0.0058 -0.0165
 1310ERGO    R317392   3.436  11.601   6.879  0.2599  0.1683  0.0108
 1310ERGO    R417393   3.512  11.383   7.059 -0.5457 -0.2079 -0.0553
 1310ERGO    R517394   3.317  11.481   7.048 -0.2801  0.3502 -0.2131
 1310ERGO    C117395   3.405  11.550   7.413 -0.4885 -0.1798 -0.0523
 1310ERGO    C217396   3.328  11.703   7.783 -0.1075  0.0267 -0.0946
 1311ERGO   ROH17397  11.516  11.503   6.457 -0.1707 -0.0324 -0.0076
 1311ERGO    R117398  11.400  11.493   6.715 -0.0269  0.1052  0.0635
 1311ERGO    R217399  11.452  11.289   6.894 -0.1981  0.0153  0.0069
 1311ERGO    R317400  11.519  11.495   7.059  0.1888 -0.0915 -0.0062
 1311ERGO    R417401  11.428  11.281   7.239 -0.3028  0.1028  0.0027
 1311ERGO    R517402  11.355  11.487   7.233  0.1178  0.2664 -0.0446
 1311ERGO    C117403  11.477  11.470   7.594 -0.0005  0.0535 -0.0121
 1311ERGO    C217404  11.223  11.507   7.933 -0.1063  0.2536 -0.0075
 1312ERGO   ROH17405  12.588  10.688   6.348 -0.0441  0.0547 -0.0854
 1312ERGO    R117406  12.520  10.763   6.612 -0.0569  0.0774 -0.0955
 1312ERGO    R217407  12.319  10.944   6.668 -0.1760 -0.0498 -0.1144
 1312ERGO    R317408  12.227  10.743   6.826 -0.0109 -0.0735 -0.0448
 1312ERGO    R417409  12.256  10.971   7.007 -0.1469  0.0024 -0.1128
 1312ERGO    R517410  12.341  10.772   7.034 -0.0003  0.0680 -0.0682
 1312ERGO    C117411  12.132  10.798   7.352  0.0250  0.0106 -0.0463
 1312ERGO    C217412  12.222  10.755   7.683 -0.1225 -0.0527 -0.1531
 1313ERGO   ROH17413  13.153  17.661   6.494  0.0447  0.1203 -0.0096
 1313ERGO    R117414  13.174  17.658   6.777  0.1099  0.1335 -0.0141
 1313ERGO    R217415  13.158  17.425   6.925 -0.0651  0.1622  0.0161
 1313ERGO    R317416  13.397  17.510   7.024  0.0373 -0.0405 -0.0523
 1313ERGO    R417417  13.277  17.353   7.241  0.0283 -0.0429 -0.0639
 1313ERGO    R517418  13.352  17.558   7.254  0.1734 -0.1001 -0.0141
 1313ERGO    C117419  13.571  17.391   7.518  0.1788 -0.3527 -0.1748
 1313ERGO    C217420  13.880  17.187   7.761  0.1440 -0.2826 -0.1096
 1314ERGO   ROH17421  16.228   5.384   6.062  0.1653 -0.1983  0.0261
 1314ERGO    R117422  16.340   5.346   6.319  0.1400  0.0122  0.0702
 1314ERGO    R217423  16.365   5.552   6.502 -0.1294  0.1085  0.0086
 1314ERGO    R317424  16.227   5.382   6.664  0.0081  0.0144  0.0262
 1314ERGO    R417425  16.356   5.572   6.847 -0.1349  0.1210  0.0075
 1314ERGO    R517426  16.369   5.354   6.855  0.0327  0.1350  0.0225
 1314ERGO    C117427  16.221   5.424   7.199 -0.0093  0.0398  0.0233
 1314ERGO    C217428  16.118   5.502   7.496  0.2538 -0.0040 -0.0903
 1315ERGO   ROH17429   0.078   5.218   6.462  0.2145  0.0663  0.0778
 1315ERGO    R117430   0.111   5.072   6.703  0.1991  0.0759  0.0862
 1315ERGO    R217431   0.360   5.020   6.812  0.2090 -0.1186 -0.0179
 1315ERGO    R317432   0.252   5.135   7.033  0.4037  0.0141  0.0118
 1315ERGO    R417433   0.416   4.915   7.136  0.2740 -0.0920 -0.0203
 1315ERGO    R517434   0.205   4.951   7.179  0.3235  0.0843  0.0722
 1315ERGO    C117435   0.347   4.963   7.533  0.4946  0.0480  0.0062
 1315ERGO    C217436   0.514   4.990   7.868  0.0341 -0.0187 -0.2062
 1316ERGO   ROH17437   4.364   3.520   7.100 -0.0970 -0.0913 -0.0018
 1316ERGO    R117438   4.546   3.569   7.311 -0.1812 -0.0716  0.0677
 1316ERGO    R217439   4.467   3.583   7.575 -0.2493 -0.3222  0.0637
 1316ERGO    R317440   4.660   3.394   7.609 -0.0842 -0.1779 -0.0297
 1316ERGO    R417441   4.618   3.508   7.877 -0.1402 -0.2967  0.0157
 1316ERGO    R517442   4.809   3.490   7.772 -0.1370 -0.1051 -0.0221
 1316ERGO    C117443   4.887   3.287   8.085  0.0784 -0.1464 -0.1001
 1316ERGO    C217444   4.885   3.051   8.381 -0.0729  0.1986  0.0985
 1317ERGO   ROH17445   0.876   6.735   6.391  0.0558 -0.0003  0.1172
 1317ERGO    R117446   0.866   6.927   6.599 -0.3352  0.0585  0.0549
 1317ERGO    R217447   0.633   6.988   6.734 -0.4608 -0.4278  0.0949
 1317ERGO    R317448   0.784   6.930   6.953 -0.2567 -0.0200  0.0712
 1317ERGO    R417449   0.544   7.060   7.060 -0.3859 -0.2956  0.0855
 1317ERGO    R517450   0.751   7.116   7.099 -0.4537  0.0475 -0.0665
 1317ERGO    C117451   0.633   7.047   7.455 -0.1507  0.1642  0.0578
 1317ERGO    C217452   0.605   6.798   7.768 -0.0401  0.0247  0.1661
 1318ERGO   ROH17453   6.286   7.415   6.848  0.0490  0.3120  0.0638
 1318ERGO    R117454   6.396   7.350   7.101 -0.0577  0.1304  0.0660
 1318ERGO    R217455   6.540   7.532   7.252  0.1781 -0.0795  0.1031
 1318ERGO    R317456   6.358   7.468   7.443  0.0712  0.1406  0.0771
 1318ERGO    R417457   6.570   7.610   7.587  0.3087 -0.2545  0.1331
 1318ERGO    R517458   6.490   7.413   7.635 -0.0126 -0.1486  0.0569
 1318ERGO    C117459   6.417   7.596   7.962  0.2845 -0.1497  0.1261
 1318ERGO    C217460   6.380   7.896   8.146  0.0819 -0.0784 -0.2129
 1319ERGO   ROH17461  10.097  14.392   6.481 -0.1114 -0.1688  0.1936
 1319ERGO    R117462  10.006  14.396   6.748 -0.1256 -0.0578  0.1879
 1319ERGO    R217463  10.043  14.614   6.915 -0.0997 -0.0020  0.1132
 1319ERGO    R317464   9.774  14.595   6.946 -0.1044  0.0518  0.1023
 1319ERGO    R417465   9.869  14.724   7.192 -0.0844 -0.0416  0.1387
 1319ERGO    R517466   9.744  14.546   7.178 -0.1239 -0.0070  0.0855
 1319ERGO    C117467   9.514  14.772   7.382 -0.0799 -0.0144  0.1433
 1319ERGO    C217468   9.418  14.949   7.722 -0.0392 -0.1961  0.0503
 1320ERGO   ROH17469   3.638   2.961   6.513  0.0197 -0.0022 -0.0247
 1320ERGO    R117470   3.719   2.963   6.784  0.0732 -0.0224 -0.0406
 1320ERGO    R217471   3.556   3.056   6.987  0.1886  0.1468 -0.0262
 1320ERGO    R317472   3.604   2.812   7.095  0.0071  0.1241  0.0075
 1320ERGO    R417473   3.497   2.970   7.317  0.0725  0.2209 -0.0267
 1320ERGO    R517474   3.684   2.858   7.316  0.0002  0.0953  0.0173
 1320ERGO    C117475   3.508   2.690   7.610 -0.1655  0.2427  0.0047
 1320ERGO    C217476   3.490   2.647   7.916  0.2792 -0.1207  0.1011
 1321ERGO   ROH17477  14.441   5.313   6.482 -0.3722 -0.1550  0.0863
 1321ERGO    R117478  14.378   5.438   6.727 -0.2033 -0.0776  0.0926
 1321ERGO    R217479  14.222   5.317   6.922 -0.1679  0.0265  0.1938
 1321ERGO    R317480  14.436   5.372   7.080 -0.0655 -0.0344  0.0772
 1321ERGO    R417481  14.232   5.270   7.264  0.0064  0.0477  0.1917
 1321ERGO    R517482  14.340   5.458   7.282  0.0762  0.0088  0.1228
 1321ERGO    C117483  14.438   5.295   7.612  0.2042  0.0028  0.0810
 1321ERGO    C217484  14.791   5.315   7.842  0.0398  0.0401  0.2967
 1322ERGO   ROH17485   2.463  14.147   6.545  0.0373 -0.2281 -0.0159
 1322ERGO    R117486   2.477  14.097   6.823  0.1990  0.1423  0.0503
 1322ERGO    R217487   2.510  14.298   7.009 -0.1915  0.4593 -0.1986
 1322ERGO    R317488   2.286  14.190   7.118  0.0475  0.1083 -0.0376
 1322ERGO    R417489   2.400  14.356   7.332 -0.1888  0.4832 -0.2026
 1322ERGO    R517490   2.346  14.145   7.346  0.2159  0.3871 -0.0263
 1322ERGO    C117491   2.126  14.288   7.622  0.0373  0.1677 -0.0537
 1322ERGO    C217492   2.199  14.403   7.987 -0.2104 -0.2322 -0.0589
 1323ERGO   ROH17493  10.586   9.219   8.642  0.0454  0.1283 -0.1005
 1323ERGO    R117494  10.472   9.208   8.901 -0.0087  0.1981 -0.1206
 1323ERGO    R217495  10.613   9.122   9.122 -0.1121  0.0725 -0.0998
 1323ERGO    R317496  10.536   9.361   9.225  0.0553  0.1272 -0.1001
 1323ERGO    R417497  10.595   9.196   9.459  0.0097  0.1148 -0.1024
 1323ERGO    R517498  10.410   9.305   9.420  0.0674  0.2213 -0.0671
 1323ERGO    C117499  10.512   9.465   9.752  0.2377  0.1906 -0.1040
 1323ERGO    C217500  10.396   9.505  10.170 -0.0112  0.2081 -0.4304
 1324ERGO   ROH17501   6.013  12.198   6.504  0.2010 -0.2029  0.0069
 1324ERGO    R117502   6.133  12.323   6.728  0.0757 -0.0986  0.0169
 1324ERGO    R217503   6.090  12.238   6.988  0.1013 -0.1145  0.0174
 1324ERGO    R317504   6.361  12.227   6.994  0.1097  0.0872  0.0561
 1324ERGO    R417505   6.282  12.255   7.274  0.0407 -0.1227  0.0582
 1324ERGO    R517506   6.423  12.380   7.167 -0.0350  0.0423  0.1491
 1324ERGO    C117507   6.649  12.254   7.447  0.0134  0.0617  0.1184
 1324ERGO    C217508   6.827  12.044   7.718  0.0544 -0.1980  0.1854
 1325W        W17509  14.179   1.583   2.177  0.1202 -0.0117  0.1474
 1326W        W17510   8.353  16.367   4.930 -0.0791  0.2546  0.2836
 1327W        W17511   1.661  14.766   0.581  0.1924  0.1158 -0.2924
 1328W        W17512   8.287   9.228  11.467  0.2084 -0.1236  0.0152
 1329W        W17513   8.045  13.507   5.470 -0.0087  0.0749 -0.0982
 1330W        W17514  17.317  15.747  12.743 -0.2604  0.1143 -0.0580
 1331W        W17515  13.085   3.689   3.390 -0.1076 -0.1369  0.1587
 1332W        W17516  14.688   9.325  15.638  0.0717 -0.2203 -0.0727
 1333W        W17517   9.726   1.597   0.363 -0.0087 -0.0883  0.1986
 1334W        W17518   8.337   4.092  13.811  0.1539 -0.1692  0.1807
 1335W        W17519  15.148   5.356  12.357  0.0825  0.2381  0.0753
 1336W        W17520   4.919   9.577  12.163  0.0031 -0.0470 -0.2438
 1337W        W17521   7.383  10.629  12.882  0.1131 -0.1592 -0.2412
 1338W        W17522  10.679   4.494  15.812  0.1288 -0.1062 -0.0464
 1339W        W17523   4.894   2.641  12.501  0.0340 -0.3362 -0.0220
 1340W        W17524   4.278  10.860  12.519 -0.2107  0.2282 -0.1365
 1341W        W17525   9.051  16.890   0.084  0.0782 -0.1404 -0.1159
 1342W        W17526   4.960  16.333   2.939 -0.0743 -0.0764  0.2852
 1343W        W17527  16.601  13.121   5.597  0.0088 -0.2517  0.0842
 1344W        W17528  12.216   0.730  13.723  0.1885  0.0371 -0.0772
 1345W        W17529   2.741   9.516   6.196 -0.2121 -0.0147  0.1815
 1346W        W17530   1.112  11.404   0.879  0.0014 -0.0618 -0.1387
 1347W        W17531   5.332  11.515  12.684 -0.2873 -0.1447 -0.2763
 1348W        W17532  12.919  13.546   4.348  0.0970  0.3292  0.0231
 1349W        W17533   5.046  16.892   1.876 -0.0355  0.1653  0.2390
 1350W        W17534   2.962  11.989   0.195 -0.1959 -0.0970  0.3747
 1351W        W17535   1.178   5.064  11.882  0.1966 -0.1321  0.2232
 1352W        W17536  12.023  16.150   1.018 -0.0087  0.1435 -0.1862
 1353W        W17537  12.252  16.840   1.294 -0.0726 -0.3186  0.2039
 1354W        W17538  13.135   6.983   6.102  0.1496 -0.0026  0.1119
 1355W        W17539  13.669  14.179  11.807  0.1168  0.0056 -0.1604
 1356W        W17540  14.731  17.625   1.219  0.0259 -0.0886 -0.2495
 1357W        W17541   7.578   6.093  12.406  0.0078 -0.1892 -0.1085
 1358W        W17542   3.868   1.892  11.966  0.1439  0.0796 -0.0512
 1359W        W17543  11.851  14.984  11.415 -0.0480  0.3223 -0.2614
 1360W        W17544  14.180  12.325  15.082 -0.1229  0.0652 -0.1752
 1361W        W17545   9.083   5.515  13.530 -0.0482  0.3613  0.0345
 1362W        W17546  12.543   3.507   0.432  0.2820  0.1290  0.2085
 1363W        W17547  13.788   3.273  16.243  0.1854  0.3051  0.0263
 1364W        W17548   2.824   9.624   4.369 -0.1532  0.0353  0.2891
 1365W        W17549  14.231  17.979  13.607  0.1301 -0.0590  0.3312
 1366W        W17550   2.919   8.814   3.771  0.0105 -0.0504 -0.0430
 1367W        W17551   3.503  15.411   2.225  0.1144  0.1246  0.0354
 1368W        W17552  16.912  10.744   3.512  0.0644 -0.1295 -0.0554
 1369W        W17553  14.053   7.153  15.357 -0.2869  0.0771 -0.1188
 1370W        W17554   7.316  14.698  11.587 -0.1928 -0.4879 -0.0294
 1371W        W17555   6.204  16.614   5.640 -0.3595  0.0686  0.0052
 1372W        W17556  12.512   3.447  14.985 -0.0135 -0.0786  0.0122
 1373W        W17557   5.214  13.655   4.730 -0.1551 -0.1422  0.0834
 1374W        W17558  12.873   7.185   3.695 -0.1215  0.1429  0.0848
 1375W        W17559  14.390   5.764  13.479 -0.0336 -0.2585 -0.0435
 1376W        W17560   2.413   6.027  14.703  0.2501 -0.1230  0.1656
 1377W        W17561  12.352   1.502  14.294  0.0255 -0.1916  0.1113
 1378W        W17562   1.560   1.601  15.796  0.2772 -0.0518  0.2249
 1379W        W17563  10.979   4.703   5.142 -0.0832  0.1504  0.1907
 1380W        W17564   6.599   9.956   4.624  0.0147  0.2188  0.0500
 1381W        W17565   6.340  12.811  14.020 -0.1946 -0.0420 -0.1883
 1382W        W17566   3.307  14.464   0.826 -0.0931  0.1643  0.0538
 1383W        W17567   8.923   8.937   2.798 -0.2246  0.3217  0.1703
 1384W        W17568   0.420   1.343  15.042 -0.2146  0.0652 -0.0983
 1385W        W17569   4.913  16.230  14.119  0.0123  0.0135 -0.2682
 1386W        W17570  14.300   0.483  16.235 -0.1152 -0.2266  0.0343
 1387W        W17571   5.410   6.794   3.083  0.1975 -0.4213 -0.0281
 1388W        W17572   1.028  13.405   0.653  0.1422  0.2291  0.2474
 1389W        W17573   5.406   0.080  15.400  0.3045  0.0456  0.0056
 1390W        W17574   9.363   9.875  15.958 -0.2465 -0.0972 -0.1912
 1391W        W17575   3.731   2.201   3.520 -0.1771  0.1136  0.2586
 1392W        W17576   8.734  13.352  15.756  0.0609 -0.0840 -0.0145
 1393W        W17577  16.524   5.900  12.879 -0.1107  0.0064  0.0035
 1394W        W17578  13.345  17.696   5.870 -0.0226  0.1302  0.1371
 1395W        W17579   2.421  17.009   1.356 -0.1625 -0.1098  0.0918
 1396W        W17580  17.628  13.278   3.478 -0.0126  0.1413 -0.4947
 1397W        W17581   5.964  17.926   1.904  0.0135  0.0373 -0.4212
 1398W        W17582  12.564  13.984   2.980 -0.1566 -0.0602 -0.2047
 1399W        W17583   5.050   6.920  16.329  0.3034  0.0460  0.3200
 1400W        W17584   8.409   1.450  13.075  0.0485  0.3506 -0.2558
 1401W        W17585  11.836   4.963   4.845 -0.1314 -0.1528  0.1955
 1402W        W17586   0.237  10.671   3.118 -0.2421  0.1694  0.1908
 1403W        W17587  17.792   3.538  16.283 -0.3370  0.0456  0.3063
 1404W        W17588  14.606   9.351   2.882 -0.0622 -0.2074 -0.0442
 1405W        W17589  12.822  16.973   5.504  0.4543  0.0493 -0.0552
 1406W        W17590  15.077   3.342   3.296  0.1365 -0.2087  0.0746
 1407W        W17591   9.810  17.461   1.254  0.0060 -0.1503  0.0789
 1408W        W17592   2.250   8.032   6.308 -0.0115  0.0714 -0.3344
 1409W        W17593   4.186   1.623  14.146  0.2102  0.0346 -0.0018
 1410W        W17594  11.469   7.028  12.040  0.0920 -0.1409  0.2407
 1411W        W17595   3.650   5.437   4.464  0.2384 -0.0689 -0.4055
 1412W        W17596   4.491   9.782  11.477  0.2072 -0.0504  0.2293
 1413W        W17597   6.579   8.715   4.396 -0.0721  0.0778 -0.1641
 1414W        W17598   6.677   4.737   4.862 -0.0625  0.0460 -0.2465
 1415W        W17599   4.688  12.273  15.257  0.2086  0.0676  0.3901
 1416W        W17600   3.228   1.222   0.139  0.0716  0.0609  0.3728
 1417W        W17601  16.822   7.885   1.944  0.1763 -0.1330 -0.0683
 1418W        W17602   1.346   2.372  13.701 -0.0196 -0.2931  0.0620
 1419W        W17603   5.753   4.326   2.342 -0.0118  0.4208  0.2680
 1420W        W17604  14.365  14.770   2.706  0.0942  0.0475 -0.0023
 1421W        W17605   4.184  11.294   3.018  0.1725 -0.0815  0.1181
 1422W        W17606   7.948  14.333   0.965 -0.0591  0.1069  0.1197
 1423W        W17607   1.423   9.409  13.668 -0.1815 -0.2034 -0.0496
 1424W        W17608  14.903   7.278   0.670 -0.0551 -0.1343  0.0237
 1425W        W17609   8.220   1.365   3.361 -0.1260  0.1196  0.0399
 1426W        W17610   0.833   9.244  13.563  0.0626 -0.1070  0.1076
 1427W        W17611   0.124  15.492  13.890 -0.0900 -0.0537  0.0145
 1428W        W17612  14.921  14.041  11.738  0.0857  0.1603  0.2149
 1429W        W17613  12.532  13.864  15.033  0.1508  0.0002  0.0748
 1430W        W17614   7.030  10.476  15.904 -0.3960 -0.0646 -0.1037
 1431W        W17615   4.444   1.637   2.820  0.1281 -0.0877  0.3295
 1432W        W17616   3.370  14.526  15.032  0.0505 -0.1824 -0.2014
 1433W        W17617   7.702   8.778   2.428  0.0405  0.2503  0.0437
 1434W        W17618   9.704   0.352  16.516  0.0866  0.1783 -0.1363
 1435W        W17619   0.631   5.250   2.071 -0.0632 -0.1176  0.1475
 1436W        W17620   3.415   4.199   2.211  0.1554 -0.1561 -0.1360
 1437W        W17621  10.747  15.545  14.060 -0.1410  0.0943  0.0322
 1438W        W17622  16.690   0.796   3.715  0.1366 -0.0135 -0.2130
 1439W        W17623  14.610  10.957   1.733  0.1433 -0.0050  0.2059
 1440W        W17624  17.012  16.444  16.100 -0.0570  0.2540  0.1077
 1441W        W17625   3.072   4.394   5.469  0.2384 -0.0668  0.1496
 1442W        W17626   8.270   2.220  12.728  0.4436  0.0546  0.1996
 1443W        W17627   3.889   5.850   0.062  0.4357 -0.3835  0.0009
 1444W        W17628  12.413  14.860  12.913 -0.0492  0.0193  0.1125
 1445W        W17629   1.770   2.895   4.769  0.2022  0.2486 -0.0592
 1446W        W17630  13.302   4.972  12.082 -0.2514 -0.0710 -0.1198
 1447W        W17631   9.359   5.097  13.495 -0.0120  0.2315 -0.1151
 1448W        W17632   3.724   3.684  13.748  0.0360 -0.0685  0.0292
 1449W        W17633   1.331  16.886  16.298  0.2534  0.1627 -0.0815
 1450W        W17634  13.909  10.329   5.115 -0.1628  0.1641 -0.0448
 1451W        W17635   7.329  10.607  12.381 -0.1075 -0.0298 -0.1243
 1452W        W17636   8.290   7.394   6.328 -0.3342 -0.3797  0.1304
 1453W        W17637  12.136  11.675  14.274  0.3202  0.0413  0.1871
 1454W        W17638   2.622   4.335  14.505 -0.3003  0.2319 -0.2556
 1455W        W17639  11.745   6.912   1.427  0.2149  0.1283 -0.0377
 1456W        W17640  12.981   8.711  14.284  0.0513  0.2863  0.3458
 1457W        W17641  17.436   4.356  13.064 -0.0316 -0.1389  0.0909
 1458W        W17642   1.328  15.745  16.226 -0.1248 -0.0718 -0.0411
 1459W        W17643   8.890   6.422  12.367  0.0281  0.1947 -0.1515
 1460W        W17644   2.601  16.825  15.436  0.1069 -0.1353  0.0613
 1461W        W17645   3.572  16.373   2.096  0.1548  0.3210 -0.0790
 1462W        W17646  14.138   8.564   5.350  0.0634  0.1259  0.3813
 1463W        W17647   3.179   7.470   4.057 -0.3418 -0.3098 -0.2024
 1464W        W17648  10.230   1.885   4.553 -0.3475  0.0298  0.1208
 1465W        W17649   3.207   4.295  13.726 -0.0756 -0.1095  0.2054
 1466W        W17650   4.872   4.867  14.814  0.0082  0.0457  0.3830
 1467W        W17651   5.300  15.334  15.936  0.2015 -0.1130  0.4987
 1468W        W17652  15.623   5.617   1.409 -0.1056 -0.1673 -0.1441
 1469W        W17653   7.604  11.378   2.459  0.1981 -0.3705  0.0741
 1470W        W17654   9.020   3.713   5.903  0.2522  0.1621  0.1883
 1471W        W17655   1.119  11.535   3.337 -0.0017  0.1807  0.1267
 1472W        W17656   3.814  13.575  15.199 -0.1129  0.0842 -0.3437
 1473W        W17657   4.454   6.807   2.884 -0.0323 -0.0832 -0.1838
 1474W        W17658   1.443   6.527   0.437  0.2311 -0.3093  0.4093
 1475W        W17659  11.065   2.668   2.015  0.1746  0.0513 -0.1392
 1476W        W17660   7.857  17.168  11.745  0.0338  0.0713 -0.3450
 1477W        W17661  11.900   0.613   5.539 -0.1208 -0.1862 -0.2127
 1478W        W17662  11.958  17.877   4.087  0.1351 -0.0481  0.3968
 1479W        W17663  12.933  11.694   2.028 -0.1042  0.0740  0.1088
 1480W        W17664   4.579   4.007   0.491 -0.1461  0.0997 -0.0100
 1481W        W17665  12.356   7.369  14.019 -0.1495  0.2209 -0.2098
 1482W        W17666   3.371  17.752  16.559 -0.1649  0.0923  0.3152
 1483W        W17667  11.498   7.189  12.521  0.3375 -0.0394  0.1746
 1484W        W17668   9.586   7.808  11.990 -0.0707 -0.0632 -0.0708
 1485W        W17669   8.907   0.800  15.061 -0.0550 -0.2424 -0.1791
 1486W        W17670   4.130  11.120   0.143  0.0874  0.2088 -0.1343
 1487W        W17671   9.076  12.285   0.533 -0.1423  0.0385 -0.0075
 1488W        W17672   5.459   8.524   3.416 -0.4059  0.1148  0.1018
 1489W        W17673   2.112  11.183   4.937  0.0493  0.2577 -0.0141
 1490W        W17674   1.401  17.412   3.760 -0.1160 -0.0257  0.0618
 1491W        W17675   2.695  13.351  15.531  0.1575  0.1131  0.1711
 1492W        W17676  10.992   0.342   6.108 -0.1012 -0.2872 -0.0209
 1493W        W17677   2.674  11.671   3.757  0.0346  0.0006  0.0483
 1494W        W17678   8.902  14.751  13.342 -0.2186 -0.0102  0.2832
 1495W        W17679  15.124   9.865  14.014 -0.0355 -0.2376  0.0252
 1496W        W17680   9.168   2.351   1.021  0.2627 -0.1085  0.1689
 1497W        W17681  13.688   9.606   0.332 -0.0739  0.1954  0.0893
 1498W        W17682   1.079   5.418   3.754  0.1897  0.2224 -0.0771
 1499W        W17683  12.135   6.902   3.650 -0.0138 -0.2182  0.1927
 1500W        W17684  12.590   5.210   5.093 -0.1554  0.0224 -0.1216
 1501W        W17685  12.910  10.501  10.773 -0.3431  0.3145  0.2808
 1502W        W17686  15.800  13.594   5.510  0.1159 -0.1196 -0.1264
 1503W        W17687  13.887   1.187  15.750 -0.1068  0.2950 -0.2789
 1504W        W17688  10.575  15.528   3.526 -0.0013  0.1839  0.1436
 1505W        W17689  17.209   1.390  14.889 -0.0952  0.0146 -0.1444
 1506W        W17690   1.056  11.564  14.994 -0.0008 -0.0367  0.0557
 1507W        W17691   1.467  11.193   4.330 -0.2513  0.2187  0.0125
 1508W        W17692   2.728   4.777   3.486 -0.2868  0.0958  0.0568
 1509W        W17693   6.815  13.681  12.129 -0.0088  0.0172  0.0410
 1510W        W17694   7.658   9.251   5.886  0.0850 -0.1923  0.0973
 1511W        W17695   0.636  11.922  15.776  0.1429 -0.3490 -0.0116
 1512W        W17696  16.906   1.072  11.818 -0.2695 -0.1992 -0.0802
 1513W        W17697  13.512  14.294   2.730  0.1592 -0.0881 -0.0831
 1514W        W17698  13.482   5.117   1.667 -0.2400 -0.2575  0.3257
 1515W        W17699  17.306  10.180   6.116 -0.3063  0.1798  0.0425
 1516W        W17700   6.035   6.835  13.815  0.1836  0.2020 -0.0063
 1517W        W17701  10.395  12.052   2.368 -0.0935  0.0179  0.0773
 1518W        W17702  10.619   2.165   4.649 -0.3948  0.1865  0.2508
 1519W        W17703  13.062  10.232  14.530 -0.1170  0.2199  0.2608
 1520W        W17704  10.040   2.731   1.473  0.1802  0.0192  0.1190
 1521W        W17705   2.662  12.275  12.551 -0.0328 -0.2223  0.0873
 1522W        W17706   5.869  17.471   1.646 -0.1041 -0.3066 -0.3372
 1523W        W17707   1.815   4.931  16.636  0.0618 -0.4026  0.1074
 1524W        W17708  16.738   0.917   3.246 -0.2106  0.1235  0.0118
 1525W        W17709   3.030   1.397   2.993  0.3535  0.3980  0.2319
 1526W        W17710  14.800   5.726   5.342  0.1567 -0.0968  0.0302
 1527W        W17711   0.352   0.058   0.926 -0.1140 -0.2141 -0.1483
 1528W        W17712  15.820   2.381  14.668  0.2349 -0.1296  0.2867
 1529W        W17713   4.715  14.624   4.679  0.1321 -0.2341  0.1097
 1530W        W17714   9.530  10.118   3.013 -0.0849  0.0789 -0.1273
 1531W        W17715  17.707   4.253  15.180  0.3930 -0.0552  0.0478
 1532W        W17716  11.761  15.479   1.593 -0.2796  0.0614 -0.0829
 1533W        W17717   1.937  13.374   2.627 -0.2217  0.0344 -0.0024
 1534W        W17718   0.925   2.949   2.210  0.1231  0.0510 -0.1427
 1535W        W17719   9.182  17.198   1.430 -0.1919 -0.1170 -0.1088
 1536W        W17720   7.290  17.972  12.661  0.0090  0.1925 -0.0870
 1537W        W17721  12.399  12.404   5.005  0.3639  0.1147  0.1460
 1538W        W17722  15.558  16.677   2.756 -0.0497  0.1881 -0.0240
 1539W        W17723   8.328   1.123   2.926 -0.3389 -0.0499  0.1031
 1540W        W17724   2.494   3.488   0.886  0.0012 -0.0160 -0.1946
 1541W        W17725   1.171  14.693  11.755 -0.1360 -0.0802 -0.0168
 1542W        W17726  13.331   5.785  15.586 -0.1306  0.1095 -0.0357
 1543W        W17727  17.526   3.747  13.614  0.0863 -0.1595  0.1371
 1544W        W17728  12.865   6.026  15.561  0.0327 -0.0720 -0.3573
 1545W        W17729   2.306   0.746  13.979 -0.0761  0.0023  0.1980
 1546W        W17730   6.518   9.162  12.556 -0.0387  0.0168 -0.0183
 1547W        W17731   4.854   7.787  15.994 -0.1587 -0.0252  0.0814
 1548W        W17732  16.915   8.742   5.877  0.0631  0.2026 -0.0358
 1549W        W17733   8.796   4.913  14.237 -0.1229 -0.2287 -0.0846
 1550W        W17734   6.420   0.748   4.706 -0.0022 -0.0618 -0.1446
 1551W        W17735  13.348  17.315   3.117 -0.1013 -0.3842 -0.0331
 1552W        W17736   2.414  17.145  14.202 -0.0772  0.2130 -0.4556
 1553W        W17737   3.331   8.635   3.969 -0.1393 -0.1118  0.2799
 1554W        W17738  14.830  10.702  14.213  0.1121  0.1765 -0.0827
 1555W        W17739  15.735  12.812  13.626  0.0081 -0.0285  0.1760
 1556W        W17740   7.894   6.519  12.693 -0.1400 -0.1862  0.1229
 1557W        W17741   6.290  15.124   1.023 -0.1007  0.0078 -0.2445
 1558W        W17742   7.933   5.221  13.430 -0.2095 -0.1126  0.1038
 1559W        W17743   4.698   4.674   2.104 -0.1525 -0.1172  0.0803
 1560W        W17744  11.730   8.090  14.240 -0.2039  0.0296 -0.0631
 1561W        W17745   7.355   4.047   0.404 -0.0319  0.0374  0.0106
 1562W        W17746  17.002   8.926  11.418  0.1555 -0.0686  0.0647
 1563W        W17747   7.042   3.412  11.639  0.2842  0.1128  0.0103
 1564W        W17748  13.766   2.448  14.792 -0.0780  0.0127  0.0577
 1565W        W17749  17.622  14.911  11.557  0.2884 -0.1132  0.2294
 1566W        W17750   2.773  17.464   4.321  0.1309 -0.2737  0.1246
 1567W        W17751   1.610  15.168  12.122 -0.1177 -0.0677  0.2016
 1568W        W17752   9.655  10.572  12.365  0.3291  0.1033 -0.4322
 1569W        W17753  13.588  15.804   4.955 -0.1798  0.0210  0.1408
 1570W        W17754  12.802  14.362   3.247  0.1955  0.2527 -0.1717
 1571W        W17755  17.546  14.089  16.268 -0.3735 -0.2380 -0.1481
 1572W        W17756  15.128  14.930  15.171 -0.1569  0.0713  0.0678
 1573W        W17757  17.868   2.896  14.218  0.0414  0.2133  0.2204
 1574W        W17758   3.097  14.065   1.887  0.2161 -0.1623 -0.1080
 1575W        W17759  15.372  15.583   0.306 -0.1616  0.0673  0.1423
 1576W        W17760  13.757  16.920   1.713  0.1215 -0.0658  0.1096
 1577W        W17761  15.637  12.825   4.273  0.0104 -0.0154  0.0264
 1578W        W17762   4.728   5.660  14.582  0.0692 -0.1564  0.2146
 1579W        W17763  16.049  17.632  14.024 -0.1831  0.2864 -0.3212
 1580W        W17764   6.347  10.440   3.440  0.0864  0.0041  0.2773
 1581W        W17765   6.780   0.981   2.149  0.2310 -0.0610 -0.3398
 1582W        W17766   9.294  13.810   3.690 -0.2047  0.0562  0.1631
 1583W        W17767   1.083   2.153   3.830 -0.2715  0.3533 -0.0904
 1584W        W17768  11.137  11.818  15.126  0.0724  0.0657 -0.2994
 1585W        W17769   2.661   5.968   6.073  0.0922  0.1444 -0.0093
 1586W        W17770   6.482  12.415   3.872  0.4281  0.1111  0.0952
 1587W        W17771   6.852   0.565   0.920  0.0738 -0.2909 -0.1162
 1588W        W17772   1.746   0.963   3.777  0.0932 -0.2471  0.1230
 1589W        W17773   5.376   9.161   0.358  0.1831 -0.3788  0.2528
 1590W        W17774  10.545   1.036  16.560 -0.2771  0.1466 -0.2766
 1591W        W17775  17.899  12.443   2.721 -0.0023  0.0956 -0.2246
 1592W        W17776   9.487   9.901  12.987  0.0504  0.1005  0.1481
 1593W        W17777  12.742   5.454   4.063 -0.0467 -0.0090  0.1549
 1594W        W17778   4.491  14.318   5.072 -0.0556 -0.2397 -0.4909
 1595W        W17779  13.014   0.482   3.696 -0.3584 -0.3424 -0.0941
 1596W        W17780  12.714  16.512   4.733 -0.1139 -0.2348  0.2343
 1597W        W17781  14.676   3.542  14.043  0.2885 -0.1936 -0.1844
 1598W        W17782  12.047   1.828  15.270  0.2145 -0.2790  0.1450
 1599W        W17783  16.709   0.175   1.909  0.0897 -0.3092  0.0298
 1600W        W17784   1.246  17.774   5.182 -0.0160 -0.2946  0.2195
 1601W        W17785  14.304   1.277  15.402  0.0456 -0.1531 -0.0900
 1602W        W17786  12.509  16.203  13.388  0.1090 -0.0821 -0.0502
 1603W        W17787   0.665  13.991  13.248 -0.1417 -0.0086  0.1337
 1604W        W17788  17.585  12.242   3.046 -0.3242  0.0798  0.0392
 1605W        W17789   0.575   0.064  16.001 -0.1791  0.3417  0.0305
 1606W        W17790  13.801  15.702   4.431 -0.0118 -0.2273 -0.0894
 1607W        W17791  17.664   2.148   2.790  0.1204  0.1707 -0.2397
 1608W        W17792  10.422  17.281  14.366  0.1190  0.1748  0.0362
 1609W        W17793   4.366   8.830  12.895 -0.0731 -0.0388 -0.0537
 1610W        W17794   8.131  15.868   2.318  0.0317  0.0646 -0.0834
 1611W        W17795  16.097   9.767   4.992 -0.1447  0.1143 -0.2788
 1612W        W17796   5.317   6.965  14.227  0.0419  0.2103  0.1469
 1613W        W17797   9.666   5.210   4.015  0.1367 -0.0072  0.0921
 1614W        W17798   8.228   5.921   6.176  0.2769 -0.1406 -0.0224
 1615W        W17799   5.491  13.492  11.991 -0.0715 -0.0236 -0.1204
 1616W        W17800  17.745  13.050  13.014  0.1284 -0.0635  0.0707
 1617W        W17801   5.743   5.522  13.394  0.1011  0.0486  0.1272
 1618W        W17802   8.733  12.551   3.944  0.0957  0.2357 -0.1047
 1619W        W17803   1.799   5.406  16.254 -0.2748 -0.0593  0.0780
 1620W        W17804   4.593  13.428   0.159 -0.1911 -0.0421 -0.0188
 1621W        W17805   7.396   8.054   0.486 -0.4548  0.3065  0.3384
 1622W        W17806  15.876  13.869   3.600 -0.2944  0.1114 -0.1317
 1623W        W17807  16.417   6.893  14.276  0.0143 -0.3524 -0.1674
 1624W        W17808  16.896   7.910   1.372 -0.4011 -0.0698  0.3245
 1625W        W17809   2.357  13.243   1.782 -0.0044  0.1336 -0.3792
 1626W        W17810   9.808   4.000   3.645  0.1649  0.0602 -0.0369
 1627W        W17811   4.558   5.327   0.057  0.2110 -0.0276  0.0376
 1628W        W17812  10.654   5.716  16.159  0.0984 -0.0457  0.1160
 1629W        W17813   0.758  15.281  15.824 -0.0362 -0.0017 -0.1500
 1630W        W17814   9.374   1.404  13.588  0.0645  0.2128 -0.4815
 1631W        W17815   5.375   3.072  13.468  0.0142 -0.0502  0.3365
 1632W        W17816   9.399   2.253  15.656  0.2042 -0.2054  0.0808
 1633W        W17817  14.777   1.226   4.090  0.0975 -0.0960  0.0279
 1634W        W17818  12.591   7.552  15.709 -0.0926 -0.2002 -0.0607
 1635W        W17819   3.483   1.498  14.260  0.3163 -0.0196  0.1493
 1636W        W17820   0.658   4.019  11.800 -0.3813 -0.0718 -0.0918
 1637W        W17821   9.626   9.728   3.892 -0.0555 -0.3611  0.1643
 1638W        W17822   0.518   1.896  15.994 -0.2061 -0.0909 -0.1305
 1639W        W17823  14.173   4.948  12.259 -0.1251 -0.1422 -0.0401
 1640W        W17824   2.535  16.555  11.244 -0.0171 -0.2541  0.0786
 1641W        W17825   6.279  16.282   0.486 -0.0942  0.3447 -0.3957
 1642W        W17826   4.206   3.808  13.595  0.0888 -0.3756 -0.0064
 1643W        W17827   5.271  15.346  13.131 -0.0838  0.1259 -0.4537
 1644W        W17828   6.385   5.913   5.303 -0.1934  0.0262  0.3048
 1645W        W17829   2.437  14.901  10.749 -0.0358  0.0685  0.2891
 1646W        W17830  11.024   9.318   2.035 -0.0697 -0.0372  0.0887
 1647W        W17831   2.470  16.789  12.126 -0.1170  0.1978  0.3022
 1648W        W17832   5.561   6.625  13.870  0.2105  0.0578  0.1347
 1649W        W17833  15.185   6.552   5.377 -0.1156 -0.0024 -0.1963
 1650W        W17834  17.729  11.820  13.864 -0.1447 -0.1177 -0.1684
 1651W        W17835   6.648  13.257   0.631  0.1430 -0.1586 -0.1660
 1652W        W17836  16.573   2.449  16.168 -0.1267  0.2248  0.2655
 1653W        W17837   8.785  10.517  15.344 -0.2317 -0.2370  0.0709
 1654W        W17838   9.803   0.601   1.685 -0.0042 -0.2800  0.2259
 1655W        W17839  14.794   5.033   1.369  0.3410  0.0255  0.1638
 1656W        W17840  10.026  12.665   4.190 -0.0195 -0.2300  0.2770
 1657W        W17841   4.327   0.181  14.638 -0.0810 -0.1903 -0.0690
 1658W        W17842   8.080  12.697  12.517  0.0553 -0.1497  0.1857
 1659W        W17843   9.834   3.448   4.984  0.1691  0.1982  0.0614
 1660W        W17844   1.406   3.726   5.165  0.0394  0.0562  0.1368
 1661W        W17845   3.832  15.338  13.494 -0.0382 -0.0775  0.0906
 1662W        W17846  17.192  17.946  12.250 -0.0398  0.2826 -0.2111
 1663W        W17847   9.574   9.569   5.322  0.0191 -0.2718  0.1759
 1664W        W17848  17.259  14.691  11.837  0.0096 -0.1997  0.1114
 1665W        W17849   9.527  11.607  15.747 -0.2576  0.2703  0.2199
 1666W        W17850   7.891   8.205  12.312  0.0939 -0.2698 -0.0834
 1667W        W17851   7.293  10.762   5.003 -0.0395 -0.1999  0.3468
 1668W        W17852  16.126  12.694  12.133  0.1266  0.0209  0.3064
 1669W        W17853  13.921   6.898  15.817 -0.0832 -0.1947 -0.0548
 1670W        W17854  10.705  11.082   5.533 -0.2532  0.3435 -0.2644
 1671W        W17855   5.126  11.168  11.516  0.2738  0.2950  0.0419
 1672W        W17856   0.383   1.876   0.907  0.2966  0.2419  0.1985
 1673W        W17857   2.507   8.206   0.743  0.0270 -0.1105 -0.1183
 1674W        W17858   1.554  10.036  15.592 -0.1076 -0.1103 -0.2371
 1675W        W17859  17.812   2.187   1.384 -0.1449  0.2048  0.1087
 1676W        W17860   6.118  11.579  13.104 -0.3003 -0.1252 -0.0155
 1677W        W17861  12.883   4.458  15.398 -0.0057 -0.2227  0.0221
 1678W        W17862   3.394   8.159   2.730  0.0339 -0.3354  0.3544
 1679W        W17863  17.264   5.998  13.971 -0.0634 -0.3610 -0.0386
 1680W        W17864  10.202  15.796  11.683  0.2100  0.1708  0.2512
 1681W        W17865   5.201   3.700  13.971 -0.0836  0.0064  0.1947
 1682W        W17866   9.060  12.282  11.683  0.0799  0.1743  0.0041
 1683W        W17867  17.236  11.259   0.823  0.2134  0.1251 -0.0766
 1684W        W17868  10.994  16.920  16.514 -0.1663 -0.0429  0.2121
 1685W        W17869   6.018   5.161   5.365 -0.1412  0.0877 -0.1244
 1686W        W17870   2.302  14.366   0.984 -0.3197  0.0008 -0.0380
 1687W        W17871   7.919   9.736   0.262 -0.1096 -0.0244  0.0588
 1688W        W17872  12.007  11.135   0.053  0.1466  0.1665  0.4234
 1689W        W17873   5.669   5.358   1.135 -0.0254  0.2005  0.0648
 1690W        W17874  16.517   6.143   1.486  0.0055  0.0505 -0.4617
 1691W        W17875  14.551   2.532   6.499  0.0642  0.0129  0.1074
 1692W        W17876  15.246   0.871  11.101  0.0727  0.0461  0.2277
 1693W        W17877   1.948  11.563   3.111  0.1758 -0.1413  0.0741
 1694W        W17878  13.234  17.289   5.536 -0.2486  0.2296  0.2257
 1695W        W17879   0.661   1.569   3.455 -0.2417 -0.0412 -0.1322
 1696W        W17880   2.742  10.346   3.738 -0.0277  0.0158  0.1856
 1697W        W17881   6.415  15.793   2.714  0.0404  0.0402  0.3615
 1698W        W17882  10.906   5.868  12.704  0.1297  0.2038 -0.0406
 1699W        W17883  13.814   2.590   5.587  0.2084  0.1553  0.1093
 1700W        W17884   2.373  16.192   1.901  0.0096 -0.0216  0.1124
 1701W        W17885  17.079   6.441  11.612  0.0837 -0.3408  0.1027
 1702W        W17886  10.160  11.586   6.157 -0.1221  0.1349  0.1732
 1703W        W17887   9.094   2.980   2.911 -0.2823 -0.0072  0.1420
 1704W        W17888   3.448   6.737  15.830  0.4147  0.1116 -0.3244
 1705W        W17889   1.030  12.667   3.676 -0.1727 -0.1034 -0.4693
 1706W        W17890   0.176  10.103  15.141 -0.0451  0.1618  0.2197
 1707W        W17891   8.011  16.533   5.308 -0.1909 -0.0978 -0.3723
 1708W        W17892  14.565  10.638   3.058 -0.0509  0.0472 -0.0209
 1709W        W17893  17.965   7.573  15.444 -0.0183  0.4025  0.3003
 1710W        W17894   2.404  15.814   5.337 -0.0656  0.1301 -0.1385
 1711W        W17895   2.125   0.323   3.031 -0.0329  0.2636  0.1836
 1712W        W17896   5.280   6.271   3.035 -0.2806  0.2025  0.0931
 1713W        W17897   5.818   5.192   4.035 -0.3318  0.0384  0.0007
 1714W        W17898   9.985   3.898  11.559 -0.0436 -0.2275 -0.0805
 1715W        W17899  16.947   7.416   5.115  0.2533 -0.0672 -0.3057
 1716W        W17900   4.549   9.397   0.387  0.2229  0.0043  0.1310
 1717W        W17901   4.150   1.874   5.447  0.3321 -0.0420  0.2644
 1718W        W17902   9.999   4.710   1.216 -0.3836 -0.1312 -0.0004
 1719W        W17903   1.384   9.862   1.021  0.0725  0.3098  0.4078
 1720W        W17904   6.985   2.421  16.001  0.1041  0.0285 -0.1951
 1721W        W17905   6.210   2.065  16.509  0.0770 -0.1505  0.1179
 1722W        W17906  14.289  10.752  12.843  0.2592  0.0384  0.0980
 1723W        W17907  13.019   1.195  13.286  0.0405  0.0215  0.0102
 1724W        W17908  11.443   5.647   3.618 -0.2094 -0.1263  0.3680
 1725W        W17909   9.153  11.702   1.219  0.3790 -0.1000  0.1552
 1726W        W17910   0.325   5.910   2.788  0.0823 -0.0260  0.1012
 1727W        W17911  12.405  17.600   2.462 -0.2117 -0.0447 -0.1286
 1728W        W17912   2.212  12.850   2.053  0.0530 -0.1754 -0.0421
 1729W        W17913   1.813   2.445   2.166 -0.1040  0.0198  0.2436
 1730W        W17914  10.509  12.885  12.695 -0.0216  0.0731 -0.1208
 1731W        W17915   1.508  13.480   3.069  0.2607 -0.2194  0.0475
 1732W        W17916  14.136   0.824  14.264  0.0476 -0.1483 -0.0379
 1733W        W17917   7.026  12.656  12.573  0.2499 -0.0527  0.1173
 1734W        W17918  14.740   8.034  14.925 -0.2190  0.4076 -0.2008
 1735W        W17919   0.833  13.782   0.859 -0.2842  0.1456  0.1439
 1736W        W17920   7.188   7.941   5.858 -0.3885  0.0105 -0.0216
 1737W        W17921   3.683  11.296   0.441 -0.1472 -0.0968  0.4396
 1738W        W17922  14.583  10.600   5.378  0.1618 -0.0584 -0.1029
 1739W        W17923   1.396  13.740  11.682  0.0580  0.2313  0.0194
 1740W        W17924  15.681  11.637   1.562  0.1374 -0.1505 -0.1784
 1741W        W17925  10.097  11.384   0.720  0.4497 -0.0426 -0.0590
 1742W        W17926   5.595   4.683   2.662  0.0495  0.4258  0.0200
 1743W        W17927   3.494   7.605  15.910 -0.3778  0.1107  0.0646
 1744W        W17928  16.192   2.779  16.203  0.3400  0.2171  0.0684
 1745W        W17929  10.768   6.651   3.304 -0.1502  0.0005  0.0858
 1746W        W17930   5.540  12.198   4.775 -0.1903 -0.0681 -0.1778
 1747W        W17931   7.292   5.439   2.358 -0.0606 -0.1244  0.1957
 1748W        W17932   8.178  16.918   5.970 -0.1232 -0.0892  0.1295
 1749W        W17933  16.525   9.738   2.424 -0.1802 -0.1031 -0.0496
 1750W        W17934   8.536   3.261  14.863  0.0774 -0.0385 -0.2347
 1751W        W17935  15.072  10.588  11.623 -0.0047 -0.1238  0.2568
 1752W        W17936   7.764  12.240   1.786  0.2306  0.2271 -0.0678
 1753W        W17937   9.734   6.162  15.394  0.0958 -0.1636  0.1276
 1754W        W17938   6.956  11.166  15.627 -0.3378 -0.1016 -0.0635
 1755W        W17939   5.335   7.141   2.565 -0.1103  0.0681  0.0782
 1756W        W17940  12.274   4.939   2.663  0.2958  0.0173  0.0612
 1757W        W17941   1.038   5.250  13.182 -0.0032 -0.0747  0.1323
 1758W        W17942   3.223  11.565  12.581 -0.0577  0.0515  0.2712
 1759W        W17943   0.715   3.243   3.154 -0.1483 -0.0988  0.2451
 1760W        W17944   0.956  11.601  12.795 -0.0632 -0.0041  0.3347
 1761W        W17945  14.441  17.833   3.527  0.2391  0.0290 -0.3316
 1762W        W17946   2.738   2.005   5.152  0.0109 -0.2041  0.3278
 1763W        W17947  17.235   9.605  15.911  0.0534  0.0639 -0.2297
 1764W        W17948  11.916   2.642  15.688  0.3424  0.1796  0.0087
 1765W        W17949   4.228   4.647   3.996  0.0309 -0.0714  0.0932
 1766W        W17950   7.196   4.278   4.152 -0.1465 -0.0560  0.1867
 1767W        W17951  15.890   8.676   1.948 -0.1962 -0.1401  0.1106
 1768W        W17952  13.526  10.263  14.882 -0.1396  0.2026 -0.2655
 1769W        W17953  10.211   7.125  16.431 -0.2374  0.1245  0.2204
 1770W        W17954   2.011  11.649   1.637 -0.0827 -0.0050  0.1698
 1771W        W17955   1.849  15.734  16.368  0.4245 -0.1929 -0.3075
 1772W        W17956  14.377  17.811  12.189 -0.0513 -0.3681  0.2140
 1773W        W17957   0.926   9.957  11.581 -0.1172 -0.0501 -0.2356
 1774W        W17958   7.514  15.511  13.865  0.5024  0.1396 -0.0422
 1775W        W17959  15.297  12.633  15.270 -0.2019  0.0166  0.2680
 1776W        W17960   2.996   1.579  13.212 -0.1621 -0.0479  0.0182
 1777W        W17961   5.718  12.533   5.091  0.3917 -0.2332  0.3975
 1778W        W17962  16.407   0.573   1.718  0.2122  0.0593 -0.2028
 1779W        W17963   9.173   1.472  15.599  0.1785  0.0554 -0.1208
 1780W        W17964   8.299   2.821  11.368  0.0138 -0.1479 -0.1191
 1781W        W17965   5.486  17.770   1.940  0.0300  0.2631 -0.0960
 1782W        W17966  17.908   2.941   3.150 -0.1515 -0.3478  0.3332
 1783W        W17967   7.815  11.940   0.939 -0.3420 -0.0385  0.1376
 1784W        W17968  16.127   2.007  12.080  0.2143  0.2518 -0.0518
 1785W        W17969  14.354   0.829  12.589  0.2240  0.2532 -0.4452
 1786W        W17970   0.081  11.030   4.394 -0.0933  0.1301 -0.2848
 1787W        W17971   4.158   1.019  15.820  0.1852 -0.1518 -0.4342
 1788W        W17972  17.595  15.570  15.176  0.5016 -0.0591  0.0085
 1789W        W17973   5.174   0.446  14.275  0.0633  0.0511 -0.2657
 1790W        W17974  10.875   1.447   0.623  0.1151  0.0799 -0.2159
 1791W        W17975   6.413   8.810   0.458  0.0805  0.3387 -0.3864
 1792W        W17976  16.798  14.523   3.898 -0.0713  0.1046 -0.1424
 1793W        W17977   4.187   9.243  12.678 -0.0465  0.2187  0.0398
 1794W        W17978  16.204  17.980   5.418 -0.0391 -0.0324 -0.0600
 1795W        W17979   8.379  13.398   0.188  0.1991  0.0946  0.0875
 1796W        W17980  10.509  14.454   0.787  0.0523 -0.0016 -0.2965
 1797W        W17981   3.085   4.796  12.396 -0.2878 -0.2523  0.2435
 1798W        W17982  10.904   1.832   4.886 -0.3484 -0.0335  0.0688
 1799W        W17983   8.635  14.658   3.760 -0.0848  0.4119  0.1120
 1800W        W17984   3.268   0.509   1.324  0.1160  0.0778 -0.0801
 1801W        W17985   9.730   7.170   2.674  0.0873 -0.1417  0.2377
 1802W        W17986   3.017   4.586  13.248 -0.0480 -0.3410 -0.0823
 1803W        W17987  17.244  14.298  16.593 -0.0983 -0.3531 -0.2087
 1804W        W17988  11.342  13.967  13.225 -0.1701 -0.1163 -0.1675
 1805W        W17989  17.296   7.166  12.027 -0.1937  0.0338 -0.2670
 1806W        W17990   9.883   7.026   3.679  0.1529 -0.0430 -0.1125
 1807W        W17991  13.823  12.753  15.107  0.0191  0.1484  0.1263
 1808W        W17992  11.182  12.620  15.790  0.0071  0.0994 -0.1675
 1809W        W17993  15.529   3.628  14.007 -0.1830 -0.0293 -0.0307
 1810W        W17994  17.685   1.593   4.125 -0.2953 -0.1753  0.0657
 1811W        W17995  11.977  14.085   0.444  0.1668 -0.0007 -0.1725
 1812W        W17996   5.769  17.024   4.061  0.1527  0.0884  0.3168
 1813W        W17997   2.613   3.121   5.197  0.4461  0.1051  0.1278
 1814W        W17998   9.980   0.807  13.692 -0.1661 -0.3043  0.1232
 1815W        W17999  15.484  16.851  10.389  0.4426  0.1757 -0.0354
 1816W        W18000  15.088   4.079  15.282  0.2578 -0.0494 -0.2353
 1817W        W18001   9.113   6.879  14.506 -0.0031  0.0219  0.1667
 1818W        W18002   6.231   1.185  15.668 -0.1921  0.2876 -0.0961
 1819W        W18003  10.819   7.256   5.181 -0.2797  0.1670  0.0247
 1820W        W18004  14.164  17.400  14.303  0.1198  0.3044 -0.0029
 1821W        W18005   8.098  14.364   5.512 -0.3975  0.0369 -0.2145
 1822W        W18006  14.920  15.428   2.522  0.1979  0.1752  0.3716
 1823W        W18007  17.257   9.985  10.304  0.0182 -0.0521  0.1555
 1824W        W18008  17.611   4.756  15.082  0.0818 -0.3596 -0.0158
 1825W        W18009  16.966   9.354  11.863  0.1644  0.1498  0.0191
 1826W        W18010   6.452   5.215   4.633 -0.0956  0.3473  0.0748
 1827W        W18011   6.198  12.211  15.471  0.1111 -0.0487  0.2035
 1828W        W18012   9.332  16.897  13.405  0.3853  0.0697 -0.1104
 1829W        W18013  14.462   3.160   5.167  0.0923 -0.0178 -0.1123
 1830W        W18014  17.877  16.245   1.730  0.0022 -0.3935 -0.0276
 1831W        W18015  11.240  14.818  16.326 -0.1812  0.0969 -0.2675
 1832W        W18016  10.524  10.509  14.437 -0.2731  0.2270 -0.2684
 1833W        W18017   1.903   3.273   0.055 -0.0672 -0.0769  0.0567
 1834W        W18018   4.054   3.530  15.207  0.0836  0.3056  0.2549
 1835W        W18019  16.750   0.661  15.612  0.0455  0.2146 -0.2538
 1836W        W18020  16.003   6.201   5.774 -0.1493 -0.0296  0.0330
 1837W        W18021  16.484   8.312   4.141 -0.0181 -0.1209  0.1094
 1838W        W18022   3.038  12.557  12.248  0.0043 -0.1037  0.2178
 1839W        W18023  15.433  17.839  13.092 -0.0442  0.1623  0.1773
 1840W        W18024  15.922  15.596  10.878 -0.0733  0.2323 -0.1053
 1841W        W18025  10.438   7.258   3.787  0.0635  0.1541  0.0697
 1842W        W18026  14.728   8.834   3.675 -0.0391  0.0738 -0.1977
 1843W        W18027   7.391   1.271  11.773 -0.3500 -0.0384 -0.0484
 1844W        W18028  14.886   7.935   5.109  0.1056  0.0749  0.3243
 1845W        W18029   3.584  14.057  15.101 -0.1436 -0.3509 -0.0151
 1846W        W18030  17.405   0.068  11.206  0.1303  0.3201 -0.0454
 1847W        W18031   5.572   4.190  11.574 -0.0147  0.0361  0.0575
 1848W        W18032   5.739   1.882  16.680  0.2981  0.0053  0.0149
 1849W        W18033  10.027   7.525  16.605 -0.1355 -0.0145 -0.0300
 1850W        W18034   2.965   5.489   5.809  0.0672  0.1741  0.1985
 1851W        W18035   2.840   9.530   1.157 -0.3265 -0.0770  0.0702
 1852W        W18036   7.190   0.934   2.765  0.3063 -0.2698  0.0495
 1853W        W18037   5.450   9.904  14.594  0.0609 -0.1029 -0.0072
 1854W        W18038   6.106  14.873   1.975  0.0765 -0.2225  0.1384
 1855W        W18039   0.191   6.170  12.418 -0.0712 -0.2255  0.3127
 1856W        W18040  16.042  10.116   4.458 -0.1888  0.1642 -0.0211
 1857W        W18041   5.624  10.226  16.273  0.1603 -0.0596 -0.2238
 1858W        W18042   0.664   8.653   3.240 -0.1528 -0.0265 -0.4952
 1859W        W18043   1.223  17.920   4.491 -0.0560 -0.4324 -0.1826
 1860W        W18044   7.004   0.848  13.977 -0.2630  0.0400 -0.0852
 1861W        W18045   5.622  11.405   2.320 -0.1681 -0.1277 -0.1643
 1862W        W18046  15.902   8.001   3.002 -0.0217  0.1667  0.5426
 1863W        W18047  10.590  10.023   2.045  0.3090  0.0256 -0.3161
 1864W        W18048  12.384   0.446   3.043 -0.0622 -0.2327  0.0309
 1865W        W18049  17.686  13.788   3.811  0.0720  0.0078 -0.0937
 1866W        W18050   6.037   0.378   1.837  0.2277 -0.4689 -0.0023
 1867W        W18051   6.835  17.707   3.732  0.1683  0.2574  0.2917
 1868W        W18052   0.748  17.297  14.972  0.1923  0.0173 -0.0969
 1869W        W18053  16.063  13.499   5.102  0.2445  0.1632  0.0267
 1870W        W18054  17.152  15.441   1.420  0.2614 -0.1386 -0.0906
 1871W        W18055  15.002   0.948  15.148 -0.0359  0.1103  0.0771
 1872W        W18056   9.894   2.837  11.605 -0.0598 -0.1331  0.1692
 1873W        W18057   9.922  14.680  13.326 -0.0411 -0.5496 -0.1900
 1874W        W18058  13.963  11.771  11.325 -0.2317  0.0932 -0.1317
 1875W        W18059  16.842   5.303  13.897  0.3092  0.2154  0.0160
 1876W        W18060  16.388   7.532  11.618 -0.0358  0.0760 -0.0188
 1877W        W18061  11.206   4.828  16.603  0.1473  0.2968 -0.0693
 1878W        W18062  12.463   0.463  15.370  0.1093  0.1412 -0.0790
 1879W        W18063  13.396   9.350   3.437  0.0387 -0.2051  0.1446
 1880W        W18064   1.543  17.511   2.134 -0.1115  0.0344 -0.0430
 1881W        W18065   4.631   0.263  11.477  0.0025  0.0622 -0.0718
 1882W        W18066   4.300   5.180  12.668  0.0025  0.0122  0.1698
 1883W        W18067   9.991   7.534   2.820  0.1324 -0.3100  0.2399
 1884W        W18068  13.169  15.013  14.703 -0.2699  0.3015  0.1410
 1885W        W18069   2.174   2.700   0.910 -0.1521 -0.2423  0.2885
 1886W        W18070  11.743  11.210   4.446  0.2154 -0.1535  0.2821
 1887W        W18071   1.815  13.035   2.320 -0.0954  0.0805 -0.3183
 1888W        W18072   9.048   3.592   3.248 -0.1215  0.0987 -0.2223
 1889W        W18073   4.178  17.007  15.974  0.2044  0.2655  0.1212
 1890W        W18074  10.889   6.859   4.361 -0.1166  0.0215  0.0451
 1891W        W18075  16.826   7.857   5.475 -0.1776 -0.0134  0.2625
 1892W        W18076   6.943   3.597  16.350  0.1140 -0.1621 -0.2122
 1893W        W18077   9.574   5.448   5.121  0.0669  0.0788  0.0576
 1894W        W18078  10.859   0.855   2.163  0.5246  0.0872  0.0557
 1895W        W18079   8.178   2.663  16.155 -0.0866  0.1514 -0.3311
 1896W        W18080  10.603  10.792  13.956  0.4691 -0.1870  0.0906
 1897W        W18081  15.357   6.322  12.234 -0.0155  0.1228 -0.1010
 1898W        W18082  17.514   5.627   0.826 -0.0542 -0.0421 -0.1956
 1899W        W18083  14.011   0.368   2.955 -0.2034  0.0849  0.0653
 1900W        W18084   1.162   2.531  15.748 -0.0183 -0.2003  0.2779
 1901W        W18085   0.827   4.637  16.619 -0.2103  0.1146  0.0026
 1902W        W18086  15.110  12.849  14.712  0.1594  0.1354 -0.2391
 1903W        W18087   9.776   3.681   1.451 -0.3561 -0.1261 -0.0033
 1904W        W18088   2.234  10.904   1.401 -0.1733 -0.1787 -0.0096
 1905W        W18089   7.903  14.205  13.209  0.1220 -0.1269  0.2117
 1906W        W18090  14.133  14.537   5.506 -0.0390 -0.0480 -0.1391
 1907W        W18091   3.738   2.017   4.483  0.2022 -0.2014 -0.3416
 1908W        W18092   3.589   2.875  15.527  0.2419  0.0354 -0.1107
 1909W        W18093   0.081   0.868  12.151 -0.0641  0.2502 -0.2469
 1910W        W18094   1.578   5.279   3.427 -0.0724 -0.2571  0.2442
 1911W        W18095  14.651   2.126   4.425 -0.0888 -0.0068  0.0814
 1912W        W18096  15.949  16.957   2.746  0.1608  0.1660  0.0407
 1913W        W18097   8.848   5.450  13.960  0.0561 -0.1002 -0.0149
 1914W        W18098   0.931   8.244   1.747 -0.0446  0.2306  0.1425
 1915W        W18099  15.752   7.041   4.273 -0.1141 -0.0989  0.1105
 1916W        W18100   6.209  16.641   4.616 -0.2274  0.1921 -0.1131
 1917W        W18101   6.185  15.291  13.931  0.1374 -0.1448 -0.1464
 1918W        W18102  16.304   1.597  16.617 -0.0129  0.2988  0.0553
 1919W        W18103  17.943   5.139   2.167  0.1686 -0.2260  0.2699
 1920W        W18104   4.064   6.061  14.894 -0.2033  0.2711 -0.0539
 1921W        W18105  11.524   8.051   0.485  0.1843 -0.1992 -0.1691
 1922W        W18106   5.601  15.884   2.569  0.0359 -0.2002  0.3591
 1923W        W18107   2.702   0.858   3.757 -0.1122  0.2103 -0.0627
 1924W        W18108   8.528  12.853   5.744 -0.2916  0.1318 -0.0857
 1925W        W18109   8.696  11.212   5.627 -0.2972 -0.0223  0.2746
 1926W        W18110   0.096   7.517  14.977 -0.1552 -0.4502  0.0166
 1927W        W18111   5.741   9.625  15.503 -0.1371 -0.0193 -0.0072
 1928W        W18112  15.534  16.036   0.622  0.0957  0.1535  0.4835
 1929W        W18113   9.855  11.302  14.112  0.1917  0.0466  0.0012
 1930W        W18114   7.994   7.958   5.256 -0.1388 -0.4526 -0.1701
 1931W        W18115   6.154  12.291   3.010  0.1347 -0.0303 -0.0023
 1932W        W18116   6.635  11.506   4.229  0.1675  0.0176  0.0693
 1933W        W18117   8.751  13.241  13.853 -0.0064  0.1651 -0.1000
 1934W        W18118   5.116   8.682   2.412  0.1780 -0.0237 -0.1036
 1935W        W18119   6.025  16.149  16.181 -0.0101  0.1787 -0.2250
 1936W        W18120   3.522  10.177   5.849 -0.1074 -0.0606  0.3006
 1937W        W18121  12.626  10.366  15.280  0.0430  0.0980 -0.3076
 1938W        W18122   3.494  14.755   1.360  0.1171  0.1864 -0.1336
 1939W        W18123   8.676  11.939   0.682  0.3723 -0.2389 -0.0101
 1940W        W18124   9.237   7.441  15.928 -0.0795 -0.0317 -0.2506
 1941W        W18125   5.085  16.163  16.223 -0.2714  0.1482  0.1103
 1942W        W18126  17.740   6.006   0.582 -0.2849  0.0825 -0.1771
 1943W        W18127   4.051   0.430   0.909 -0.1286 -0.1679  0.1039
 1944W        W18128  12.359  10.755  12.708  0.2475 -0.0272  0.2320
 1945W        W18129  14.540   6.979  15.381 -0.0610  0.1002  0.2016
 1946W        W18130   5.776   4.495   4.717  0.0686  0.1168 -0.0939
 1947W        W18131   1.437   8.073  14.777 -0.4125  0.2285  0.2498
 1948W        W18132  15.897  16.619   4.655  0.2380  0.3498 -0.0338
 1949W        W18133  17.701   0.122  16.298  0.3187 -0.0429 -0.1721
 1950W        W18134  16.220  17.277   3.984 -0.3007 -0.3157 -0.2584
 1951W        W18135   5.001  14.315  16.455 -0.2105 -0.0515  0.0654
 1952W        W18136  13.944   6.898   5.051 -0.1065  0.1273 -0.0542
 1953W        W18137   9.627  16.944  12.369  0.0905 -0.0282 -0.3292
 1954W        W18138   3.639   8.453  12.174  0.0377  0.0588 -0.0972
 1955W        W18139  17.140  15.007   4.720  0.0045  0.0297 -0.2249
 1956W        W18140   9.546   7.348   3.089  0.1301  0.0270 -0.0067
 1957W        W18141  13.751   0.864   1.776  0.3088 -0.1122  0.0118
 1958W        W18142  10.266   3.013  13.406  0.0178 -0.0158  0.3292
 1959W        W18143  17.803   1.918   3.219  0.1650 -0.3691 -0.0541
 1960W        W18144   7.703   5.434   5.506  0.1187  0.2181  0.0011
 1961W        W18145   6.672   4.936   2.996 -0.1561  0.1282  0.1584
 1962W        W18146  13.716   9.379   5.068  0.0635 -0.0457  0.2341
 1963W        W18147  10.753   6.619  12.277 -0.4215 -0.2955 -0.0743
 1964W        W18148   8.840   1.953   5.023  0.2173 -0.0239 -0.0545
 1965W        W18149  15.335  14.213   0.652 -0.0489  0.1019  0.2829
 1966W        W18150   1.655  10.131   4.686  0.2075  0.2388 -0.0279
 1967W        W18151   3.866   7.122  16.018  0.0914 -0.2099 -0.3364
 1968W        W18152  11.217   4.144   5.265 -0.0136 -0.1663  0.1970
 1969W        W18153  14.191  17.713  15.779 -0.0529 -0.2320  0.1817
 1970W        W18154   0.746   5.649  13.300 -0.2587  0.0972 -0.3065
 1971W        W18155   9.094  14.711  11.923  0.0011 -0.1053 -0.2569
 1972W        W18156  11.360   2.396   0.139  0.2539  0.2008  0.2862
 1973W        W18157  15.729   6.007  13.403 -0.1813 -0.0154  0.2487
 1974W        W18158  12.585   3.795   0.906  0.1073  0.1028  0.0064
 1975W        W18159   5.293  12.560  12.417  0.0963  0.1337  0.1124
 1976W        W18160   2.541   6.703  16.490  0.0850 -0.1372  0.2101
 1977W        W18161   7.629  10.879  13.256 -0.1975  0.1458 -0.1583
 1978W        W18162   0.309   1.813  16.423  0.0219  0.2137  0.2459
 1979W        W18163   4.437   3.455   2.480 -0.0237 -0.0401  0.1729
 1980W        W18164  10.568   7.553   1.110  0.1282  0.0277  0.1040
 1981W        W18165   6.137  15.208   5.383  0.0996 -0.2759 -0.1628
 1982W        W18166   8.875  13.421   2.049 -0.2398  0.0672 -0.1037
 1983W        W18167  14.858   2.335   3.113  0.1278  0.0549  0.0719
 1984W        W18168   5.811  12.491   5.581  0.3142 -0.0135 -0.1298
 1985W        W18169  14.683  13.248  12.719  0.1887  0.0705  0.0418
 1986W        W18170   5.542  15.545   1.279  0.1576  0.1427 -0.0460
 1987W        W18171  16.677  15.820   4.879  0.0228 -0.2144 -0.1141
 1988W        W18172  13.195   6.425   4.750 -0.0480  0.2919  0.2980
 1989W        W18173  16.870   6.964  12.253  0.1139  0.0835 -0.0222
 1990W        W18174   4.736  17.458   4.811 -0.0380  0.0098  0.2380
 1991W        W18175   5.720  10.069   1.957  0.0132  0.2473  0.0202
 1992W        W18176  17.239  17.372   5.866  0.0247 -0.0618  0.2696
 1993W        W18177   9.458   4.698   1.164  0.0076  0.0749  0.1598
 1994W        W18178  12.446  15.494  12.096 -0.1948 -0.1040  0.0891
 1995W        W18179   2.570  12.133   3.921  0.0093  0.1282  0.1064
 1996W        W18180   8.375  11.373   5.983 -0.0966 -0.0677 -0.0430
 1997W        W18181   3.322  13.024  12.539  0.0611 -0.0282  0.2316
 1998W        W18182  10.813  12.917  15.518 -0.0669 -0.2181  0.2046
 1999W        W18183  14.817   0.226   5.731 -0.1226  0.0126 -0.4614
 2000W        W18184  17.211  14.541   3.220  0.0622  0.0231  0.0534
 2001W        W18185   6.375  10.076  11.318  0.6816  0.1605  0.2918
 2002W        W18186  11.129   8.242  13.280 -0.1286 -0.1409  0.0376
 2003W        W18187   2.767   7.648  14.836 -0.2369  0.1014  0.1341
 2004W        W18188   6.475   2.632  16.128  0.0786 -0.2275  0.0862
 2005W        W18189   2.807   0.526  11.086  0.0143  0.0619  0.2460
 2006W        W18190   7.413   4.722   3.139 -0.2503 -0.1032  0.0143
 2007W        W18191  15.666   2.618   4.663 -0.0784  0.3539  0.0309
 2008W        W18192  15.632  14.561  13.990 -0.0304 -0.2021  0.2823
 2009W        W18193  15.956  17.996  13.119 -0.2735 -0.0533 -0.0600
 2010W        W18194  14.831   4.938   2.287  0.0317  0.0550  0.2974
 2011W        W18195  11.375   1.211   0.737  0.0271  0.1252  0.0304
 2012W        W18196   5.458  14.095   1.021  0.0869 -0.1338  0.1995
 2013W        W18197  16.509  17.360   1.079  0.0077 -0.5001  0.0993
 2014W        W18198   6.320   9.407   5.778  0.1352 -0.0397  0.1470
 2015W        W18199   9.753  17.570  13.131 -0.4087  0.0560  0.0393
 2016W        W18200   0.858   5.684  14.615  0.2091 -0.3307 -0.2911
 2017W        W18201   6.980   2.925   3.817  0.0962 -0.2169  0.2651
 2018W        W18202   3.045   3.923   4.155 -0.0806 -0.3944 -0.1313
 2019W        W18203  16.468  14.105  12.706 -0.0924  0.0085 -0.0904
 2020W        W18204  14.376   1.945   3.558 -0.1150  0.3917 -0.2242
 2021W        W18205  10.470   8.789  14.374  0.2721 -0.0338 -0.0291
 2022W        W18206   9.745   5.014   0.871  0.0964 -0.2162 -0.2137
 2023W        W18207   7.063   6.469  11.377  0.0271 -0.3544 -0.0671
 2024W        W18208  17.097  17.479  10.573 -0.1007 -0.1029 -0.4159
 2025W        W18209   0.081   1.630  11.539 -0.0636 -0.2242 -0.3275
 2026W        W18210   2.542   6.229   2.654 -0.0974  0.3362  0.0365
 2027W        W18211   3.947   5.163   0.241 -0.1934  0.0028 -0.1607
 2028W        W18212   3.907  13.140   4.957  0.0992  0.0597  0.1143
 2029W        W18213  14.850  11.631  16.018  0.2984 -0.3631 -0.2108
 2030W        W18214   1.536  14.660  12.127  0.2159  0.0571 -0.1761
 2031W        W18215   2.321   7.594   5.339  0.2297 -0.0396 -0.0693
 2032W        W18216  11.735  15.782  14.380 -0.2881  0.1262  0.0186
 2033W        W18217  12.757   6.463  14.414 -0.3062 -0.1988  0.1930
 2034W        W18218  16.627   4.426   0.836 -0.1716 -0.2507  0.0463
 2035W        W18219   6.188  16.295  14.900  0.2961 -0.0621  0.1962
 2036W        W18220   8.756  12.521   5.239  0.2544  0.0347  0.0677
 2037W        W18221   0.409   1.273  16.457 -0.1161  0.1076  0.1269
 2038W        W18222  17.204   4.774  15.398 -0.0541 -0.1096  0.0402
 2039W        W18223   3.967   1.435  12.250 -0.1813 -0.0382  0.0019
 2040W        W18224   5.714   6.206   3.487 -0.1814 -0.0961  0.0107
 2041W        W18225   3.527  12.803  15.599  0.1172 -0.1579  0.0855
 2042W        W18226  15.760  17.465  15.117  0.1500  0.1615  0.1700
 2043W        W18227   2.359   2.638  12.539  0.0514  0.3159 -0.3323
 2044W        W18228   9.110  15.680   5.434  0.4846 -0.2083 -0.1909
 2045W        W18229   5.095   1.524  15.633 -0.1397  0.0845  0.0613
 2046W        W18230   3.720  10.344  15.873 -0.1289 -0.1049  0.0069
 2047W        W18231   0.252   5.820  15.230  0.3688  0.0521 -0.1155
 2048W        W18232  10.210   4.762   4.234 -0.0828  0.1100 -0.1124
 2049W        W18233  15.554  15.397  15.640  0.0115 -0.4805 -0.1390
 2050W        W18234  13.247  10.120  13.392  0.4064 -0.1560 -0.1456
 2051W        W18235  17.857  10.933  14.753 -0.2935  0.0024 -0.1348
 2052W        W18236  12.946   3.413   4.949  0.0660  0.1163 -0.1479
 2053W        W18237   8.910  14.821   5.153  0.2338 -0.2122 -0.2524
 2054W        W18238   8.405   6.757   1.781 -0.2284  0.0437 -0.2081
 2055W        W18239   8.383  15.880  11.771 -0.2073 -0.1450  0.3964
 2056W        W18240   6.417  11.142  11.379  0.1115  0.0665  0.2637
 2057W        W18241  13.382   9.055  15.028 -0.2049  0.0481  0.0254
 2058W        W18242  16.178  15.437   3.979  0.1672  0.2942  0.3762
 2059W        W18243  14.669   6.484   1.828 -0.2735  0.2024  0.1750
 2060W        W18244   1.763  16.686   3.065  0.0266  0.2060 -0.1558
 2061W        W18245  10.581  14.337   5.597  0.0594 -0.0531 -0.3298
 2062W        W18246  12.816  17.790  13.484 -0.2064 -0.2152 -0.2967
 2063W        W18247  10.840  17.157   1.691 -0.0242 -0.1423 -0.0694
 2064W        W18248  16.389   7.377  14.165 -0.1123  0.0534 -0.0056
 2065W        W18249   7.412  17.554  16.485  0.2634  0.0173 -0.1697
 2066W        W18250  15.679  13.510   1.491  0.2225 -0.1244 -0.1210
 2067W        W18251   4.373   5.785  13.076  0.2190  0.0311  0.0172
 2068W        W18252   2.051   3.136  14.734  0.2511  0.2095 -0.0992
 2069W        W18253   9.572  17.350  12.650 -0.1657 -0.2220 -0.0447
 2070W        W18254  13.004   4.815   5.231 -0.0827 -0.2284  0.0652
 2071W        W18255   9.352   6.536   1.941 -0.1406  0.1242  0.0578
 2072W        W18256   4.171  14.003  14.404  0.2710 -0.0584 -0.1499
 2073W        W18257   4.648  17.804  13.221  0.1590  0.2059  0.0780
 2074W        W18258  17.526   0.447   1.959 -0.1229  0.1474 -0.2344
 2075W        W18259   3.776  11.006   4.022 -0.3729  0.1816  0.2104
 2076W        W18260   1.891   6.620   4.368  0.4472 -0.3432 -0.3655
 2077W        W18261   4.575   7.117   4.340 -0.0792  0.0980 -0.0390
 2078W        W18262  17.214  15.623   5.013  0.1258 -0.1665 -0.2525
 2079W        W18263  16.939   1.412   2.467 -0.0832 -0.0173 -0.2629
 2080W        W18264   6.137   4.724   2.947  0.2377  0.0128  0.1150
 2081W        W18265   2.684  12.817   1.757  0.1316  0.1725  0.0443
 2082W        W18266   3.772  15.567  13.032  0.1911  0.3129 -0.0765
 2083W        W18267  16.337  12.498   3.588  0.3382 -0.1911 -0.3143
 2084W        W18268  10.012   8.520   2.890 -0.1732  0.0793  0.0347
 2085W        W18269   2.320  15.842  12.438 -0.1443  0.0152 -0.0845
 2086W        W18270  17.416  10.534   2.461 -0.1903  0.0337  0.0262
 2087W        W18271   3.215  12.781  11.702 -0.2318  0.0161 -0.1644
 2088W        W18272  16.438   7.176  16.346 -0.0825  0.1364  0.0715
 2089W        W18273  12.163  15.403   5.143  0.0451 -0.0265 -0.1016
 2090W        W18274  13.657  10.227   3.809  0.1957  0.1426  0.0737
 2091W        W18275  13.671  12.459   3.550 -0.2404  0.0319  0.1064
 2092W        W18276   6.591   7.109   5.902  0.0656 -0.2462  0.1016
 2093W        W18277  16.553   3.862   1.429  0.0328 -0.0234  0.2040
 2094W        W18278  16.421  14.687   2.650  0.2519 -0.0972 -0.0731
 2095W        W18279   8.288  11.216   1.125  0.2917  0.1748 -0.1290
 2096W        W18280   0.506  13.580  15.911  0.0211 -0.2957 -0.0704
 2097W        W18281  15.033   0.899   9.888  0.1113 -0.1573  0.0057
 2098W        W18282  13.727  17.002  15.605 -0.0408  0.2947  0.1462
 2099W        W18283   7.250   4.568  16.454  0.1606 -0.2000  0.2329
 2100W        W18284   7.621   0.668   4.250 -0.1503 -0.1810  0.1875
 2101W        W18285  12.419   7.856  15.414  0.0724 -0.2275 -0.1152
 2102W        W18286   8.819   8.801   3.274 -0.0024 -0.1228 -0.1020
 2103W        W18287   1.780   4.148  12.154  0.0709  0.2372  0.0692
 2104W        W18288   0.089   5.047  12.318 -0.0896 -0.0756  0.2342
 2105W        W18289  14.733  15.233  15.786 -0.1651 -0.3039  0.1308
 2106W        W18290   4.281  13.028  14.380  0.0016 -0.1458  0.0819
 2107W        W18291  16.257  17.718  12.091  0.2441 -0.3381  0.0240
 2108W        W18292  11.231   9.126   2.480  0.0600  0.2922  0.1914
 2109W        W18293  10.670  11.271  13.762  0.2620  0.0824  0.0915
 2110W        W18294   4.428  11.377   4.441 -0.0459 -0.0550 -0.1394
 2111W        W18295  14.841  16.542  15.820  0.1815 -0.2004  0.2668
 2112W        W18296   7.380   9.980   4.847 -0.0480 -0.0929 -0.1049
 2113W        W18297   4.611  11.596  13.339  0.1470  0.1682  0.3311
 2114W        W18298   1.602   9.876   2.848 -0.0207 -0.0124 -0.1613
 2115W        W18299   8.584  17.784   1.709  0.2522 -0.1770  0.0297
 2116W        W18300   8.881  15.161   3.101  0.0923 -0.2160  0.3265
 2117W        W18301  17.971   8.609  14.212  0.1468  0.1287  0.1181
 2118W        W18302  14.544   8.304   3.657  0.1618  0.0910 -0.0603
 2119W        W18303   8.854   0.139   4.812  0.2050 -0.2424  0.0849
 2120W        W18304  13.295   7.362  14.597  0.0702 -0.0291 -0.0206
 2121W        W18305   4.597   0.678  15.635 -0.0283 -0.1617 -0.1663
 2122W        W18306   5.418  14.567   5.244 -0.3720  0.2057 -0.1626
 2123W        W18307   2.772   5.494   0.570  0.0486  0.1958  0.1586
 2124W        W18308   9.039   4.072  14.432 -0.4229 -0.2035 -0.1077
 2125W        W18309   3.389   9.726   4.391 -0.1338 -0.1066 -0.0753
 2126W        W18310  17.248  13.075   3.709 -0.0931  0.1227 -0.1554
 2127W        W18311   7.031   1.930  14.496  0.1977 -0.1477  0.1827
 2128W        W18312   3.627   2.383  14.840  0.0329  0.2932 -0.2145
 2129W        W18313   6.720   0.162   3.040 -0.3179 -0.0692 -0.2731
 2130W        W18314  12.351  10.830  15.125  0.0126  0.1713  0.2062
 2131W        W18315   0.358  10.557  11.569  0.0368  0.2119  0.1905
 2132W        W18316  13.359   3.512  15.460 -0.1550 -0.3989 -0.1812
 2133W        W18317   5.408  14.369   1.416 -0.1089  0.0983 -0.0298
 2134W        W18318   6.476   4.792  16.411 -0.0324  0.0503 -0.0042
 2135W        W18319   8.984  12.463   4.340  0.0943  0.1697 -0.2046
 2136W        W18320  15.560   7.496   0.154 -0.1456  0.0167 -0.0629
 2137W        W18321   8.605   9.303  12.981 -0.0643 -0.5312 -0.0654
 2138W        W18322   0.986  12.048  12.361  0.1948  0.1184 -0.0097
 2139W        W18323   5.762   8.481   5.376 -0.0162  0.1115  0.0625
 2140W        W18324   9.593  11.675   4.445 -0.1284 -0.0321  0.2078
 2141W        W18325   3.759  17.977  14.585  0.0886  0.1410 -0.2231
 2142W        W18326  17.077   3.258   5.298 -0.0805  0.0371 -0.0081
 2143W        W18327  14.346   6.322   0.703  0.1874 -0.1150 -0.1169
 2144W        W18328  10.644  15.637  12.241  0.1693 -0.1571  0.0810
 2145W        W18329  17.538  15.758  16.579  0.1191  0.2238  0.0015
 2146W        W18330  16.080   0.925  14.246 -0.2032  0.2255  0.1854
 2147W        W18331  17.304  14.819   1.054  0.0894  0.0626  0.0195
 2148W        W18332  11.952   2.369   4.983 -0.0673 -0.0269 -0.1284
 2149W        W18333  14.060   7.109   0.439 -0.0411 -0.0540  0.3047
 2150W        W18334   3.708   4.817   6.090 -0.0987  0.1054 -0.2132
 2151W        W18335  11.051  14.999  11.825 -0.2842 -0.2275 -0.0451
 2152W        W18336  15.123   0.934   5.682  0.1212  0.1103  0.2177
 2153W        W18337  11.249   1.938  11.971 -0.0685 -0.0009  0.0090
 2154W        W18338   2.434   1.589  12.197 -0.1838  0.0042 -0.0776
 2155W        W18339   2.534   7.371  13.955 -0.0809 -0.0544  0.0570
 2156W        W18340   4.093  16.408   5.412 -0.1667  0.0251 -0.1465
 2157W        W18341   7.090   2.581  12.642 -0.1199 -0.0321  0.2064
 2158W        W18342  16.517   2.855  14.209  0.0334  0.2752 -0.4491
 2159W        W18343  17.149  12.611  14.703 -0.1589  0.0528 -0.0889
 2160W        W18344  13.423   7.414  16.351  0.0193  0.0892 -0.0301
 2161W        W18345   9.363   3.262   0.559 -0.2030 -0.2079 -0.0003
 2162W        W18346   9.854  14.264   0.537  0.1119 -0.0128  0.1960
 2163W        W18347  11.333  17.626   0.960  0.0058 -0.0642  0.3275
 2164W        W18348  10.174   7.997  14.873  0.0498  0.0458 -0.2022
 2165W        W18349   8.551  17.211   2.059  0.1103  0.1490  0.1097
 2166W        W18350  17.897  13.233  16.506 -0.1662 -0.1998  0.2324
 2167W        W18351   1.080  17.047   3.809  0.0767 -0.0321  0.2454
 2168W        W18352   4.933   6.453   0.558  0.0513 -0.0309  0.1300
 2169W        W18353   6.913   5.256  15.849  0.4837 -0.0559 -0.2210
 2170W        W18354   0.165   3.494   3.797 -0.0210 -0.0436  0.0300
 2171W        W18355  16.877   6.083  14.748  0.0493 -0.2428  0.3517
 2172W        W18356  17.599   5.064  13.129 -0.2147  0.0031 -0.0029
 2173W        W18357  17.309   1.742  13.688 -0.0272  0.0520 -0.3144
 2174W        W18358  12.740  10.256   6.116  0.0950  0.0056 -0.1108
 2175W        W18359  10.598   2.722   0.268  0.0139  0.1510  0.1537
 2176W        W18360  16.313  10.955  16.422  0.2444 -0.0477 -0.0150
 2177W        W18361   5.202  14.656   2.290  0.1348 -0.0239 -0.0326
 2178W        W18362   9.695   0.521  14.670 -0.0119  0.2501 -0.0683
 2179W        W18363   7.976   1.657  14.297  0.0355 -0.0122  0.0409
 2180W        W18364  12.706  17.574  12.405 -0.1769  0.0835  0.0791
 2181W        W18365   2.265  10.211   3.489 -0.2197 -0.1057 -0.1623
 2182W        W18366  11.418   5.104  16.058  0.0292 -0.0371  0.1261
 2183W        W18367   0.372  10.982  10.398 -0.0199 -0.1345  0.1165
 2184W        W18368   2.901  12.043  14.948 -0.3169 -0.1516 -0.1784
 2185W        W18369  11.229   5.784  11.552 -0.1468  0.2191  0.3294
 2186W        W18370  11.036  15.196  15.362 -0.1024  0.2182 -0.2575
 2187W        W18371   9.878  17.765  12.636 -0.2470  0.0859 -0.0187
 2188W        W18372  13.518  12.562   2.052 -0.3000  0.2544 -0.1495
 2189W        W18373   5.940   2.540   1.166 -0.0249  0.1287  0.0327
 2190W        W18374   0.563  15.500   2.683 -0.2379 -0.4163  0.1782
 2191W        W18375   6.738   1.125  15.543 -0.2434 -0.0205 -0.2364
 2192W        W18376  15.306  12.817  13.911  0.2398 -0.0218 -0.1192
 2193W        W18377  12.826  15.411   4.582 -0.1505 -0.2429 -0.1308
 2194W        W18378   7.382   1.143   0.552  0.2251 -0.1006  0.0156
 2195W        W18379   8.464  16.541  16.301 -0.2697  0.1376  0.2694
 2196W        W18380  16.023   1.124  14.859  0.2349  0.3617 -0.0392
 2197W        W18381  13.144  15.524   1.551 -0.3186 -0.0528  0.0241
 2198W        W18382  16.041  14.811   0.361 -0.0642  0.0738 -0.1112
 2199W        W18383  14.409  16.233   2.112  0.0843 -0.1575 -0.0109
 2200W        W18384   3.216   3.771  13.869  0.0006  0.1923  0.0916
 2201W        W18385  15.333   7.964   3.265 -0.1851 -0.1457 -0.0621
 2202W        W18386   9.088   9.418  14.538 -0.0464 -0.0018 -0.0434
 2203W        W18387  11.506   5.492   1.561 -0.0625 -0.0924  0.2910
 2204W        W18388  16.863   7.759  11.465  0.1088  0.1101  0.0783
 2205W        W18389   7.965  17.730  15.243 -0.1010 -0.0302  0.1570
 2206W        W18390  16.954   4.453  12.507  0.0502 -0.3961  0.0414
 2207W        W18391   2.179   2.982   3.512  0.0622 -0.3033 -0.0466
 2208W        W18392   0.557  14.634  14.555 -0.2507  0.1510  0.1261
 2209W        W18393  17.327   4.369  12.090  0.0865  0.2542  0.1482
 2210W        W18394  12.124   1.724  13.308 -0.0368 -0.0184  0.1410
 2211W        W18395   4.231   9.145   4.561  0.2039  0.2392  0.1204
 2212W        W18396   9.314  15.659  12.309 -0.2250  0.0265  0.0685
 2213W        W18397   5.428   4.509  12.452  0.0014 -0.0461  0.0203
 2214W        W18398  15.444   3.642  13.445  0.3182 -0.1108 -0.0465
 2215W        W18399  14.491  12.275  11.994 -0.0756  0.2650  0.1726
 2216W        W18400  12.777   4.611  11.907  0.2200 -0.2225 -0.2149
 2217W        W18401  15.928   8.183  15.174 -0.1267  0.1315  0.0255
 2218W        W18402  17.226  17.543   3.092 -0.2276  0.1311  0.1273
 2219W        W18403   9.288   8.975   5.483  0.1077  0.1533  0.0423
 2220W        W18404   4.247   0.288  12.302 -0.0926 -0.1115  0.1611
 2221W        W18405   4.102   3.068   1.404 -0.2458 -0.1692  0.0840
 2222W        W18406   2.326   4.468   3.746 -0.1980  0.3399 -0.0851
 2223W        W18407   2.051  12.004   0.329  0.0235  0.2703  0.2208
 2224W        W18408   9.380  17.782  12.499  0.0077  0.1032 -0.1666
 2225W        W18409  13.600   5.645   2.213 -0.1963 -0.1189 -0.2272
 2226W        W18410  13.431  14.775  11.927  0.1457  0.1111 -0.0117
 2227W        W18411  16.021  15.071   4.950 -0.0989  0.5249  0.0035
 2228W        W18412   8.505  15.559   2.599  0.0575  0.1341  0.1107
 2229W        W18413   7.291  14.347   5.120 -0.1467  0.2512 -0.2205
 2230W        W18414  10.161  14.088   3.582  0.0892 -0.0849  0.2072
 2231W        W18415  15.042  11.205   1.737 -0.0459  0.0249 -0.0542
 2232W        W18416  14.764  14.964   2.390 -0.1688  0.2246 -0.0981
 2233W        W18417  16.974   5.151  11.417  0.3196  0.2136 -0.2266
 2234W        W18418   5.830   6.944   4.777 -0.0568  0.2230 -0.1063
 2235W        W18419  17.385   6.821   2.555 -0.0408 -0.1038  0.1535
 2236W        W18420  11.208   2.567   0.558 -0.0851 -0.0219  0.1153
 2237W        W18421  14.874   2.571  13.185 -0.2541  0.1653  0.1895
 2238W        W18422   0.645   8.963   0.354 -0.1587 -0.0447  0.2057
 2239W        W18423  16.799   5.357   5.285 -0.0966 -0.3376  0.0207
 2240W        W18424   2.300   2.961   5.563  0.0128 -0.0505  0.0101
 2241W        W18425   8.233  16.777  15.863 -0.0201  0.2339 -0.1056
 2242W        W18426  11.756   3.522   3.669 -0.0215  0.0191 -0.1962
 2243W        W18427   6.496  11.033   4.462  0.2917  0.0395 -0.0338
 2244W        W18428  13.739   5.084  10.371 -0.2516  0.0444  0.1711
 2245W        W18429  17.646   7.914  11.821 -0.0345  0.4470  0.1305
 2246W        W18430  16.499  16.130   5.252  0.0142 -0.3890  0.4127
 2247W        W18431   7.508   8.250   0.001 -0.0242  0.0565  0.0393
 2248W        W18432  15.440  13.905   2.780 -0.0563  0.0421 -0.0100
 2249W        W18433   0.992   1.504  15.801  0.0995  0.1886 -0.0478
 2250W        W18434   0.397   5.267  14.644 -0.3337  0.0993 -0.1299
 2251W        W18435  17.902   5.928   1.051  0.5647  0.0857  0.0393
 2252W        W18436   1.437  15.766  11.956 -0.4174  0.0655 -0.1614
 2253W        W18437  17.534   3.862   4.263  0.4247 -0.1893 -0.0554
 2254W        W18438  13.017  17.058  13.666 -0.1023 -0.3029 -0.0203
 2255W        W18439  17.433  14.805   4.319 -0.0504  0.1960 -0.0586
 2256W        W18440   3.176   1.383   1.163  0.1630  0.1248 -0.0280
 2257W        W18441  12.937   9.168  15.965  0.0479  0.0214  0.0702
 2258W        W18442   8.988   4.081  12.545 -0.0474  0.0794 -0.1798
 2259W        W18443   2.945   8.141   2.573  0.0312  0.1054  0.1167
 2260W        W18444  11.982   7.494   0.934 -0.1327 -0.0516  0.4123
 2261W        W18445   8.937  17.916   0.843  0.0201 -0.0779  0.3258
 2262W        W18446  17.693  14.148   1.442 -0.0194  0.0460 -0.0554
 2263W        W18447   5.395   3.708   2.933  0.0683  0.0189 -0.2842
 2264W        W18448   8.298   9.616   3.511 -0.1093 -0.2722 -0.2940
 2265W        W18449  15.794   2.897  13.320 -0.0784 -0.2716  0.0062
 2266W        W18450  15.502  10.541   5.135  0.0530 -0.0793 -0.0866
 2267W        W18451   0.278   9.654  16.170 -0.3106 -0.0476 -0.3071
 2268W        W18452   9.548   6.649   0.411  0.0209  0.2368 -0.1846
 2269W        W18453   4.486   6.079  13.825 -0.0708 -0.1334 -0.3477
 2270W        W18454   3.922  14.640   3.227 -0.0830  0.2556 -0.3705
 2271W        W18455   0.579   3.532   5.408 -0.1056 -0.3875 -0.1068
 2272W        W18456  13.677  16.031   2.686 -0.1946 -0.0653 -0.0772
 2273W        W18457   9.216   8.314  16.070 -0.0127 -0.2096 -0.2766
 2274W        W18458  15.476   5.849  11.605 -0.0368  0.1302  0.1953
 2275W        W18459  17.906   1.632  16.661 -0.1973 -0.0890 -0.0140
 2276W        W18460  12.598   4.553   5.452  0.3390  0.5051  0.0584
 2277W        W18461   6.364   7.266  15.275 -0.0849  0.3145 -0.2366
 2278W        W18462   7.130   4.468   0.245 -0.1929  0.2516 -0.3258
 2279W        W18463   1.150   3.411   5.464 -0.1082  0.0728  0.1573
 2280W        W18464   8.576  11.834   3.317 -0.0715 -0.1306 -0.2844
 2281W        W18465   7.520  11.485  15.637 -0.2072  0.1234 -0.1675
 2282W        W18466   7.313  11.341   0.764  0.1991  0.2574  0.1426
 2283W        W18467  17.791   6.257  16.031 -0.0094  0.2431  0.2357
 2284W        W18468   7.162   6.236   2.014  0.2829 -0.3226 -0.1629
 2285W        W18469   6.361   5.227   2.520  0.0950 -0.0801 -0.2211
 2286W        W18470   5.302   9.176   6.085 -0.2057  0.1434  0.1227
 2287W        W18471   3.120   9.680   3.956  0.1313  0.1163  0.0168
 2288W        W18472   9.197   3.461  15.975  0.1675 -0.1058  0.2154
 2289W        W18473   8.606   9.376   1.652  0.0737 -0.0728  0.0242
 2290W        W18474   6.330  17.890  16.286 -0.2813  0.2471 -0.1510
 2291W        W18475   6.263  14.129   5.705  0.2937 -0.1201  0.1450
 2292W        W18476   5.407   7.062   0.243  0.0584 -0.1185  0.3345
 2293W        W18477   3.581  15.018  16.225 -0.0589  0.1715  0.1689
 2294W        W18478   0.246  11.737  15.977  0.3246 -0.1355  0.0763
 2295W        W18479  11.528   4.519  14.903 -0.2607 -0.1853 -0.0290
 2296W        W18480  16.911   3.677   4.480  0.1124  0.0098 -0.1839
 2297W        W18481   4.210  10.186   3.270  0.2546  0.2520  0.0926
 2298W        W18482   0.884  14.180  16.556 -0.2026 -0.0012  0.1118
 2299W        W18483   2.875   4.827  14.574  0.0472 -0.0498  0.1179
 2300W        W18484   8.165   3.913   1.791  0.1485 -0.3676 -0.0768
 2301W        W18485  12.921   3.382   2.413  0.0113  0.1463  0.0095
 2302W        W18486   7.176   9.335  11.816 -0.0857 -0.2991 -0.1015
 2303W        W18487  12.564  14.807  16.274  0.1572 -0.0927  0.2132
 2304W        W18488   7.323   2.726   4.146  0.1707  0.1808 -0.2366
 2305W        W18489   2.607  14.502   5.580  0.0119  0.1542 -0.2340
 2306W        W18490  10.399   0.240   1.574  0.2177  0.3052 -0.1837
 2307W        W18491   4.452   4.684  14.927 -0.1339  0.1438 -0.0759
 2308W        W18492  15.128   4.827   2.735  0.0498 -0.0386  0.2192
 2309W        W18493   2.135  16.597  12.563 -0.1314  0.1146 -0.2476
 2310W        W18494   5.899   3.947  12.491  0.2396  0.0365  0.0509
 2311W        W18495   3.686   7.334   4.164 -0.0116 -0.2302 -0.1410
 2312W        W18496   0.003  13.477   4.342 -0.0808  0.1587  0.3713
 2313W        W18497   9.209   8.040   0.947  0.1365  0.1100 -0.0418
 2314W        W18498   1.499   7.076   1.884  0.1113  0.0995  0.0214
 2315W        W18499   5.050   7.895   0.593  0.1053  0.0205  0.2020
 2316W        W18500  16.200  10.938  15.342 -0.2218  0.1283  0.0129
 2317W        W18501  17.946   5.932  14.842  0.0365 -0.0083 -0.0587
 2318W        W18502   6.322   7.219  13.372 -0.1128 -0.1338 -0.2589
 2319W        W18503   2.245  12.983   2.599 -0.0858 -0.1478  0.2428
 2320W        W18504  13.088   6.624   0.885 -0.2392  0.1101  0.0460
 2321W        W18505  17.616  17.041  11.881 -0.0512  0.1651  0.0210
 2322W        W18506   2.434   6.780   1.572 -0.1052 -0.4739 -0.0216
 2323W        W18507  17.760   6.669   3.250 -0.0285 -0.1790 -0.1176
 2324W        W18508  12.316   5.342  16.275  0.1620  0.1114 -0.0505
 2325W        W18509   1.554   1.320   1.296 -0.1806  0.0858 -0.3464
 2326W        W18510  17.857   2.994  15.170 -0.0515  0.2693 -0.2993
 2327W        W18511  17.868   8.385   3.815  0.1001  0.1014 -0.0775
 2328W        W18512   3.369  13.116  14.222  0.2605 -0.4751 -0.2165
 2329W        W18513   7.244   4.615   5.610  0.1637 -0.1587 -0.2448
 2330W        W18514   0.842   3.903   2.256 -0.1751 -0.1981  0.1493
 2331W        W18515   8.134   6.023  12.141 -0.2437 -0.2907 -0.1257
 2332W        W18516  16.418   2.560  13.775 -0.2151 -0.0809 -0.0991
 2333W        W18517  12.636  14.674   3.627  0.2221  0.5217  0.0213
 2334W        W18518  13.328  17.801  16.240  0.2304  0.0876 -0.0407
 2335W        W18519  16.235   9.664   3.373  0.0534  0.1333 -0.0505
 2336W        W18520   3.857   5.727   1.606  0.0704 -0.2786  0.1149
 2337W        W18521  15.949   3.443  13.412  0.2594  0.3730 -0.1498
 2338W        W18522  14.398   4.193  11.957 -0.2451 -0.1950  0.0006
 2339W        W18523  14.035  14.559  15.772 -0.0817  0.0567  0.3131
 2340W        W18524  12.984   5.305   2.593 -0.1799 -0.1239  0.0250
 2341W        W18525  11.480  10.165   4.433 -0.2369 -0.1097 -0.2748
 2342W        W18526   6.102   3.073   1.312  0.0081 -0.0321 -0.0452
 2343W        W18527  10.367   8.062   2.260 -0.2976  0.2507  0.2444
 2344W        W18528   4.997   1.892  14.845 -0.2300  0.1624  0.3640
 2345W        W18529  17.524  16.032  13.760 -0.0944 -0.0901 -0.0784
 2346W        W18530   1.724   1.558  13.115 -0.2717 -0.1129  0.1031
 2347W        W18531   2.979  15.209  11.539 -0.0034  0.1740  0.1119
 2348W        W18532   0.063  13.820  15.956 -0.2684 -0.2613 -0.0529
 2349W        W18533   2.842  10.513  15.667 -0.0001 -0.0759  0.0996
 2350W        W18534  16.327  12.724   5.918  0.1441 -0.0845 -0.0494
 2351W        W18535   3.154  13.498  15.867  0.0590  0.0856 -0.0754
 2352W        W18536  13.484   7.917  12.729  0.2780  0.0677  0.0890
 2353W        W18537   6.542   3.116   3.785 -0.0411 -0.0080 -0.1476
 2354W        W18538  11.127   1.524   1.138 -0.1993  0.1512 -0.1175
 2355W        W18539  13.230   5.207  15.874  0.1772 -0.0525  0.0434
 2356W        W18540  14.402   0.900  15.954 -0.1144  0.1729 -0.0024
 2357W        W18541   8.177   4.654  14.932  0.0039  0.0211  0.2740
 2358W        W18542   2.672  16.500   0.940 -0.0219 -0.0858  0.1809
 2359W        W18543   4.086  11.303  13.776  0.0839  0.0629  0.2171
 2360W        W18544   1.051   9.484   3.628 -0.0885 -0.2856  0.1070
 2361W        W18545   5.614  17.028   5.774 -0.0865  0.0744 -0.3958
 2362W        W18546   2.241  13.759   1.845 -0.1953  0.1486  0.1823
 2363W        W18547   1.539   1.389  15.054  0.0958 -0.3100  0.3024
 2364W        W18548  10.202   3.008   3.513 -0.1768 -0.0260 -0.2620
 2365W        W18549   0.671   9.568   2.862  0.1536  0.2231 -0.0165
 2366W        W18550  15.697  14.778  12.043  0.2070  0.0359  0.1524
 2367W        W18551   8.195   0.876  12.056 -0.0397  0.0096  0.0891
 2368W        W18552   7.668   0.768   2.387 -0.0095  0.0322  0.0886
 2369W        W18553  10.936   5.232   2.863 -0.1229  0.0533  0.2835
 2370W        W18554   0.668  10.210  14.906  0.0035 -0.2767  0.2163
 2371W        W18555   7.156  10.860   2.042 -0.0311 -0.1516 -0.3603
 2372W        W18556   9.007  11.157  12.921  0.1740 -0.3340  0.0652
 2373W        W18557   5.475  17.169   2.045 -0.3773 -0.2784 -0.2173
 2374W        W18558   4.896  14.074   4.869 -0.1651 -0.0047  0.0875
 2375W        W18559   7.737  11.498  13.314 -0.0541  0.0662 -0.2154
 2376W        W18560   4.238   3.549  16.299 -0.2620 -0.0310 -0.1492
 2377W        W18561   2.367   1.811   2.545  0.0440  0.1633  0.0418
 2378W        W18562   7.926   4.788   2.399  0.0356 -0.1917 -0.0221
 2379W        W18563  12.643  15.214   2.787  0.1465 -0.0371  0.2069
 2380W        W18564   5.905   3.441  12.483 -0.2816 -0.0329 -0.0342
 2381W        W18565   4.050   9.732  12.488  0.1056  0.0158 -0.0618
 2382W        W18566  15.264   4.643   1.348 -0.1298 -0.1588 -0.1525
 2383W        W18567   7.667  13.217   5.182  0.0876  0.2723 -0.0976
 2384W        W18568  11.663  15.061   2.561  0.0869 -0.1058 -0.0138
 2385W        W18569   7.182  16.180   2.249 -0.0592  0.2858 -0.2429
 2386W        W18570  17.972  11.045  14.185 -0.1071  0.1693  0.0884
 2387W        W18571  10.689   9.401   0.878 -0.0107 -0.0573  0.2448
 2388W        W18572  11.262   7.346  14.655  0.1744 -0.0089 -0.1879
 2389W        W18573   7.071  15.558  14.152  0.0935 -0.1890  0.0713
 2390W        W18574  15.117   8.415  15.119  0.2272  0.0370 -0.3259
 2391W        W18575  14.743   2.165   1.288 -0.2500  0.4351  0.2262
 2392W        W18576  16.724   5.733  11.346  0.1079  0.1594  0.1373
 2393W        W18577   0.879   0.445  15.707  0.1503 -0.2100 -0.0337
 2394W        W18578   1.782  13.075   1.808  0.0749  0.2236  0.0016
 2395W        W18579   8.759   9.477   5.189  0.3289  0.2425 -0.2384
 2396W        W18580   0.988  12.930  12.923 -0.0134  0.0886 -0.2754
 2397W        W18581   4.000  17.683   2.607  0.1745 -0.0999  0.1637
 2398W        W18582  14.147   4.458   2.752 -0.0675 -0.2241  0.2253
 2399W        W18583  16.569   5.068   0.119  0.3934  0.1871 -0.2311
 2400W        W18584  14.871  17.416  13.312  0.1282  0.1885  0.3829
 2401W        W18585  14.463  17.259   1.456  0.2141 -0.1573  0.1191
 2402W        W18586   4.905   9.656  14.629  0.3688  0.2959  0.1682
 2403W        W18587  11.879  10.385  13.373 -0.3035  0.3312  0.3242
 2404W        W18588   0.885   5.960   4.584  0.1632  0.0675 -0.1001
 2405W        W18589   7.425   2.811   3.500  0.1616 -0.0262  0.1691
 2406W        W18590  13.313  12.769   4.976 -0.0069  0.0319  0.1985
 2407W        W18591  13.697  10.056   2.380 -0.1485  0.3211 -0.2249
 2408W        W18592  13.025  15.191  13.293  0.0969 -0.0081  0.3291
 2409W        W18593   7.176   6.622   1.560  0.0715  0.4271 -0.2670
 2410W        W18594  10.997  13.144  10.454 -0.0804 -0.0276  0.1022
 2411W        W18595  17.906   7.456   6.326 -0.1321 -0.0949 -0.2130
 2412W        W18596   1.148   3.627  13.155  0.1599 -0.0893 -0.2702
 2413W        W18597   7.642   3.905  15.093 -0.0429 -0.5056  0.2990
 2414W        W18598   6.379   5.473   1.922  0.1307  0.2578 -0.5275
 2415W        W18599   6.130   4.487  15.769 -0.0135  0.1744 -0.2973
 2416W        W18600   6.154  10.948   1.001 -0.3261  0.2213  0.0361
 2417W        W18601  12.794   7.612   4.600  0.1048 -0.0784 -0.1184
 2418W        W18602  10.996   8.748  13.999 -0.1171  0.0753  0.1917
 2419W        W18603   4.535   6.917  16.476  0.2188  0.0128  0.0334
 2420W        W18604   4.592  13.840   1.093  0.2792 -0.0265  0.2402
 2421W        W18605  16.932  15.648  10.356 -0.1348 -0.1079 -0.0938
 2422W        W18606  13.336   3.658   1.312  0.1303  0.1220  0.2435
 2423W        W18607   2.976   3.498  13.303  0.2747 -0.2765 -0.1925
 2424W        W18608   1.628  15.614  10.677  0.0027  0.2830 -0.1301
 2425W        W18609  16.142  17.724  12.658 -0.1382  0.0379 -0.2710
 2426W        W18610  17.037   3.943  14.406  0.1310 -0.0902  0.3009
 2427W        W18611   5.215  12.155  16.468  0.0580 -0.0450 -0.0406
 2428W        W18612   0.439  12.443  16.283  0.0380  0.1254  0.0490
 2429W        W18613  11.930   7.973   3.502 -0.0866  0.2450  0.1162
 2430W        W18614   1.796  17.756   1.442 -0.0338  0.1973  0.1358
 2431W        W18615  17.000   0.339  11.157  0.0232 -0.0286  0.0798
 2432W        W18616  15.739   6.238   3.181 -0.3071  0.1649  0.1360
 2433W        W18617  13.635  16.151   0.475  0.0364 -0.0755  0.0567
 2434W        W18618  10.444  15.311   2.186 -0.0211  0.0434  0.3509
 2435W        W18619   7.896   8.303   4.183  0.2081  0.1030 -0.0505
 2436W        W18620   6.576   3.760   5.354 -0.0344 -0.0276 -0.3026
 2437W        W18621  14.005   9.370  13.272 -0.2558  0.0034 -0.0558
 2438W        W18622   8.253  16.878   2.821 -0.2795 -0.0854  0.1275
 2439W        W18623  17.489  10.580   3.578 -0.2286 -0.0153  0.0751
 2440W        W18624  10.583  11.898  13.774 -0.2766 -0.0287 -0.0858
 2441W        W18625   4.741  14.413  16.039 -0.1122 -0.1967 -0.2662
 2442W        W18626  10.308  10.328   1.661  0.0480 -0.2448  0.0958
 2443W        W18627  12.241  11.036  11.810 -0.2576  0.0031  0.0465
 2444W        W18628   1.411  14.067   2.045  0.0768  0.0264  0.0593
 2445W        W18629  13.475   7.417   0.640  0.0489 -0.0510  0.3770
 2446W        W18630   0.959  10.486   6.107 -0.1057 -0.0860 -0.0916
 2447W        W18631  16.893   2.569  13.998  0.1493  0.0467 -0.0872
 2448W        W18632   2.945   9.701  15.305 -0.0607 -0.0294 -0.2176
 2449W        W18633   2.647  13.142   2.167 -0.0543  0.0132 -0.3985
 2450W        W18634   0.541   9.335   1.878 -0.0333 -0.0398 -0.2169
 2451W        W18635   2.630   2.516  14.797  0.0774  0.2464 -0.1346
 2452W        W18636   2.926   1.343  14.109 -0.2438  0.0046  0.1094
 2453W        W18637  12.158   1.363   0.711  0.0854 -0.0691  0.2269
 2454W        W18638   8.366   3.412   1.766  0.0265  0.0939 -0.0438
 2455W        W18639  11.021   2.787   5.202 -0.2795  0.2098  0.1186
 2456W        W18640   6.357   2.437   5.753 -0.0168  0.0105 -0.1323
 2457W        W18641  10.282   0.416   0.642  0.1335 -0.0338  0.2465
 2458W        W18642   1.532  13.245   0.649 -0.1956  0.0800 -0.1115
 2459W        W18643   2.598  15.834   0.143 -0.0277 -0.0925  0.0945
 2460W        W18644   2.471   0.442  15.958  0.3501 -0.1449 -0.2822
 2461W        W18645  17.981  12.656  15.748  0.0824 -0.0089 -0.1010
 2462W        W18646   5.732   5.681  13.920  0.1453 -0.0738 -0.0281
 2463W        W18647   4.083   3.471  12.648 -0.0424 -0.2103 -0.0734
 2464W        W18648   1.008   3.751   4.152 -0.0994 -0.1254  0.1414
 2465W        W18649   3.981   4.329  12.402 -0.0585  0.0398 -0.1280
 2466W        W18650  17.443   0.865  15.179 -0.2193 -0.1895  0.1027
 2467W        W18651  10.231   0.341  11.431  0.1922  0.0418 -0.2932
 2468W        W18652  15.498   9.508  14.012 -0.2812 -0.0491 -0.2301
 2469W        W18653  14.442   8.874   4.138 -0.2548  0.2726  0.0321
 2470W        W18654  17.649   0.201   4.079  0.0342  0.0043 -0.1251
 2471W        W18655  14.750   5.611  14.301  0.1548 -0.1596  0.2857
 2472W        W18656  15.944  11.776   1.004 -0.1509 -0.3254 -0.1007
 2473W        W18657  15.660  10.936   3.479  0.0707  0.2865  0.0178
 2474W        W18658  13.987   7.693  11.528 -0.0717  0.0013  0.1960
 2475W        W18659  14.049  10.257   0.689 -0.0180  0.0412  0.1688
 2476W        W18660  10.236  17.376   1.501 -0.0137 -0.0993  0.0681
 2477W        W18661   8.344  13.371  13.028  0.1264 -0.1294  0.3017
 2478W        W18662   0.406   4.332   1.014  0.2498 -0.2426  0.0564
 2479W        W18663   9.855  17.810   5.411  0.0759 -0.0255 -0.2290
 2480W        W18664   5.266   0.157   2.200  0.0189  0.1068  0.0406
 2481W        W18665  14.226   7.834   4.498  0.1130  0.0964  0.3041
 2482W        W18666   4.517   7.293   0.868  0.1719  0.1729  0.1209
 2483W        W18667  14.738   6.464  13.302 -0.0369 -0.1053 -0.0431
 2484W        W18668  17.257   8.332  13.560  0.0046  0.2921  0.3723
 2485W        W18669   7.407   5.669  12.246  0.0899 -0.0550 -0.1120
 2486W        W18670   6.254   1.972   2.648 -0.1177  0.2279 -0.4306
 2487W        W18671  13.615   9.555  14.281 -0.1210 -0.0263  0.0420
 2488W        W18672   5.636  15.843   0.747  0.0933 -0.0889  0.0026
 2489W        W18673   9.272  12.563   5.215 -0.0225  0.2225  0.1821
 2490W        W18674   0.247   9.870   2.838 -0.1334  0.0927  0.0860
 2491W        W18675  17.158   7.249   3.931  0.1047  0.1340  0.2862
 2492W        W18676   1.340  17.542  14.075 -0.1467 -0.2620  0.1034
 2493W        W18677  14.233  12.616  12.294 -0.1261  0.0404 -0.1495
 2494W        W18678  13.790   2.395   4.653  0.0275  0.1017  0.2378
 2495W        W18679  16.739   4.295  14.225  0.1927  0.1191  0.0654
 2496W        W18680   5.029  16.804   3.724  0.2790  0.0602  0.3081
 2497W        W18681  12.481  13.271   2.915 -0.4128 -0.1299  0.2799
 2498W        W18682   3.307   4.295   0.058 -0.0711 -0.4043 -0.1607
 2499W        W18683   5.704   7.592   0.820 -0.1568  0.0894  0.2120
 2500W        W18684  10.094  10.114   2.058  0.0321  0.1033 -0.1054
 2501W        W18685   1.573   6.978  12.572  0.3728  0.0518 -0.2052
 2502W        W18686   9.463  15.915   6.284  0.1026 -0.1717 -0.1211
 2503W        W18687   2.315  16.137   1.069  0.0905  0.2396 -0.3722
 2504W        W18688  11.035   0.856  13.921  0.1214 -0.0674  0.0295
 2505W        W18689  12.144   6.864   4.184 -0.0567  0.0321 -0.0380
 2506W        W18690   8.817  13.032   3.927  0.0009 -0.0590  0.1236
 2507W        W18691  11.740   9.380   2.566  0.2140  0.0930  0.1926
 2508W        W18692  13.201   4.919   5.734 -0.2174 -0.0220  0.1640
 2509W        W18693   5.705  12.367  13.285 -0.1179 -0.0519 -0.1501
 2510W        W18694  12.554   5.957   4.220 -0.0413  0.0872  0.0302
 2511W        W18695   5.528   8.734  12.741 -0.1009 -0.1223  0.2584
 2512W        W18696  17.670   1.304   3.738 -0.0794 -0.0574 -0.2739
 2513W        W18697  13.332  11.669   1.545 -0.3228 -0.0998  0.0747
 2514W        W18698   7.841  11.831   4.151  0.1374 -0.1805  0.0574
 2515W        W18699  17.322   6.707   4.627  0.0907  0.0405 -0.1335
 2516W        W18700   8.087  12.696  14.139 -0.1183  0.0111 -0.0577
 2517W        W18701  17.571   0.271  13.370  0.3829 -0.1143  0.0550
 2518W        W18702   4.771   7.391  15.070 -0.0955 -0.0904  0.1348
 2519W        W18703   3.443  16.314  15.820  0.0777  0.0619 -0.0373
 2520W        W18704  13.402   5.393  15.277 -0.0557  0.0290  0.1808
 2521W        W18705   2.629   7.409   5.703 -0.1271  0.1802  0.2223
 2522W        W18706  11.975  17.884   2.649 -0.1006 -0.1523  0.4256
 2523W        W18707   0.552  17.751  14.798 -0.0246 -0.3304  0.0321
 2524W        W18708   7.546  17.623   0.294 -0.0183  0.0779 -0.0939
 2525W        W18709  14.526   4.470  15.140  0.3618 -0.4045  0.0424
 2526W        W18710   2.387   3.089   3.034  0.1185  0.0350 -0.0376
 2527W        W18711  17.332  17.270   1.121  0.2306 -0.1527  0.0570
 2528W        W18712   7.973  13.823   4.444  0.2001  0.0580 -0.2255
 2529W        W18713  16.106  11.530   5.653 -0.1148 -0.0511 -0.0793
 2530W        W18714  15.069   5.947  14.092 -0.2017  0.0505 -0.2079
 2531W        W18715  14.213   2.436  12.262 -0.0230 -0.2281 -0.1339
 2532W        W18716  12.805  14.243  15.238  0.1045  0.1346 -0.0571
 2533W        W18717  13.810  16.773  14.320  0.0405 -0.0165  0.3515
 2534W        W18718  10.796  13.054  12.236  0.0510  0.0538  0.0922
 2535W        W18719  17.208  16.430  13.785  0.0569  0.1392 -0.0226
 2536W        W18720  12.860  15.469   2.415 -0.0953  0.1167 -0.2961
 2537W        W18721  11.510  14.480  13.118  0.0162 -0.1129  0.0040
 2538W        W18722   8.181  15.598   1.079  0.0203  0.0619 -0.1456
 2539W        W18723  17.151   9.420  14.385  0.0223  0.2467  0.0589
 2540W        W18724   7.614  13.625  12.676  0.2604  0.1546 -0.1797
 2541W        W18725   9.605  17.804   0.081  0.2278  0.0966 -0.0996
 2542W        W18726  15.330  17.717  14.652 -0.1072  0.1421 -0.0491
 2543W        W18727  13.531   4.144  11.926 -0.1293  0.0807  0.1756
 2544W        W18728   2.231   8.089   5.252  0.2568  0.1035 -0.1802
 2545W        W18729   1.108  11.577   3.848  0.2422  0.0928  0.0143
 2546W        W18730   9.718   9.056  12.624 -0.0183  0.1993 -0.0816
 2547W        W18731   9.508  13.716  15.418 -0.2239  0.1632  0.0842
 2548W        W18732  10.644  14.390   2.415 -0.0255 -0.0836 -0.2389
 2549W        W18733   6.523  10.372   0.049  0.1706  0.0797  0.0520
 2550W        W18734  14.356   5.266  13.463 -0.2111  0.2829 -0.2007
 2551W        W18735  11.094   1.938  15.415  0.3062 -0.2247 -0.1165
 2552W        W18736   6.284   5.745  16.121 -0.1769  0.2184 -0.1737
 2553W        W18737   7.235   3.174   0.347  0.0826  0.0018  0.0825
 2554W        W18738   7.621   3.266  16.625 -0.3303  0.4554  0.0839
 2555W        W18739   2.828   1.827   1.258 -0.0474  0.1682  0.4464
 2556W        W18740   7.324  15.202   1.658  0.0727  0.1940 -0.2424
 2557W        W18741   0.818  13.360  12.757  0.0121  0.2822 -0.3621
 2558W        W18742   5.338   4.217  15.428 -0.1119 -0.0973  0.1891
 2559W        W18743   5.574   0.863  13.687  0.1622  0.0174  0.0009
 2560W        W18744   9.007   8.427   1.596 -0.3083  0.0041 -0.2671
 2561W        W18745  13.402  13.705  13.566 -0.3362 -0.0633 -0.1264
 2562W        W18746   0.615   5.500  15.007 -0.0580  0.0705  0.0551
 2563W        W18747  17.127  16.042   4.763  0.1009  0.1285  0.0143
 2564W        W18748   5.725   2.748  11.895 -0.2179 -0.1214  0.3729
 2565W        W18749  13.360   8.222  13.931 -0.0413  0.1223  0.4397
 2566W        W18750  11.811  12.508   1.736  0.2623  0.0335 -0.1530
 2567W        W18751   4.808  16.748   2.761  0.2706 -0.3561  0.3051
 2568W        W18752   8.122  14.512   5.057  0.5000  0.0472  0.1182
 2569W        W18753   0.822   4.328   1.319  0.1821 -0.1477 -0.2505
 2570W        W18754  12.530   2.073   1.340 -0.0369  0.0726  0.1483
 2571W        W18755  16.974   9.854   4.576 -0.0991 -0.4282  0.2783
 2572W        W18756   9.014   3.309   0.949  0.1510  0.2480  0.1068
 2573W        W18757  17.447   9.886   4.724  0.2151 -0.3328 -0.1331
 2574W        W18758  17.498  12.513  12.935 -0.1609 -0.2118 -0.0496
 2575W        W18759   4.369   4.192  14.811  0.1856  0.3776 -0.1718
 2576W        W18760  14.545   7.262   1.685 -0.2845 -0.1081 -0.0037
 2577W        W18761  16.967   2.726   5.240  0.0772 -0.3503  0.1955
 2578W        W18762  12.793  14.519  16.669 -0.3727  0.0923  0.0151
 2579W        W18763   6.039  12.522   6.023  0.1670 -0.1472 -0.2284
 2580W        W18764   7.057   8.269  12.984 -0.2226 -0.1466  0.0070
 2581W        W18765  14.933   3.428  13.487 -0.1587  0.1362 -0.1161
 2582W        W18766   3.927  10.798  14.139  0.2474  0.1982  0.3361
 2583W        W18767   3.120   3.672  15.398 -0.2031 -0.2640 -0.0998
 2584W        W18768  13.093   7.504  11.738  0.2766  0.0115 -0.1425
 2585W        W18769  17.206   5.650  11.375  0.3730  0.0368 -0.1093
 2586W        W18770  13.493   0.756  14.172 -0.0858  0.1946 -0.2530
 2587W        W18771   4.411   7.290   5.762 -0.0814  0.3031  0.0806
 2588W        W18772  12.754   6.126   2.204 -0.0895 -0.0372 -0.0632
 2589W        W18773   1.959   9.526  16.654 -0.0812  0.1754  0.0895
 2590W        W18774  14.077   7.788  15.693 -0.1239  0.2494 -0.0944
 2591W        W18775  12.323   0.324   5.438 -0.1794 -0.0867  0.0111
 2592W        W18776  10.459  13.319   3.219 -0.0400 -0.2636 -0.1086
 2593W        W18777  12.456  11.682  13.140 -0.2260 -0.0270 -0.4225
 2594W        W18778  11.815  11.504   3.253 -0.3847 -0.3320  0.0222
 2595W        W18779   2.143   9.686  10.835  0.1872 -0.0864 -0.2152
 2596W        W18780  14.686  16.681  14.187  0.0423 -0.0897 -0.1256
 2597W        W18781  16.292   1.350   0.391 -0.0610  0.4152  0.0244
 2598W        W18782   4.859  16.559  14.482 -0.1707 -0.2446  0.1575
 2599W        W18783   4.373   9.534   0.824  0.1309 -0.0387  0.2156
 2600W        W18784  16.244   5.436  14.789 -0.0227 -0.0894  0.2802
 2601W        W18785  14.772  12.100  15.768  0.0322  0.3478  0.1203
 2602W        W18786   8.652  16.968   0.886 -0.2148  0.1305  0.1849
 2603W        W18787   8.613   7.353  11.966 -0.1980 -0.3312 -0.0171
 2604W        W18788  13.790   5.175  12.823 -0.1683  0.0796 -0.0061
 2605W        W18789   9.503  16.301   0.206  0.0831  0.1908 -0.1279
 2606W        W18790  14.312   7.267   3.802  0.0456  0.0182 -0.1229
 2607W        W18791   0.322   5.731  16.382  0.0551 -0.0668  0.0937
 2608W        W18792  16.158   1.858   1.653 -0.0272  0.0031 -0.1455
 2609W        W18793   6.451   2.706  14.248 -0.0701  0.2836  0.3314
 2610W        W18794   6.081  13.133   3.735  0.2693  0.1857 -0.2140
 2611W        W18795  16.204  17.787   4.023  0.1417  0.0742  0.1555
 2612W        W18796  17.036  14.922  14.379 -0.1713 -0.4475 -0.1058
 2613W        W18797  16.397   9.077   3.644  0.0457 -0.0694  0.0551
 2614W        W18798  17.543  12.193   0.782  0.0525 -0.0126 -0.0187
 2615W        W18799   2.549   8.791   4.102  0.1021  0.1069 -0.2692
 2616W        W18800   3.987   4.556  14.167  0.1638 -0.0977 -0.1552
 2617W        W18801  12.669   4.195   2.018  0.0606 -0.0031 -0.0817
 2618W        W18802   7.704  14.494  14.470 -0.0140 -0.1096  0.0917
 2619W        W18803   2.102   6.525  14.600 -0.1296  0.1675 -0.2033
 2620W        W18804   5.750   6.313  14.306 -0.4102 -0.1989  0.0699
 2621W        W18805  13.931  16.985  15.081  0.1968  0.1607 -0.2397
 2622W        W18806  12.899   6.696  13.456 -0.0667 -0.0949  0.0857
 2623W        W18807  17.865  11.108  10.405  0.0626  0.2010  0.1531
 2624W        W18808  12.259  14.905  15.103  0.0283  0.2325 -0.4425
 2625W        W18809  10.931   7.281  15.912  0.1745 -0.1635 -0.1637
 2626W        W18810   0.140   6.996  13.563 -0.1661 -0.2518 -0.1127
 2627W        W18811  17.354   1.981  16.483 -0.1639 -0.1298  0.1851
 2628W        W18812  17.156  15.182  10.509  0.0679 -0.1411  0.2788
 2629W        W18813   9.649  10.726  15.222  0.0330 -0.2985  0.0568
 2630W        W18814  14.733  17.055  15.859 -0.2642 -0.0320 -0.1087
 2631W        W18815   5.868  13.907   0.755  0.1416 -0.6077 -0.2099
 2632W        W18816   2.743  12.615   0.764  0.1072 -0.1454 -0.0316
 2633W        W18817   1.055  11.998   2.212  0.2650 -0.1607 -0.2845
 2634W        W18818   6.013   0.474  11.868  0.2738 -0.1825 -0.2740
 2635W        W18819  11.166  11.472  16.592  0.1183 -0.1642 -0.2259
 2636W        W18820  12.888  11.517   1.039  0.3029  0.1329  0.2544
 2637W        W18821  14.678   3.896   2.774  0.0733  0.1282  0.1423
 2638W        W18822   8.033   5.746   1.702 -0.1386 -0.2684  0.0590
 2639W        W18823   4.823  11.206   1.770 -0.0617  0.1880 -0.0655
 2640W        W18824  16.727   5.216   4.404 -0.2051 -0.4910 -0.0331
 2641W        W18825   9.356   5.451  16.503  0.2807  0.0700 -0.0944
 2642W        W18826   6.946  12.490   2.377  0.0275  0.1524  0.0395
 2643W        W18827  10.386  11.517  13.317  0.0278  0.0220  0.0859
 2644W        W18828   3.641  16.978   4.799  0.0924  0.1695 -0.2513
 2645W        W18829   9.511   1.797   6.215 -0.0867  0.0422 -0.1203
 2646W        W18830  13.759  13.524   2.590  0.2330 -0.2208  0.0662
 2647W        W18831   0.677  11.636   3.586  0.2425  0.0755  0.2128
 2648W        W18832  15.389  10.085   1.953 -0.0062 -0.2437 -0.0792
 2649W        W18833   4.001  16.583   2.275 -0.0536 -0.1072 -0.2177
 2650W        W18834   8.193  10.858   4.959 -0.0971 -0.0539 -0.0848
 2651W        W18835  11.143   9.930  12.527 -0.2308  0.4171  0.0379
 2652W        W18836   8.109   2.617  14.621  0.0001  0.0738  0.0390
 2653W        W18837   7.280  15.647   3.884  0.1189  0.3018  0.1067
 2654W        W18838   4.016   6.390   5.361  0.0449  0.2641 -0.0700
 2655W        W18839   2.683   2.662   1.386 -0.0985 -0.0018 -0.0421
 2656W        W18840  15.207  13.551  15.161  0.1709  0.3190 -0.0640
 2657W        W18841   4.890  10.676  13.180 -0.3463  0.1092  0.0262
 2658W        W18842   5.497   9.551  12.193  0.1321  0.0652 -0.1999
 2659W        W18843   2.538  14.081  13.541 -0.0891 -0.5208  0.1632
 2660W        W18844   6.597   2.221   1.811 -0.0187 -0.1247  0.0640
 2661W        W18845  16.776   4.256  14.698  0.3588  0.1423  0.1216
 2662W        W18846  10.197   3.263   5.337  0.0284 -0.1594 -0.0187
 2663W        W18847   4.135  13.888  14.916 -0.1057 -0.1540 -0.4725
 2664W        W18848  11.680   5.351   5.982 -0.0398  0.2181  0.1776
 2665W        W18849   5.249  12.123  15.517 -0.0473  0.0463  0.4652
 2666W        W18850  15.798  11.912  13.869 -0.2403  0.0146 -0.0230
 2667W        W18851  16.828  13.058  14.257 -0.3398  0.0327  0.0454
 2668W        W18852  12.037  11.444   2.785  0.0823 -0.1132  0.0031
 2669W        W18853  15.156  17.332  15.648  0.1586  0.0725 -0.1370
 2670W        W18854  16.710   8.793  16.042 -0.1532  0.3936  0.0701
 2671W        W18855   4.464  16.757   3.687 -0.1368 -0.0206 -0.1204
 2672W        W18856   7.571   4.963  13.101  0.0744 -0.1003  0.2741
 2673W        W18857   9.931  15.480  13.943 -0.1438 -0.2088  0.0209
 2674W        W18858   9.793   4.201  15.880  0.1900  0.3202  0.0337
 2675W        W18859   0.741  15.605  12.968 -0.2264  0.2455  0.1436
 2676W        W18860  16.952  12.556   3.501 -0.1266  0.0403  0.0967
 2677W        W18861  14.476   3.863  12.703  0.0462 -0.0730  0.4256
 2678W        W18862   6.247  15.190   3.288 -0.1505  0.1473 -0.1840
 2679W        W18863   5.940  12.089  16.461  0.0784  0.0195  0.0463
 2680W        W18864   3.132   9.470   5.665  0.2051 -0.1541 -0.2947
 2681W        W18865   1.654   2.761  15.866  0.2672  0.0352 -0.2215
 2682W        W18866   9.584  16.977  14.751 -0.0903  0.1033 -0.0970
 2683W        W18867   9.999   1.717  14.509 -0.0874 -0.0528  0.2051
 2684W        W18868   9.979  16.970   5.262 -0.0328  0.3720  0.3019
 2685W        W18869  16.194   7.832   3.973 -0.4505 -0.4216  0.2911
 2686W        W18870   8.710  13.863   1.893 -0.3550  0.1490 -0.0491
 2687W        W18871   1.966  17.971  15.145  0.4626  0.1083 -0.1017
 2688W        W18872  13.935   0.536   3.814  0.0130  0.1304  0.1279
 2689W        W18873   6.566   1.740  16.529 -0.0191  0.0368  0.1440
 2690W        W18874  16.028  16.414  13.553 -0.1186 -0.0530  0.2504
 2691W        W18875   1.079  17.099  15.938 -0.2631 -0.1625 -0.0005
 2692W        W18876  10.881   5.351  12.864  0.3784 -0.0362  0.1274
 2693W        W18877   6.874   9.977   4.995  0.1945 -0.2149  0.0905
 2694W        W18878  13.906   1.946  12.653 -0.0367 -0.0016 -0.0853
 2695W        W18879   1.848  14.044  15.652 -0.1284 -0.4226 -0.0178
 2696W        W18880   0.226  14.839   4.598 -0.2724 -0.1302 -0.1801
 2697W        W18881  12.384   3.892  16.394 -0.0673 -0.2103 -0.0453
 2698W        W18882   3.687  16.184   1.238 -0.0685 -0.1716 -0.1711
 2699W        W18883   3.371   6.060  12.300 -0.0127 -0.1341 -0.1971
 2700W        W18884  15.708   3.078  16.233 -0.2516 -0.1619  0.0572
 2701W        W18885  15.192  10.211  12.548  0.2464  0.2318  0.0069
 2702W        W18886  16.098   7.422  13.357  0.0046  0.2474 -0.2174
 2703W        W18887  11.508   0.392  13.247  0.0808 -0.0911  0.3412
 2704W        W18888   5.146   4.649   0.764 -0.0015 -0.1032  0.0535
 2705W        W18889  10.493   7.539  15.144  0.3179  0.0401 -0.1088
 2706W        W18890  14.270   7.663  12.661  0.1580  0.0864 -0.0568
 2707W        W18891   6.442   0.564   0.608 -0.0604 -0.1052 -0.3425
 2708W        W18892  15.018  12.187   1.991  0.3386  0.0491 -0.0802
 2709W        W18893  17.166  15.820   0.717  0.2413  0.2347 -0.1156
 2710W        W18894   9.782   3.031  14.546 -0.3395  0.1140  0.0730
 2711W        W18895  16.141   0.152   1.755 -0.2720 -0.2561 -0.1347
 2712W        W18896   3.841  13.691   2.795  0.1111  0.0793 -0.0287
 2713W        W18897   4.792  10.160   5.853 -0.1511 -0.1954  0.1181
 2714W        W18898   4.867  17.411  15.675 -0.2329  0.0804 -0.1027
 2715W        W18899  15.005   3.122  13.924  0.3235  0.1565  0.1904
 2716W        W18900   0.276  11.252  13.777  0.0336  0.2817 -0.0993
 2717W        W18901   8.023  17.066   3.276 -0.0650 -0.0456  0.1272
 2718W        W18902  13.862   6.702  12.601  0.1943 -0.1304 -0.0761
 2719W        W18903  17.921   9.599   3.970  0.1013 -0.1664  0.0903
 2720W        W18904   1.063  10.341   4.116  0.2606 -0.0460 -0.0683
 2721W        W18905  10.182   0.030  14.813 -0.0125 -0.2664  0.2883
 2722W        W18906  11.572   9.782  16.632 -0.2134 -0.0984 -0.2054
 2723W        W18907  10.958   1.322   0.057  0.0477  0.3025  0.0300
 2724W        W18908   4.668   9.666   3.817  0.2969 -0.0747 -0.2432
 2725W        W18909  16.631   4.945  10.655  0.4502  0.1435  0.1692
 2726W        W18910   7.830   9.868   1.739  0.0051 -0.2119 -0.0546
 2727W        W18911  11.705  15.157   4.054  0.1204 -0.1385  0.2553
 2728W        W18912   3.752   1.034  13.541  0.0031 -0.2192  0.1709
 2729W        W18913   2.609  10.003   2.737  0.0333  0.0564  0.0148
 2730W        W18914  15.999   9.164  13.293  0.2882  0.1963  0.1477
 2731W        W18915  12.896   2.155  11.501  0.2396 -0.1660 -0.1683
 2732W        W18916   6.877  15.833   3.074  0.0911  0.1019  0.1286
 2733W        W18917  14.590   0.335   4.689  0.2441  0.1620 -0.0407
 2734W        W18918  16.218  17.598  15.028  0.1450  0.2398  0.1340
 2735W        W18919   5.978   2.557  14.963  0.0050  0.0750 -0.2499
 2736W        W18920   3.101   2.230   1.150  0.1405  0.0653  0.2158
 2737W        W18921   8.861   9.530   0.171  0.0174 -0.1480  0.2370
 2738W        W18922   9.299   4.083   3.487  0.1343  0.0725  0.2493
 2739W        W18923   6.066   4.265  12.993  0.0838 -0.1038  0.0543
 2740W        W18924   2.722   9.193  14.120 -0.2217  0.1908  0.0481
 2741W        W18925  13.469  14.496  14.024 -0.1365  0.1743 -0.0888
 2742W        W18926   7.527  15.710  16.685 -0.0956 -0.1163  0.0854
 2743W        W18927   4.914  11.507  15.228  0.1353  0.2213 -0.5422
 2744W        W18928   3.199   6.924  12.882  0.0114  0.2192 -0.3941
 2745W        W18929   4.246  16.126  13.538 -0.0803 -0.0905  0.1151
 2746W        W18930   0.608   8.555  12.080  0.0573  0.4494 -0.2269
 2747W        W18931   6.536   3.262   1.030  0.0549  0.0183 -0.4183
 2748W        W18932  12.498  11.671   4.545 -0.1492 -0.1258 -0.2225
 2749W        W18933   3.687  12.838  15.071  0.2148 -0.1208  0.0516
 2750W        W18934  15.277  12.373   0.988  0.2285 -0.0410 -0.2330
 2751W        W18935   6.913   9.171   1.132 -0.1499 -0.3560  0.3854
 2752W        W18936   0.926   0.392  14.170  0.0666 -0.0074  0.0311
 2753W        W18937  14.706  17.032  11.506 -0.0962 -0.1045 -0.0901
 2754W        W18938  15.714  17.377  11.521  0.0102 -0.1913  0.3387
 2755W        W18939   9.742  14.248   2.560  0.0399 -0.0057  0.1268
 2756W        W18940  10.552   1.452  13.584 -0.1454  0.0308 -0.1025
 2757W        W18941   0.559   3.405   4.915  0.0675 -0.1113 -0.0301
 2758W        W18942   0.831   9.390   1.244 -0.1840  0.0571  0.0805
 2759W        W18943   2.739   4.034  15.439  0.2045  0.0129 -0.0549
 2760W        W18944  17.163  16.932  13.679 -0.2993 -0.0183  0.1301
 2761W        W18945   4.461  17.258  14.855 -0.2524  0.0460 -0.0491
 2762W        W18946  10.480   0.662  12.277 -0.1776  0.2097 -0.0697
 2763W        W18947   6.593  11.789   0.510  0.0500  0.2369 -0.1764
 2764W        W18948  15.068  14.124   2.506 -0.0194  0.4033 -0.5455
 2765W        W18949   7.671   3.902  11.874  0.0231  0.0721  0.0507
 2766W        W18950  16.402   9.722  11.706 -0.0580  0.1820  0.1479
 2767W        W18951   7.901   7.734   2.997  0.1692  0.0932  0.0691
 2768W        W18952  13.304   3.689   4.690 -0.0438  0.0076  0.0017
 2769W        W18953   0.420  15.101   3.636 -0.0648  0.0205 -0.0328
 2770W        W18954   7.390  14.628   3.110  0.1041 -0.3821 -0.1943
 2771W        W18955   2.502  14.382  12.222 -0.0726 -0.1221 -0.0834
 2772W        W18956   7.894  16.886   4.162 -0.0377 -0.2411  0.0635
 2773W        W18957  17.417  16.290   5.614  0.0782  0.0926 -0.0562
 2774W        W18958  15.715   9.110   3.835  0.2419  0.2062  0.0625
 2775W        W18959  11.820   2.499  16.559  0.1290 -0.3711  0.1512
 2776W        W18960  12.751   3.127  12.441  0.1218 -0.2925  0.1346
 2777W        W18961   3.044   5.603  12.188  0.0291  0.0224 -0.3352
 2778W        W18962  12.059   0.257   5.926  0.1913  0.0171 -0.0610
 2779W        W18963  17.586   2.642  13.132  0.0584  0.1432 -0.1853
 2780W        W18964   6.202   8.428   2.071 -0.0307  0.1346 -0.0573
 2781W        W18965   4.465  10.144  14.265  0.1040 -0.0192 -0.2227
 2782W        W18966  12.605   9.743   4.115 -0.0565  0.0432 -0.1719
 2783W        W18967   4.962   8.216   4.884 -0.0070 -0.2830 -0.1233
 2784W        W18968  13.411   6.095   2.461  0.0231 -0.1104  0.1099
 2785W        W18969   5.968   8.819  12.444  0.2902  0.1545  0.2098
 2786W        W18970  15.947   3.721  15.955 -0.1669  0.0543 -0.0998
 2787W        W18971  16.194   9.414  14.498 -0.3647 -0.2226 -0.1483
 2788W        W18972   3.076  12.148   3.647 -0.0547  0.0403 -0.0047
 2789W        W18973   6.899  14.931   4.057  0.1351 -0.0965 -0.2696
 2790W        W18974   2.970  16.339  13.069 -0.1777 -0.0496  0.0244
 2791W        W18975  10.631   4.863   5.503 -0.2511 -0.0531  0.2178
 2792W        W18976   5.931  12.882  14.364 -0.2542 -0.2772 -0.1839
 2793W        W18977  10.961   4.369   5.998  0.2400  0.2255  0.1863
 2794W        W18978  10.012  15.053   3.461  0.6410  0.1585  0.1893
 2795W        W18979  14.464   3.934  15.957 -0.0425  0.1257 -0.1691
 2796W        W18980   1.588  16.168  15.363  0.1559 -0.1012  0.0286
 2797W        W18981   6.403   0.628  16.377 -0.0667 -0.1512 -0.1824
 2798W        W18982  14.753   7.671  11.974 -0.1028  0.0893  0.0866
 2799W        W18983   8.727   3.787  15.057  0.0225  0.0890 -0.1183
 2800W        W18984   4.773   8.692   5.324 -0.0371 -0.0522  0.1403
 2801W        W18985   1.087   9.148   2.025 -0.1419  0.0815  0.0910
 2802W        W18986   5.674  16.798  15.925 -0.1453  0.1002 -0.1360
 2803W        W18987  10.095  16.114   0.723  0.1945 -0.0616  0.2415
 2804W        W18988  10.393   1.672  16.124 -0.1778  0.0831  0.2583
 2805W        W18989  11.571   9.045  15.146 -0.2779 -0.1876  0.1409
 2806W        W18990   9.842   5.103  14.704 -0.3262 -0.0715  0.3109
 2807W        W18991  16.505   2.113  14.054 -0.0960  0.1210  0.2713
 2808W        W18992   0.663  12.080  12.769  0.0763 -0.1128 -0.2071
 2809W        W18993  14.587   0.457   0.858 -0.0970 -0.2487 -0.0241
 2810W        W18994   2.326   6.551  13.294  0.2219 -0.0125  0.2447
 2811W        W18995   6.551  14.518   0.570  0.2803  0.3022  0.0478
 2812W        W18996  14.615   5.510   3.543  0.5828 -0.0668 -0.2662
 2813W        W18997  11.418   7.969  15.195 -0.3760  0.1269 -0.2626
 2814W        W18998  15.063  15.484  14.303  0.0268  0.0507  0.2828
 2815W        W18999  12.118  15.425  14.294 -0.1942 -0.0708  0.0249
 2816W        W19000  15.884   6.752   3.306 -0.0011  0.5053 -0.1166
 2817W        W19001  12.527   8.520  14.282  0.0114 -0.2731  0.0807
 2818W        W19002  16.016   0.174  16.115 -0.0245 -0.0686  0.1817
 2819W        W19003  14.024  13.150   4.477  0.2221  0.0637  0.0167
 2820W        W19004  17.660   7.928  12.763 -0.1977 -0.1746  0.2359
 2821W        W19005  17.023   9.579   0.512  0.1776 -0.3675 -0.0230
 2822W        W19006   3.107   3.345  15.866  0.0018  0.0882 -0.2477
 2823W        W19007   4.292   3.565   3.003  0.1527 -0.1828  0.3442
 2824W        W19008   0.469   0.520  11.936  0.1363  0.1302 -0.2536
 2825W        W19009  13.864  10.445  14.223 -0.3342  0.1436 -0.1740
 2826W        W19010  11.951  14.067   1.502  0.1546  0.0269 -0.1273
 2827W        W19011   4.540  13.610   4.890  0.0656 -0.0747  0.3815
 2828W        W19012   8.062  13.179  14.503  0.0877  0.2395  0.1997
 2829W        W19013  11.721  14.075   2.611  0.0438 -0.1629  0.1772
 2830W        W19014  16.229   6.201  15.453  0.0337  0.0514 -0.2000
 2831W        W19015   8.337   1.410  16.256 -0.0166  0.0305  0.3198
 2832W        W19016  15.926  11.676  16.021  0.2098  0.2115 -0.2971
 2833W        W19017  10.614   5.290   0.629  0.0107  0.0066 -0.0086
 2834W        W19018   8.366   8.409   4.127 -0.1502 -0.0509 -0.0995
 2835W        W19019   9.211  15.580   0.250 -0.2936  0.3956 -0.2843
 2836W        W19020   3.091   3.868   1.549  0.1043  0.1558  0.0123
 2837W        W19021   4.143  11.112  11.673 -0.0333  0.1738 -0.0761
 2838W        W19022   2.508   2.263   3.859  0.2063  0.0202 -0.3236
 2839W        W19023  13.125   9.676  14.329 -0.0806  0.1173  0.0423
 2840W        W19024  11.253   3.246  13.960  0.0077  0.2371  0.0263
 2841W        W19025  11.436   1.196  11.380  0.0268  0.0374 -0.1271
 2842W        W19026  13.297   9.388  12.773 -0.1203 -0.1990 -0.0139
 2843W        W19027   1.345  12.455  12.242 -0.1236 -0.2856 -0.1888
 2844W        W19028  13.163   8.114  16.024  0.0277  0.0482  0.2726
 2845W        W19029  16.243   1.435  13.598  0.0893 -0.0917  0.1565
 2846W        W19030   1.687   0.208  16.049 -0.0079 -0.0955 -0.1076
 2847W        W19031  12.338   8.143   6.293 -0.1006 -0.1177  0.0385
 2848W        W19032  12.650   8.804  13.406 -0.1586  0.1376  0.0539
 2849W        W19033  15.627  16.900  14.354  0.2995  0.1002  0.2295
 2850W        W19034   4.129  16.442  11.389 -0.0683 -0.2661 -0.1536
 2851W        W19035   3.283  11.253  15.172  0.2000 -0.1410 -0.3190
 2852W        W19036   6.981  13.723  13.616  0.0262  0.2099  0.2387
 2853W        W19037   0.472  13.473   0.669  0.1579 -0.2567 -0.0797
 2854W        W19038   7.051   5.071  13.224 -0.1064  0.1638 -0.2386
 2855W        W19039   0.887  15.306   3.597 -0.0666 -0.1656 -0.1239
 2856W        W19040   7.796   1.527   3.172 -0.2108 -0.0144  0.0319
 2857W        W19041   3.465  15.125  14.321  0.1407  0.0659 -0.2920
 2858W        W19042   8.420   1.071   4.680 -0.0367 -0.0706  0.0491
 2859W        W19043   2.542  12.331   0.405 -0.1505  0.1467 -0.3091
 2860W        W19044   3.406   9.024   5.751 -0.2605 -0.2253 -0.0277
 2861W        W19045   6.894   2.259   0.513 -0.2887 -0.1524 -0.1051
 2862W        W19046   0.938   1.716  12.628  0.0126  0.2540  0.0746
 2863W        W19047   9.165  13.003  14.025 -0.1474  0.1449 -0.1550
 2864W        W19048   4.372   4.446   1.697  0.0442 -0.1479 -0.0864
 2865W        W19049   6.814  17.411  15.667  0.2641  0.0728 -0.0052
 2866W        W19050  13.530  16.419  14.003  0.1936 -0.0968 -0.0083
 2867W        W19051   3.672  11.399  16.661 -0.0469  0.3235 -0.0127
 2868W        W19052   6.420  11.369   0.168  0.1384  0.1218 -0.0702
 2869W        W19053  12.491   4.587  12.354  0.3816  0.0262 -0.0244
 2870W        W19054   8.179   9.109  14.736  0.2557  0.1827 -0.1523
 2871W        W19055   1.946   7.338   4.985 -0.4391  0.3527 -0.0091
 2872W        W19056   4.042  12.561   2.728  0.0645  0.1553  0.2499
 2873W        W19057  16.290  16.181   3.367  0.2671 -0.0132 -0.3799
 2874W        W19058   7.602   4.192   5.014  0.0186  0.1792  0.2151
 2875W        W19059  10.175   4.803  13.249  0.0218  0.0711 -0.3342
 2876W        W19060   9.034  15.888   0.610 -0.0460  0.0957 -0.1668
 2877W        W19061   6.819  12.619  16.212  0.0945 -0.0004  0.1983
 2878W        W19062  16.687   8.561   1.238 -0.1082  0.0099 -0.0601
 2879W        W19063   9.560  14.585  13.771 -0.0140  0.2307  0.1636
 2880W        W19064  14.577   8.612  14.174 -0.0184 -0.0424 -0.0611
 2881W        W19065   3.502   5.600   1.110 -0.0520  0.3417 -0.1556
 2882W        W19066   5.136   5.787   2.933 -0.1043 -0.1208 -0.1374
 2883W        W19067  16.262   4.165  16.222 -0.1652 -0.0833 -0.0212
 2884W        W19068   5.974   7.369   4.119  0.2415  0.1591  0.0501
 2885W        W19069   8.174   0.398   0.803  0.1911 -0.2398 -0.3655
 2886W        W19070  13.589   7.689  11.825  0.0148 -0.2230 -0.1550
 2887W        W19071  11.188  10.206  14.974 -0.0727  0.0599  0.0381
 2888W        W19072   1.452   6.241  15.866  0.0474  0.0660 -0.1157
 2889W        W19073   0.376   1.810  12.771  0.0199  0.0660 -0.2377
 2890W        W19074   6.513   0.357  11.959  0.0217 -0.0003 -0.0437
 2891W        W19075   7.945  16.106  13.106  0.2689 -0.0193  0.1474
 2892W        W19076   8.227   8.828  15.441 -0.0799 -0.0535 -0.1606
 2893W        W19077  16.884   6.709   0.502  0.1562 -0.1850 -0.0258
 2894W        W19078  11.746   3.131  12.475 -0.0846  0.0519  0.0147
 2895W        W19079  16.213  17.029  12.246 -0.4279  0.0993  0.1564
 2896W        W19080   9.297   4.811   3.998  0.0075 -0.0473 -0.1549
 2897W        W19081   0.662   4.600  12.696 -0.2453 -0.0598 -0.2317
 2898W        W19082   3.060   7.064   3.147 -0.0630 -0.1846 -0.1611
 2899W        W19083   3.471   3.351  13.972 -0.0499  0.0635 -0.2801
 2900W        W19084   7.861   7.372   5.050  0.2427 -0.0104  0.0556
 2901W        W19085  10.960  12.743   0.787  0.0269  0.0725  0.3144
 2902W        W19086   7.009  11.215   0.241  0.0299 -0.0183 -0.0151
 2903W        W19087  14.139   0.507  13.035 -0.1719 -0.0398 -0.3981
 2904W        W19088   3.887  12.340   1.475  0.5421  0.2334 -0.3824
 2905W        W19089  12.807   9.238  14.337  0.1559  0.0584 -0.2348
 2906W        W19090   4.547  15.685  11.365  0.1062  0.0467  0.0755
 2907W        W19091   2.233  10.426   1.174 -0.1142  0.2106 -0.0715
 2908W        W19092  10.702   5.718   3.016  0.1552 -0.5176  0.1227
 2909W        W19093  11.990  16.307  15.543 -0.0348 -0.0667  0.1168
 2910W        W19094  10.383   4.106  15.175  0.0508  0.0906  0.1398
 2911W        W19095   9.717  14.230   4.432 -0.0249 -0.1794 -0.0872
 2912W        W19096   0.679   2.041   5.096  0.1261  0.0077 -0.0482
 2913W        W19097   7.913  10.078   4.879  0.2140 -0.1273  0.3935
 2914W        W19098   4.338  12.143  15.936  0.0452  0.1195 -0.3445
 2915W        W19099   2.059   1.272  14.631 -0.0384 -0.2940 -0.2026
 2916W        W19100   4.734   0.547   4.040 -0.4467  0.1723 -0.0826
 2917W        W19101   0.993   6.511  13.625  0.0321 -0.1834  0.1510
 2918W        W19102   6.843   4.000   1.397 -0.1900 -0.3949 -0.3223
 2919W        W19103   2.750  16.340  11.807  0.1405 -0.1629  0.1662
 2920W        W19104  15.599   1.415  11.263 -0.3199 -0.2446 -0.3203
 2921W        W19105   5.881   9.165  16.299 -0.3215 -0.1088  0.0866
 2922W        W19106  13.334   8.665  15.882  0.1100 -0.3038 -0.1212
 2923W        W19107   3.031   0.494  14.347  0.2394  0.0982 -0.1741
 2924W        W19108   4.827  12.740   4.736  0.0291  0.0078  0.0141
 2925W        W19109   0.046   0.643  12.637 -0.0841  0.2045 -0.2471
 2926W        W19110  17.375   2.500   1.145 -0.1075 -0.2355  0.1289
 2927W        W19111  11.820   7.920  14.717 -0.0114 -0.1720 -0.2171
 2928W        W19112   5.192  17.814  14.416  0.0676 -0.4544 -0.3130
 2929W        W19113   1.637  12.869  15.395  0.0936  0.0956  0.0064
 2930W        W19114  10.793   7.655   3.435 -0.1525 -0.1031  0.0315
 2931W        W19115   7.529   5.070  16.397  0.1863  0.0569 -0.0835
 2932W        W19116   1.865   0.420   1.720 -0.0718 -0.1904 -0.3740
 2933W        W19117   4.830  17.606   2.343  0.0285 -0.1687  0.0682
 2934W        W19118  12.386   2.787   0.758  0.2026 -0.0258 -0.0981
 2935W        W19119  15.371   2.725  13.089 -0.1365 -0.0400 -0.2680
 2936W        W19120   2.618   2.980   0.951 -0.0063 -0.0600  0.1655
 2937W        W19121  12.921   4.328   0.773  0.2428  0.3064 -0.2258
 2938W        W19122   9.849  11.452  13.445 -0.0501 -0.0984 -0.0772
 2939W        W19123   9.345   0.560   3.264 -0.0553 -0.0562  0.1321
 2940W        W19124  12.787   6.270  16.635 -0.1401 -0.1174 -0.2151
 2941W        W19125   4.783  11.411  11.219  0.1250 -0.0077 -0.0932
 2942W        W19126   5.816   4.671   0.160 -0.1160 -0.0653 -0.0942
 2943W        W19127  15.195   2.375  12.168 -0.0338 -0.1977  0.0004
 2944W        W19128  13.016   0.990  14.852  0.0534  0.1465  0.1446
 2945W        W19129  12.248   3.111   0.415 -0.0616  0.1849  0.1733
 2946W        W19130   4.221  14.635   3.668  0.0239 -0.1616  0.1833
 2947W        W19131  13.870   2.952   0.703  0.0161 -0.0114  0.0000
 2948W        W19132  15.841   2.108  12.668  0.0776  0.0418  0.2340
 2949W        W19133  15.455  15.243  12.710 -0.3017  0.1311  0.0478
 2950W        W19134   3.103   5.718  14.835  0.0520  0.0032  0.0498
 2951W        W19135   9.666   7.395  13.761  0.1910 -0.0644  0.1941
 2952W        W19136  11.314   7.919  11.761 -0.2114 -0.1403 -0.2330
 2953W        W19137   7.076   4.823  15.098  0.1092 -0.1129 -0.1071
 2954W        W19138  14.845   7.175  16.270  0.2712  0.0790 -0.1047
 2955W        W19139  14.155  15.211   2.686  0.1715  0.0105 -0.1863
 2956W        W19140   3.240  11.797   1.066 -0.2157 -0.0603 -0.2119
 2957W        W19141   4.124   6.079  15.456 -0.7890  0.2317  0.1990
 2958W        W19142   5.413  12.198   5.324 -0.0540  0.0046  0.1058
 2959W        W19143  13.475  11.652  16.498  0.0219  0.0457 -0.1712
 2960W        W19144   1.990  17.389  15.593  0.0750 -0.2729  0.0934
 2961W        W19145  17.672   8.133  16.455  0.0878  0.4157 -0.2182
 2962W        W19146   1.966   0.677   4.145 -0.2558 -0.0792  0.3030
 2963W        W19147  11.061   0.425   5.575  0.0613  0.2959 -0.0751
 2964W        W19148  12.202  11.670  12.563 -0.0984 -0.0301  0.1491
 2965W        W19149  11.475   2.042  14.456 -0.3390  0.3823  0.1449
 2966W        W19150   5.065   6.322   3.472  0.2300 -0.2574  0.0522
 2967W        W19151   7.093  13.257   1.922  0.1820 -0.1881 -0.0565
 2968W        W19152   7.462   7.828   6.782 -0.0695 -0.2245  0.1226
 2969W        W19153  13.579  14.219   4.551 -0.2859 -0.0831 -0.1540
 2970W        W19154  10.366  13.685   5.455 -0.1154  0.0817  0.0079
 2971W        W19155   3.085   8.806   4.369 -0.2431 -0.0382 -0.1807
 2972W        W19156   8.337  12.271  12.518  0.1491 -0.1573 -0.0911
 2973W        W19157   1.217  16.125   2.551  0.0110  0.1691  0.2323
 2974W        W19158   7.744   3.969   1.359 -0.0624 -0.1874 -0.1017
 2975W        W19159   5.220  12.147  13.633 -0.0927  0.3371  0.0892
 2976W        W19160  12.469   3.218  11.939 -0.1838  0.1419  0.0870
 2977W        W19161   3.543   0.581  11.901 -0.1743 -0.3903  0.0588
 2978W        W19162   8.733  16.564   2.448 -0.1119  0.1381 -0.0699
 2979W        W19163  16.693   6.008  15.615 -0.0023 -0.2639 -0.2598
 2980W        W19164   1.332   2.062   3.320  0.0372 -0.0894  0.0307
 2981W        W19165   9.900  14.686   4.649  0.3850 -0.0973 -0.1036
 2982W        W19166   3.815   3.479  16.002 -0.1263 -0.2920 -0.0995
 2983W        W19167   4.183   1.364  13.660  0.0772  0.4581 -0.0113
 2984W        W19168  17.208   1.578   2.074 -0.1685  0.1636 -0.1262
 2985W        W19169   8.992   7.704  16.349  0.1594  0.3037  0.1586
 2986W        W19170  15.164   8.428  14.310 -0.0132  0.2573  0.0043
 2987W        W19171   2.032   4.153   5.434  0.0338 -0.1352  0.1017
 2988W        W19172   5.377   5.309   6.091 -0.0049 -0.1087 -0.2103
 2989W        W19173   1.996   3.591  16.084  0.0650  0.0790  0.1453
 2990W        W19174  14.491  15.021   1.783 -0.1627  0.1713  0.1135
 2991W        W19175   0.323  11.817   5.339  0.2665 -0.0313  0.0830
 2992W        W19176   2.436   8.812  11.745 -0.1433  0.3126 -0.2195
 2993W        W19177  16.447   7.755   2.213  0.0550 -0.0032  0.0756
 2994W        W19178   0.767   2.633   1.194 -0.0467 -0.0710  0.0029
 2995W        W19179   0.726   0.927  14.852  0.0964 -0.0552  0.0941
 2996W        W19180   5.434   9.820   3.842  0.3052 -0.2248  0.1025
 2997W        W19181   3.838   2.028   0.253 -0.0061 -0.0184 -0.0927
 2998W        W19182   4.687   0.403  12.449 -0.3040 -0.1255 -0.0946
 2999W        W19183  17.500   1.320  13.723  0.0499  0.1118 -0.1087
 3000W        W19184  13.315   0.498   1.036  0.3030 -0.1879 -0.0455
 3001W        W19185   1.021  10.384  15.943  0.0454 -0.0723 -0.0555
 3002W        W19186  17.183   4.411  14.384 -0.0938  0.0178 -0.1054
 3003W        W19187   7.003  14.790   0.297  0.0909 -0.0062 -0.0362
 3004W        W19188   0.206  13.213   3.167  0.3901  0.0247 -0.2604
 3005W        W19189  15.028   8.737   2.014  0.3831 -0.1683  0.0339
 3006W        W19190   9.299   3.392  12.903  0.0857 -0.2427 -0.0093
 3007W        W19191   7.055   7.863  11.929 -0.0973 -0.0314  0.1713
 3008W        W19192  10.698  12.611  13.075  0.1338  0.0516  0.3157
 3009W        W19193  12.786  13.334   1.872  0.0563 -0.2398 -0.0276
 3010W        W19194   2.992   7.038  14.073  0.0232 -0.2363  0.3476
 3011W        W19195   0.773   8.175   4.266 -0.0134 -0.1688 -0.0294
 3012W        W19196  17.271  14.018   1.748 -0.0202 -0.1140  0.2264
 3013W        W19197   7.782  16.894  14.978 -0.3095 -0.2261 -0.0088
 3014W        W19198  15.226  10.211   1.397 -0.0849 -0.1052 -0.2191
 3015W        W19199   9.440   9.969  11.686  0.1003  0.0657  0.0942
 3016W        W19200   1.823   6.606   2.804  0.1241 -0.2534 -0.0756
 3017W        W19201   2.270   1.179   4.905 -0.3210  0.1691  0.1128
 3018W        W19202   9.069   4.515   3.682  0.1539 -0.0305  0.2514
 3019W        W19203   8.644   7.081   1.366 -0.0811  0.1126  0.1886
 3020W        W19204   4.134  15.946  15.305  0.2181  0.0625  0.0013
 3021W        W19205   4.522  11.883  11.599 -0.2604  0.0556  0.3622
 3022W        W19206  17.232   3.675   3.337  0.1199  0.1816 -0.2702
 3023W        W19207   1.665   8.529  12.207  0.0111  0.1293  0.1856
 3024W        W19208  11.405  16.787  11.927 -0.0753 -0.0498 -0.0226
 3025W        W19209   1.781  10.092   5.604  0.0210  0.2674 -0.0353
 3026W        W19210   0.409  16.479  10.934 -0.2365  0.1053 -0.0806
 3027W        W19211   3.206   5.712  13.886 -0.0861 -0.2315 -0.0162
 3028W        W19212   7.037  15.176  15.408 -0.1294 -0.1268  0.1927
 3029W        W19213   5.673  12.496  12.742  0.6098  0.0842  0.1344
 3030W        W19214   9.484  11.206   1.853  0.0130 -0.3160  0.2025
 3031W        W19215  12.772  14.709  15.298  0.2828 -0.2326  0.2376
 3032W        W19216   7.656   4.208   4.472 -0.1091 -0.1027  0.0581
 3033W        W19217   7.024  10.542   6.342 -0.0668  0.0723  0.1270
 3034W        W19218  11.197   4.277   3.893  0.0585  0.2534 -0.1558
 3035W        W19219   8.521  17.379   4.730 -0.1467  0.1844 -0.3615
 3036W        W19220  11.894   6.487   3.778 -0.0429  0.0589 -0.1287
 3037W        W19221  16.910  10.974  11.447  0.1626 -0.2637  0.1014
 3038W        W19222   7.067   7.533   3.081 -0.4436 -0.0964  0.1135
 3039W        W19223  12.592  13.571   5.621  0.1134 -0.1741 -0.1084
 3040W        W19224   6.719   5.829   1.747 -0.1941  0.0016 -0.0045
 3041W        W19225   7.004   8.412   3.815 -0.4529  0.0446  0.0725
 3042W        W19226   8.604  17.634  13.095 -0.0347 -0.0841  0.4697
 3043W        W19227   1.367   3.718   2.307  0.0491  0.1523  0.0560
 3044W        W19228   0.025   7.281  14.549  0.1828  0.0517  0.2913
 3045W        W19229  15.103  12.194  15.051  0.1054  0.1616 -0.3302
 3046W        W19230  15.576  10.834   4.673  0.0353 -0.2048  0.0518
 3047W        W19231   1.329  13.766   1.557  0.2067  0.0138  0.0176
 3048W        W19232   2.503   8.485   1.834 -0.2390  0.3959 -0.0499
 3049W        W19233  17.383   3.283   3.669 -0.1668 -0.1452 -0.0457
 3050W        W19234   0.035   6.089  11.616 -0.0544  0.2568  0.0952
 3051W        W19235   2.543   5.762  16.110 -0.1046  0.0237 -0.0651
 3052W        W19236   9.500   6.119   0.492 -0.2280 -0.1677 -0.0765
 3053W        W19237   6.509   5.858  14.446 -0.2482 -0.2866  0.0120
 3054W        W19238   7.081   3.191  16.549 -0.4184  0.0743 -0.0147
 3055W        W19239  15.124  12.671  12.282 -0.3729  0.4696  0.0278
 3056W        W19240   1.017  12.872   4.608  0.2850 -0.1605 -0.1813
 3057W        W19241  15.980   5.222   3.970  0.0909 -0.4849 -0.3456
 3058W        W19242   4.667  10.823   3.565  0.1543  0.0283  0.0668
 3059W        W19243  15.004   7.838   3.607  0.1246  0.2112 -0.1266
 3060W        W19244   9.576  12.483   4.257 -0.0518 -0.1286 -0.0921
 3061W        W19245   0.785  12.519  14.525  0.1263  0.2520 -0.1466
 3062W        W19246   6.868   5.947   2.294  0.3263  0.1719  0.1523
 3063W        W19247  11.502   7.351  11.627  0.0501 -0.2358 -0.0290
 3064W        W19248  17.673  10.656  13.963 -0.2684  0.0595 -0.1535
 3065W        W19249   8.350  12.719   1.322  0.0011  0.1848  0.0271
 3066W        W19250  16.945  13.344   1.525 -0.1287  0.0121  0.1983
 3067W        W19251   3.900  12.816  16.482 -0.1324 -0.1340  0.1947
 3068W        W19252   5.543  16.878   5.272 -0.0270  0.2063  0.0467
 3069W        W19253  14.244  10.933   2.782  0.1202  0.0456 -0.3275
 3070W        W19254   8.218  12.507  13.152 -0.0393 -0.2068 -0.0329
 3071W        W19255   5.792  12.883   2.376  0.0329  0.3494 -0.0685
 3072W        W19256   2.064  16.549   2.375  0.1232 -0.1462 -0.0220
 3073W        W19257   1.833   5.337  12.667  0.2002  0.2406  0.0476
 3074W        W19258   6.649  17.005  14.117 -0.0401  0.2303 -0.3010
 3075W        W19259   3.694  11.320  11.870  0.3119  0.0602 -0.1384
 3076W        W19260  17.638  10.822   4.113  0.1284 -0.1563  0.1122
 3077W        W19261  14.565  17.674  14.543  0.1671 -0.4124  0.1770
 3078W        W19262   6.285  14.190  14.827  0.0493 -0.1141 -0.0016
 3079W        W19263   6.496   3.469  13.762  0.1736 -0.0393 -0.0160
 3080W        W19264  10.317  10.346  16.576  0.1493  0.0966  0.2241
 3081W        W19265  11.165   6.863  14.752 -0.3645  0.0599 -0.3320
 3082W        W19266   3.239  10.251  15.576  0.1956  0.0450 -0.0727
 3083W        W19267  16.676  12.390   5.735 -0.1799  0.0726  0.2194
 3084W        W19268  17.103  10.723  14.100  0.1187 -0.1319 -0.0337
 3085W        W19269  17.929   4.082  12.547 -0.0441  0.0989 -0.2507
 3086W        W19270  13.367   6.941   4.654 -0.0831  0.1683 -0.2245
 3087W        W19271   9.746  13.698  16.666  0.0546  0.0949  0.1792
 3088W        W19272  14.618  13.566  12.390 -0.0543  0.2626 -0.2512
 3089W        W19273   4.515  11.742  13.864  0.2333 -0.0953 -0.0134
 3090W        W19274   0.538  10.439   2.292  0.2629  0.3121 -0.0411
 3091W        W19275  10.441   1.400   2.111  0.1975 -0.0215 -0.1462
 3092W        W19276   8.239   1.172  14.103  0.3267 -0.0549 -0.1835
 3093W        W19277  11.451   0.730   3.163  0.0119 -0.1225  0.1101
 3094W        W19278  15.505  11.519  14.544  0.4306 -0.1706 -0.1077
 3095W        W19279   9.032   6.999  15.777  0.1620 -0.3569  0.0383
 3096W        W19280   2.019  12.888   1.409  0.1288  0.2472 -0.0029
 3097W        W19281  17.707  13.715   1.714  0.1367  0.2697  0.4042
 3098W        W19282  14.434  15.420   3.784 -0.3568 -0.1464  0.2634
 3099W        W19283   4.267  16.112  11.735 -0.1313  0.1156  0.3034
 3100W        W19284   0.859   7.501  11.955 -0.1689 -0.1037  0.1680
 3101W        W19285  13.502  17.565   1.077 -0.0641 -0.2994  0.1005
 3102W        W19286  12.092   2.753  16.192  0.1040 -0.1352  0.2758
 3103W        W19287   2.213   1.235  15.109  0.0688 -0.1734  0.1298
 3104W        W19288   6.542  17.037   1.836  0.1337 -0.1356 -0.0849
 3105W        W19289  13.112  14.262  14.839 -0.0852  0.0460  0.0077
 3106W        W19290   9.478   0.553   2.474  0.1140 -0.0077  0.0121
 3107W        W19291   3.737  16.380   3.029  0.0140 -0.2005 -0.3246
 3108W        W19292   4.793   4.276   0.874 -0.1099 -0.0097  0.0909
 3109W        W19293  12.457  13.212  11.981  0.1703  0.1786  0.2345
 3110W        W19294  12.406   9.152   3.306  0.4235 -0.1466  0.2250
 3111W        W19295  17.365   0.285   0.687 -0.3554  0.0242  0.2036
 3112W        W19296  13.217  14.049  13.863 -0.1512 -0.0082  0.0881
 3113W        W19297  14.838  16.979   1.746  0.2389  0.1612  0.2175
 3114W        W19298  11.508   0.694  12.873 -0.0049 -0.0466 -0.0923
 3115W        W19299  17.917   2.796  13.468  0.0629  0.0700 -0.2219
 3116W        W19300  15.895   0.725   4.737  0.1057  0.2706  0.3164
 3117W        W19301  16.595   3.357   0.477  0.0072  0.0260  0.1439
 3118W        W19302  13.570   9.638   2.137  0.0571 -0.0417  0.1489
 3119W        W19303   9.277   5.048  15.617  0.0171  0.0384 -0.0637
 3120W        W19304  12.897  17.333   4.516  0.2733 -0.0400  0.2087
 3121W        W19305  14.673   9.994  11.377 -0.1393 -0.0772 -0.0959
 3122W        W19306   0.949   5.078   4.107  0.0582 -0.0068 -0.0171
 3123W        W19307  15.984   4.976  15.534 -0.0764  0.0610  0.0086
 3124W        W19308  12.436   0.243   4.529 -0.2416  0.1602 -0.3145
 3125W        W19309   4.040   3.428   0.113 -0.2051 -0.2833  0.1514
 3126W        W19310  11.687  16.562   0.140  0.1038  0.1857 -0.2690
 3127W        W19311   9.959  12.904  15.207  0.2505 -0.1725 -0.2333
 3128W        W19312  15.896   0.618  12.786  0.0445  0.3879 -0.0043
 3129W        W19313   5.405  16.606   4.859 -0.0708  0.1955 -0.0749
 3130W        W19314   0.999   7.808   1.548 -0.0473  0.2333  0.1501
 3131W        W19315  13.681   2.245  12.263  0.0203  0.2122  0.1143
 3132W        W19316   7.165   3.187   4.251  0.3057  0.2928 -0.0690
 3133W        W19317   2.015   9.356  15.172  0.0992  0.1406  0.0978
 3134W        W19318   0.130  12.363  11.489  0.1459  0.0460 -0.1831
 3135W        W19319  15.410   5.004  14.860 -0.3479 -0.0776  0.0863
 3136W        W19320   3.891   1.299  14.506  0.0069 -0.0108  0.0644
 3137W        W19321  11.919  15.819   3.823  0.1906 -0.1233 -0.2007
 3138W        W19322  12.701   5.920  11.178 -0.3504 -0.3519 -0.0580
 3139W        W19323   5.520  14.118  15.124 -0.0154  0.1835  0.1954
 3140W        W19324   1.048  15.869   5.377 -0.1696  0.2655  0.3016
 3141W        W19325   9.571  17.495   2.500  0.2492 -0.1393  0.0423
 3142W        W19326  16.494  14.224  11.084  0.0920  0.3751  0.1681
 3143W        W19327   9.107   6.902  12.588 -0.1229  0.0679  0.0785
 3144W        W19328   5.785   5.811  14.444 -0.0465  0.1635  0.0981
 3145W        W19329   5.308  11.170  15.421 -0.0736 -0.3366 -0.2961
 3146W        W19330  12.882  15.522  12.327  0.1904  0.0019 -0.0538
 3147W        W19331   7.718  15.647   1.533 -0.1772 -0.1563 -0.0200
 3148W        W19332  10.836  17.398  12.451  0.1332  0.2371 -0.1462
 3149W        W19333   8.765  15.656  13.421 -0.0996 -0.0348 -0.0328
 3150W        W19334   3.060  16.576   3.970 -0.0514  0.1035  0.1742
 3151W        W19335   7.929  11.998  14.818  0.0058  0.3247 -0.1159
 3152W        W19336   9.819   7.609   4.508 -0.1158  0.1696 -0.3086
 3153W        W19337   2.473   4.824  13.154  0.1474  0.0317  0.2626
 3154W        W19338   7.590   5.953  15.961  0.1690  0.0199  0.2108
 3155W        W19339   1.262  13.188  15.501  0.0601  0.0544  0.1340
 3156W        W19340   9.821  13.399  14.544  0.1356 -0.0564  0.0997
 3157W        W19341   9.703   1.606   3.758  0.2300  0.1775 -0.1337
 3158W        W19342  13.756  14.834  13.410  0.0989  0.0465  0.6193
 3159W        W19343  13.610  15.152  11.300 -0.0830 -0.1218  0.1582
 3160W        W19344   1.903   0.053   4.548  0.1581 -0.0804 -0.1707
 3161W        W19345   7.536  15.137  15.220 -0.1231  0.0102 -0.2403
 3162W        W19346   8.680   4.429  16.020 -0.0021 -0.1692  0.0340
 3163W        W19347   0.662   4.875  12.240 -0.1216  0.3796  0.3692
 3164W        W19348  12.431  16.558   0.745 -0.1110 -0.2242  0.0939
 3165W        W19349   0.380   5.803  14.690  0.2815 -0.0467 -0.2165
 3166W        W19350   9.465  16.330   5.434  0.1279 -0.0463 -0.1469
 3167W        W19351   6.627   6.615   0.468  0.2026 -0.5134 -0.2688
 3168W        W19352  10.158  14.972  12.871 -0.1352 -0.0648 -0.0107
 3169W        W19353  11.699  10.067  11.783 -0.4459 -0.0155  0.1922
 3170W        W19354   9.334   0.862   1.533  0.0280  0.2501 -0.2203
 3171W        W19355   9.821  15.200   2.995 -0.1745  0.1870  0.2711
 3172W        W19356  10.406   6.135   0.524  0.2582 -0.1474  0.2240
 3173W        W19357  15.673  17.238   5.286 -0.0376  0.0966  0.1338
 3174W        W19358  13.395  16.064  12.870 -0.0225  0.0650  0.2670
 3175W        W19359   7.617  16.204  16.462  0.0926 -0.0540  0.0012
 3176W        W19360  12.577  16.510  11.468  0.1053  0.0069 -0.2588
 3177W        W19361  16.129   3.327  12.363 -0.0526 -0.4033 -0.1009
 3178W        W19362   0.163   7.376   1.953  0.1432 -0.0437 -0.1368
 3179W        W19363   7.910   2.224  16.194 -0.2250  0.0545  0.1604
 3180W        W19364   2.523  13.553   3.500 -0.1474  0.0384  0.0959
 3181W        W19365   1.535  12.136   0.378  0.1195 -0.2452  0.2039
 3182W        W19366   5.361   9.938   4.425 -0.1003 -0.1187  0.0273
 3183W        W19367   9.599   7.980   3.702 -0.0033 -0.1803  0.0776
 3184W        W19368  17.396   0.928   2.729 -0.1720 -0.0424 -0.2300
 3185W        W19369   4.135   4.920  16.485 -0.1202 -0.0736 -0.0479
 3186W        W19370   7.997   9.447  12.840 -0.0367 -0.2157 -0.1791
 3187W        W19371  10.051   8.988  12.102  0.1023 -0.1945  0.3994
 3188W        W19372  15.446   7.358  14.523 -0.0146 -0.1778 -0.0523
 3189W        W19373   7.806   3.840  11.358 -0.1583  0.1511 -0.1693
 3190W        W19374   2.331   6.825  14.261 -0.1715  0.1462 -0.0102
 3191W        W19375  16.429  13.353   0.813 -0.0504  0.0992  0.3410
 3192W        W19376   9.106   3.725   2.075 -0.1835  0.3524  0.2129
 3193W        W19377   7.965   7.254  13.646  0.0672  0.1337 -0.0712
 3194W        W19378  17.079  17.757  15.135  0.2682  0.1163 -0.3302
 3195W        W19379   4.148   7.752  14.402  0.0230 -0.0686 -0.0473
 3196W        W19380   9.780   6.169   4.666  0.1244  0.0246  0.3409
 3197W        W19381   2.485   5.460   0.194 -0.2572  0.2632  0.0282
 3198W        W19382   5.513  14.723   3.709 -0.0033  0.2849  0.1700
 3199W        W19383   6.635   5.990  16.427 -0.2512  0.2775 -0.1094
 3200W        W19384   1.700   0.184   0.316  0.0953  0.1656 -0.0213
 3201W        W19385   7.200   5.992  14.029 -0.0885  0.1690 -0.2878
 3202W        W19386   5.592  16.270  13.237  0.4240 -0.2190  0.0219
 3203W        W19387   2.450   2.406   0.607 -0.0179  0.3017  0.1274
 3204W        W19388  14.334   9.564  12.894 -0.0805  0.0979  0.0135
 3205W        W19389   8.610  11.919  16.082 -0.0883 -0.0364 -0.3959
 3206W        W19390  12.521   2.830  12.779  0.0336 -0.1678 -0.0635
 3207W        W19391  14.184  14.222   4.075  0.1240 -0.3345  0.0899
 3208W        W19392  16.750  13.642   0.471 -0.0028 -0.2595  0.0041
 3209W        W19393   4.980  11.895   1.040 -0.2499 -0.0027 -0.3172
 3210W        W19394  13.685  15.571  12.917  0.0269 -0.1817 -0.1220
 3211W        W19395  15.514   7.178  14.028 -0.1597  0.0624 -0.1372
 3212W        W19396  16.328  15.860   4.309 -0.0705  0.2116  0.1701
 3213W        W19397  13.041   7.619  13.109 -0.1529 -0.3684  0.3852
 3214W        W19398   2.819   7.851   3.322 -0.1897 -0.0172 -0.0360
 3215W        W19399  13.468   8.667  15.398  0.2765 -0.1071  0.0702
 3216W        W19400   7.314  12.539  14.636  0.2215 -0.0752 -0.0499
 3217W        W19401   3.281  16.677   4.932  0.0038  0.4970 -0.0945
 3218W        W19402  10.047  15.591  12.920 -0.2167 -0.0678  0.3973
 3219W        W19403  13.517  15.245  15.617  0.3732 -0.2411  0.3407
 3220W        W19404   1.039  16.972   5.209  0.2744 -0.0124  0.2042
 3221W        W19405  16.628   5.000  16.275 -0.0977  0.1419 -0.0111
 3222W        W19406  12.736   5.670   4.920  0.0917 -0.3372 -0.2298
 3223W        W19407  14.233  11.955   5.164 -0.2093  0.2301  0.2175
 3224W        W19408   6.772   9.627   2.331  0.1159 -0.0885  0.1417
 3225W        W19409  13.302  13.273   3.661 -0.1600 -0.1625  0.1223
 3226W        W19410   0.283   1.680   2.496 -0.1571 -0.0104 -0.2125
 3227W        W19411  12.824   8.003   5.439 -0.0178  0.1950 -0.0286
 3228W        W19412   5.276  15.578  12.656 -0.1201  0.0672 -0.4810
 3229W        W19413  11.353   8.401  13.734  0.0493  0.0452  0.2644
 3230W        W19414   3.478  13.784  15.524  0.0706 -0.0741 -0.1425
 3231W        W19415  10.095   5.949  12.700  0.0521 -0.0543 -0.0108
 3232W        W19416  17.096  13.373  15.291 -0.5347  0.3083  0.1436
 3233W        W19417   4.370  16.995  12.273 -0.2851 -0.2805 -0.1296
 3234W        W19418  12.127   4.260  15.461  0.1182 -0.0749  0.0567
 3235W        W19419   0.382  11.460   1.265 -0.0638 -0.0582  0.0024
 3236W        W19420   6.740  17.365   1.342 -0.1485 -0.0770 -0.0724
 3237W        W19421  15.580   0.140  15.879  0.2184  0.0499 -0.1058
 3238W        W19422  17.445  17.352  15.513 -0.1723 -0.0822  0.0571
 3239W        W19423  12.042  10.214  11.385  0.2297 -0.1332  0.1678
 3240W        W19424  17.012  15.292  16.012  0.0477 -0.1299  0.1019
 3241W        W19425  17.184   4.422   3.428  0.1668  0.0801  0.2159
 3242W        W19426   7.706  11.512   5.365 -0.1924  0.2673  0.3256
 3243W        W19427  17.179   9.071   2.330  0.0990  0.1288 -0.2567
 3244W        W19428  14.173   3.500  14.098 -0.0719 -0.2787  0.0438
 3245W        W19429  11.652  11.893  15.488  0.0291 -0.1879 -0.1966
 3246W        W19430   4.673   8.565  12.488 -0.0014 -0.1444 -0.1582
 3247W        W19431   1.777   8.717  13.985 -0.2411 -0.4245 -0.2397
 3248W        W19432   8.326   9.083   5.304 -0.0571 -0.3507 -0.3123
 3249W        W19433  14.019   4.716  15.961 -0.3444 -0.0863 -0.4647
 3250W        W19434   0.418   0.270  15.538  0.2753 -0.0434 -0.0854
 3251W        W19435   9.762   5.653   3.347  0.5073  0.1000 -0.3409
 3252W        W19436   6.237   4.432   4.865  0.1049 -0.0793 -0.0911
 3253W        W19437  15.692  13.004   1.741  0.3286  0.0982  0.0697
 3254W        W19438  13.598  15.503  15.128  0.0139  0.0430 -0.2866
 3255W        W19439   1.177   5.958   0.940  0.2321  0.2237 -0.0771
 3256W        W19440   2.759   3.708   2.994  0.0661 -0.1445  0.0701
 3257W        W19441  12.973   0.365   1.530  0.0455 -0.1985 -0.0830
 3258W        W19442   0.859  17.683   1.663 -0.1446 -0.0916 -0.2700
 3259W        W19443   7.372  15.818  14.544 -0.0448 -0.0987  0.1327
 3260W        W19444   3.066   5.468  14.289  0.3647 -0.0060 -0.0301
 3261W        W19445  11.442   6.067  13.429  0.0269  0.0868 -0.4119
 3262W        W19446  13.566   8.145   1.107 -0.3481  0.1791 -0.0945
 3263W        W19447   1.491   3.198  14.413  0.0269  0.2167 -0.3260
 3264W        W19448   1.912  11.074  11.891 -0.0656 -0.0486 -0.0732
 3265W        W19449   5.949   0.107  12.264  0.2152 -0.0195 -0.1462
 3266W        W19450  13.105   9.801   3.630  0.0830 -0.2570 -0.1181
 3267W        W19451   5.377   9.794  16.354  0.2274 -0.4669 -0.0630
 3268W        W19452  12.627   5.390   1.258  0.0963  0.0072  0.1476
 3269W        W19453   5.867  14.306   0.170 -0.4097  0.1100 -0.0560
 3270W        W19454   8.999   9.502   4.105  0.0425 -0.0348 -0.3245
 3271W        W19455   7.300  12.432   3.463 -0.1814  0.2746 -0.0664
 3272W        W19456   5.092   7.761   1.856  0.3527  0.2970 -0.0776
 3273W        W19457   3.223   7.634  15.090 -0.0122 -0.3148  0.0050
 3274W        W19458  14.472  16.633  14.700 -0.1143 -0.0927 -0.2053
 3275W        W19459  16.753  12.921   3.176 -0.1121  0.1186  0.0449
 3276W        W19460   5.348   3.678  16.344  0.0429 -0.1401  0.0536
 3277W        W19461  11.113   1.669  16.060  0.0458  0.1208 -0.0289
 3278W        W19462  11.992  11.666   4.545 -0.1593 -0.0282  0.2500
 3279W        W19463   2.472  17.092  13.318 -0.0743 -0.1228 -0.3655
 3280W        W19464  13.908   7.928   0.028  0.1872  0.2213 -0.0743
 3281W        W19465  11.914  14.328  16.297  0.4501 -0.0416  0.1012
 3282W        W19466   2.502  11.821  12.411 -0.0609  0.2693  0.0804
 3283W        W19467   3.183   9.510  13.459  0.6305 -0.3745 -0.2190
 3284W        W19468   3.176   6.316  15.556  0.1691 -0.0227  0.2285
 3285W        W19469  10.550  11.885   5.899  0.0977 -0.4642 -0.2258
 3286W        W19470  17.016   6.248   3.378 -0.0512 -0.2070  0.0460
 3287W        W19471  16.274  17.268  11.438 -0.0024  0.2033  0.0323
 3288W        W19472   4.542   5.559  16.329 -0.4421  0.0741 -0.2088
 3289W        W19473  14.392  11.815  14.472  0.0874  0.4134 -0.0189
 3290W        W19474   3.230  12.013   2.504 -0.2393 -0.2307 -0.0627
 3291W        W19475   9.607  15.140  13.000 -0.1381  0.0536  0.1741
 3292W        W19476  10.453  10.589   0.850  0.1354  0.0771 -0.1779
 3293W        W19477  12.299   8.817  15.797  0.2920  0.0887 -0.3907
 3294W        W19478  17.436  10.832  11.633  0.1721  0.3377 -0.2144
 3295W        W19479  16.715   3.362  15.974 -0.1394  0.3341  0.1203
 3296W        W19480  10.420  11.811  16.154  0.6171 -0.0950  0.1149
 3297W        W19481   3.100   2.990   5.123  0.0550 -0.0912  0.4673
 3298W        W19482   1.351  16.263   4.209 -0.0913  0.2948  0.0572
 3299W        W19483   8.225  15.783  13.926 -0.2346  0.1498  0.0776
 3300W        W19484  16.376  12.497   1.596 -0.0046 -0.0433  0.1756
 3301W        W19485  17.774  11.244  13.634  0.0023 -0.1068  0.2325
 3302W        W19486  12.699   5.512  14.449  0.1902 -0.0468 -0.0246
 3303W        W19487  13.930  11.740  15.596  0.1800  0.0631  0.0932
 3304W        W19488  14.539   9.985   1.903  0.3271 -0.3766  0.1837
 3305W        W19489   5.200  12.452  14.912  0.2398  0.1708  0.0772
 3306W        W19490   6.389  13.639   2.577 -0.3610  0.0904  0.2837
 3307W        W19491   9.856  10.805  11.761 -0.1699 -0.2094 -0.0550
 3308W        W19492   6.185  13.716   3.888 -0.0488 -0.0043  0.1611
 3309W        W19493   8.448  11.556   4.314 -0.1229 -0.2160 -0.1665
 3310W        W19494   9.328   5.203  16.084  0.1755  0.1475 -0.0376
 3311W        W19495   4.015   1.576   1.869 -0.1775 -0.1310  0.1176
 3312W        W19496  15.344   1.366  12.482  0.2840 -0.2710 -0.2102
 3313W        W19497  11.404   2.426   3.210  0.1248 -0.0401  0.0109
 3314W        W19498   9.134  17.807   2.682  0.1258  0.1215 -0.0308
 3315W        W19499  12.538   0.496   5.007 -0.4402  0.1334 -0.0691
 3316W        W19500  11.678   9.443   3.174 -0.1560 -0.1780 -0.0509
 3317W        W19501  15.811   0.126   5.702 -0.0698 -0.0153  0.0496
 3318W        W19502   5.533  17.086  16.293 -0.0743 -0.1573  0.1723
 3319W        W19503   7.991   4.579   4.313  0.0963  0.0361 -0.2791
 3320W        W19504  11.775   0.742   2.329  0.0211 -0.0902  0.0414
 3321W        W19505  16.556  16.790  15.335 -0.1561  0.1985  0.2456
 3322W        W19506  16.594   1.335  16.302  0.1286  0.0889 -0.2308
 3323W        W19507   5.358   1.042   3.345 -0.2014  0.1011 -0.1923
 3324W        W19508  12.580   2.440  11.697  0.2019  0.0871 -0.1235
 3325W        W19509  17.095  15.858  15.927  0.1402 -0.2076  0.2311
 3326W        W19510   9.923   4.180  12.028  0.2201 -0.1767  0.1445
 3327W        W19511  13.744   9.885  10.712  0.0287  0.2433  0.1627
 3328W        W19512   6.952   6.312   0.117 -0.0353  0.1633  0.0694
 3329W        W19513  17.460   4.893   0.938  0.0149  0.1687  0.2032
 3330W        W19514   4.628  15.183   1.282  0.0877 -0.1349 -0.3793
 3331W        W19515  13.656   2.582   2.657 -0.0417  0.1578 -0.2670
 3332W        W19516  16.149   0.131  11.381  0.1137  0.2651  0.2866
 3333W        W19517  17.822   1.170  15.905  0.0210 -0.1096 -0.1822
 3334W        W19518  11.707  10.198   6.403 -0.0801  0.1453  0.1205
 3335W        W19519  16.504   0.696   5.595 -0.1147 -0.0468 -0.4399
 3336W        W19520  17.815  16.590   4.873 -0.0491 -0.1792 -0.0800
 3337W        W19521  16.170  16.525  13.065  0.2476  0.1605 -0.3145
 3338W        W19522   7.204   4.212   4.649 -0.0132  0.1081  0.2110
 3339W        W19523  12.693   8.045  15.836 -0.3550  0.1206  0.4630
 3340W        W19524   8.547   6.219   4.962 -0.0612  0.1868  0.4192
 3341W        W19525   8.951  17.038   2.314 -0.2404  0.1193  0.0205
 3342W        W19526  15.221   9.099   4.747 -0.0699  0.2949  0.1437
 3343W        W19527   6.211   6.097   0.999 -0.0835 -0.0799 -0.0901
 3344W        W19528   2.687   4.490  12.383 -0.2875  0.0666  0.0261
 3345W        W19529   7.645  10.669   3.247 -0.0801 -0.1263  0.2631
 3346W        W19530   1.563   3.953   1.931 -0.2166 -0.3542  0.0080
 3347W        W19531   6.620  10.375  12.285  0.0037  0.0308  0.1025
 3348W        W19532   9.041   0.209  11.091  0.1465  0.0666  0.1229
 3349W        W19533   4.905   4.098   3.715  0.0037 -0.1840 -0.0453
 3350W        W19534   0.600   4.433  11.440 -0.1183  0.0818  0.4478
 3351W        W19535  17.501  13.589  11.760  0.1024 -0.1141  0.1143
 3352W        W19536  11.114   2.872   3.887  0.1296  0.2850  0.1425
 3353W        W19537  14.326  16.783  13.593 -0.0318  0.0715 -0.2347
 3354W        W19538   0.995   9.984  16.273 -0.1674  0.0183 -0.2075
 3355W        W19539   7.057  14.296   5.551 -0.2528 -0.1197 -0.0211
 3356W        W19540  10.905   7.134   1.106 -0.1966 -0.0709  0.1370
 3357W        W19541  14.187  12.563   1.927 -0.2622 -0.0656 -0.0823
 3358W        W19542   1.963   0.131  16.533 -0.3127 -0.1385 -0.3200
 3359W        W19543   9.133   7.057  16.282  0.1967  0.2715  0.1060
 3360W        W19544   9.442   6.755   4.981  0.1708  0.0594  0.3672
 3361W        W19545  14.774  15.342   1.927  0.1697  0.1503  0.1213
 3362W        W19546  12.212  11.171  14.392 -0.1949  0.0291 -0.2207
 3363W        W19547   2.748  10.747  12.640 -0.0099  0.0853 -0.2933
 3364W        W19548   0.581  10.519   1.702 -0.0091 -0.3539  0.0346
 3365W        W19549   7.792   9.900   1.221 -0.0745 -0.2633  0.1221
 3366W        W19550   5.301   1.714  10.687  0.0485 -0.1029 -0.0881
 3367W        W19551   7.316  13.605   3.067  0.1079 -0.1243 -0.2588
 3368W        W19552   6.064   6.820   4.315 -0.3727 -0.3796  0.0174
 3369W        W19553   0.244  15.090   1.000  0.0861 -0.1642  0.1310
 3370W        W19554   1.364   0.946   2.699 -0.1632 -0.0721  0.2886
 3371W        W19555   9.930   5.783  11.924 -0.0807  0.0422  0.2402
 3372W        W19556  12.282  11.433   3.385  0.4624  0.3655  0.2384
 3373W        W19557  16.644   3.526  13.719  0.0808 -0.0150 -0.0335
 3374W        W19558  11.978   1.068  11.501 -0.6189  0.0561  0.0506
 3375W        W19559  11.970  15.882   4.319  0.0016 -0.2142 -0.3485
 3376W        W19560  10.552   7.819  13.790  0.0237 -0.0401 -0.2252
 3377W        W19561  10.825   9.090  14.374 -0.0752  0.2002  0.1404
 3378W        W19562   3.410  10.876  14.239 -0.1169  0.3151  0.1741
 3379W        W19563   7.501   1.723  15.424 -0.2414  0.2117 -0.0388
 3380W        W19564   1.396  11.987   2.565 -0.1559  0.1351 -0.1459
 3381W        W19565  12.918  17.901   2.401 -0.0450 -0.0192  0.0746
 3382W        W19566   8.402  15.356   5.019  0.2547  0.1290 -0.1399
 3383W        W19567   0.307   8.789  15.589 -0.2155 -0.0383 -0.2326
 3384W        W19568   3.608  15.020   2.999  0.0015 -0.2043 -0.3528
 3385W        W19569   0.549  11.891   1.557 -0.1585  0.0186  0.1508
 3386W        W19570   3.444  13.280  15.274 -0.1742  0.0028  0.3909
 3387W        W19571   2.755   4.738  13.664 -0.0228  0.2989 -0.0190
 3388W        W19572   3.754   5.132  15.577  0.4311 -0.2132  0.1773
 3389W        W19573  17.762   2.083  14.091 -0.1140  0.1980 -0.2032
 3390W        W19574  12.712  10.169  12.096  0.0105 -0.1141 -0.1390
 3391W        W19575   3.866   0.005   0.647 -0.2362 -0.0041  0.1934
 3392W        W19576  10.073   0.474  15.412  0.1043  0.0865 -0.1309
 3393W        W19577   3.117   9.853  13.914 -0.0902 -0.3423 -0.2216
 3394W        W19578   4.645   1.848  11.811 -0.1099 -0.1175 -0.4025
 3395W        W19579  14.358  15.583   0.868 -0.0422  0.1798 -0.1767
 3396W        W19580   8.256   3.572  12.712  0.4072  0.0958  0.3132
 3397W        W19581   9.845  13.035  13.288 -0.2842 -0.2177  0.0991
 3398W        W19582  16.605   0.850   6.522  0.0967  0.2106  0.3273
 3399W        W19583   6.918   2.681   0.272  0.0505  0.2687  0.0323
 3400W        W19584   1.043   0.595   2.488 -0.1387  0.0794  0.0512
 3401W        W19585  11.925   6.209  13.605 -0.0196  0.0823 -0.0415
 3402W        W19586  14.318   5.127   2.244 -0.2338 -0.1585  0.0722
 3403W        W19587   6.293  17.684  15.826  0.2789  0.0455 -0.0704
 3404W        W19588   0.490   1.280   6.666 -0.1299  0.1907 -0.1826
 3405W        W19589   4.316   5.081  15.693  0.1143  0.4447 -0.1449
 3406W        W19590  13.504   2.982   5.752  0.2196  0.1868  0.0041
 3407W        W19591   4.270   9.019   4.074  0.0526 -0.1137 -0.2380
 3408W        W19592   3.936  10.560   3.523 -0.0281 -0.0370  0.2927
 3409W        W19593  16.260  13.629  15.797 -0.1688 -0.2037  0.2286
 3410W        W19594   1.429   0.196   4.857  0.1080 -0.0138  0.0833
 3411W        W19595  13.556  17.325   3.737  0.1786 -0.1838  0.1176
 3412W        W19596   8.636   1.123  12.001  0.1357  0.0409 -0.1168
 3413W        W19597  11.517   5.777   2.004 -0.1500  0.0795 -0.1029
 3414W        W19598  17.386   4.559   1.836  0.1246  0.2072 -0.0591
 3415W        W19599   3.345  10.129   1.543  0.0744  0.1948 -0.5564
 3416W        W19600  13.973   6.402   4.951 -0.2070 -0.2362 -0.0853
 3417W        W19601  12.382   2.650   5.225 -0.0828  0.1415 -0.0984
 3418W        W19602   3.292  13.903  12.078  0.1183  0.4387  0.0418
 3419W        W19603  11.724   6.302   4.238 -0.2593 -0.1903 -0.1159
 3420W        W19604   0.655  15.869   5.779  0.2770 -0.2200 -0.3230
 3421W        W19605  10.035  13.626  14.073  0.1383 -0.2144  0.1933
 3422W        W19606  13.947   3.931   3.198  0.1518 -0.2160  0.1985
 3423W        W19607  10.840  12.945  16.086  0.1218 -0.1614 -0.1425
 3424W        W19608   5.748  10.210   6.325 -0.1691 -0.2216 -0.1634
 3425W        W19609   6.952   9.931  13.066  0.2692 -0.3647  0.1409
 3426W        W19610   0.440  15.639  15.670  0.0723 -0.0859 -0.2048
 3427W        W19611   2.824  14.151  15.481  0.1520 -0.2505  0.1302
 3428W        W19612  14.205   7.422  14.259 -0.0490  0.2712 -0.0932
 3429W        W19613   2.585   4.402  15.969  0.1233  0.3085  0.0508
 3430W        W19614   3.677  15.783   3.985 -0.0255  0.2354  0.2081
 3431W        W19615   6.028   2.932  13.128  0.1029  0.0463  0.0959
 3432W        W19616  15.501   1.665  14.952 -0.3443 -0.0514 -0.0737
 3433W        W19617  16.558  12.529   4.746 -0.0474  0.0514  0.0293
 3434W        W19618   2.843   6.541  13.466  0.0038  0.2396 -0.1340
 3435W        W19619  15.481  13.601   3.389  0.0663  0.1483  0.1699
 3436W        W19620  10.414   7.380  12.945  0.1599 -0.0609  0.2714
 3437W        W19621  17.256   5.166  14.212  0.0890  0.1650  0.2050
 3438W        W19622   4.817  17.215  13.062  0.0991 -0.0693  0.1754
 3439W        W19623   6.044  17.567  11.667 -0.3402  0.0278  0.0085
 3440W        W19624  16.402   8.153  11.708 -0.0210  0.1518  0.2369
 3441W        W19625   6.357   3.327  13.313  0.1179  0.3381  0.2577
 3442W        W19626   5.875   9.039  15.795  0.1805 -0.2816 -0.1429
 3443W        W19627   1.402   0.988  12.920 -0.0394  0.2191  0.0415
 3444W        W19628  10.416  15.340   1.269  0.1376  0.2678 -0.3549
 3445W        W19629  15.148   8.041   1.182  0.1120 -0.1446  0.1749
 3446W        W19630  15.590  12.292  13.501 -0.2347  0.1339 -0.2361
 3447W        W19631  16.196   3.263  15.999  0.0064 -0.0633  0.0165
 3448W        W19632   5.769  17.121   1.241 -0.0333 -0.6178 -0.4105
 3449W        W19633  14.053   2.214  14.426 -0.2892  0.0760 -0.0315
 3450W        W19634  16.232   5.616   3.029 -0.0608 -0.1917  0.0958
 3451W        W19635   2.085  15.808  15.432 -0.0626  0.0005 -0.1544
 3452W        W19636   7.791   1.969  11.634 -0.5397 -0.0599 -0.0172
 3453W        W19637  10.191  17.465  16.259  0.0431 -0.1986  0.1495
 3454W        W19638   1.257   9.000   5.582  0.0749  0.2276  0.0465
 3455W        W19639   8.371  15.194   0.691  0.0621  0.3826 -0.4530
 3456W        W19640   3.598   8.563  13.347 -0.0244 -0.1284 -0.1714
 3457W        W19641  15.690  17.831   1.773  0.2233  0.1899 -0.2827
 3458W        W19642   4.050   3.089  15.447 -0.1711 -0.2663 -0.2885
 3459W        W19643   5.004  15.059   2.067 -0.2474 -0.1558 -0.2005
 3460W        W19644   9.574   7.888   3.116  0.1538  0.2245 -0.0954
 3461W        W19645  10.386   2.085   0.903 -0.3161 -0.0073 -0.0677
 3462W        W19646  12.669   8.873  13.926 -0.0222  0.1428 -0.0003
 3463W        W19647   7.970  16.608   3.510 -0.2787  0.1845 -0.0255
 3464W        W19648   7.716  15.183   4.533 -0.2579 -0.0282  0.1765
 3465W        W19649   0.024   9.436   5.483  0.1280  0.1922  0.0087
 3466W        W19650   0.413  16.145   2.977  0.0254  0.0406  0.1318
 3467W        W19651   8.569  13.578   1.003 -0.1294 -0.2939 -0.3403
 3468W        W19652   1.090   2.866  15.330  0.0509 -0.0295  0.0388
 3469W        W19653  11.122   6.049   4.302 -0.0897 -0.3147  0.0887
 3470W        W19654   7.921  14.465   1.866  0.0187  0.0210 -0.0336
 3471W        W19655  17.888   4.545   0.992 -0.0347  0.0560  0.0303
 3472W        W19656   1.868  13.383   5.711  0.1129  0.2516  0.1046
 3473W        W19657   4.273   8.968   5.368 -0.1150 -0.0264  0.0285
 3474W        W19658   6.184   1.572  14.572 -0.2629 -0.1770  0.0364
 3475W        W19659  11.791  13.108   3.395 -0.1837  0.0746  0.0133
 3476W        W19660   2.446   3.873  15.837 -0.0492 -0.0089 -0.0324
 3477W        W19661  15.575  12.291   5.688 -0.3702  0.0662 -0.0791
 3478W        W19662  14.866   8.918  14.422  0.0193 -0.0333  0.2064
 3479W        W19663   8.503   1.062  15.161 -0.0014  0.1640  0.1137
 3480W        W19664   6.769   3.030   4.624 -0.3243  0.0109  0.0490
 3481W        W19665  12.534  16.700   4.191  0.1162  0.3528  0.1927
 3482W        W19666   8.029  14.283  13.682 -0.2623 -0.0880  0.1463
 3483W        W19667  13.775  14.262  14.740  0.0239 -0.0501 -0.3906
 3484W        W19668  11.138  17.776  12.541 -0.1069 -0.1588  0.0578
 3485W        W19669  14.590  13.846   4.658 -0.1426  0.0964  0.1827
 3486W        W19670  10.386  11.395  14.211  0.2621  0.0258 -0.2090
 3487W        W19671  15.633   4.075  13.780 -0.2247  0.1066  0.0405
 3488W        W19672  16.608  13.128   0.407 -0.0162 -0.0681 -0.3031
 3489W        W19673  13.432   6.022  14.623  0.0198 -0.2109  0.2422
 3490W        W19674  11.365   4.915  12.084  0.1941 -0.1669 -0.3890
 3491W        W19675   8.250  10.235   2.547  0.3257 -0.0935 -0.2582
 3492W        W19676   2.101   4.698   1.593 -0.5526 -0.0953 -0.2407
 3493W        W19677  16.285   4.514   1.264 -0.0601 -0.0708 -0.0600
 3494W        W19678   5.491  17.116  11.852 -0.0104 -0.4159  0.0295
 3495W        W19679   2.458   2.787   3.878  0.2874 -0.2664  0.1013
 3496W        W19680  15.066   9.042  12.201 -0.1379  0.3124 -0.2250
 3497W        W19681   3.117   1.791  15.057 -0.1862 -0.1513  0.1179
 3498W        W19682   2.383   9.412  11.811  0.0855  0.0279  0.0283
 3499W        W19683  15.369   7.929  15.718 -0.0136 -0.2011  0.2167
 3500W        W19684   5.769   7.477   2.626 -0.0262 -0.1772  0.0042
 3501W        W19685  10.084  16.499   4.151 -0.2616  0.0441  0.0719
 3502W        W19686  12.498   1.130  13.976  0.0293  0.0381 -0.1721
 3503W        W19687   0.335   7.190  15.711  0.3317  0.0489 -0.6611
 3504W        W19688  17.284  15.278   0.936  0.0817  0.1329  0.2390
 3505W        W19689  10.108   2.851  12.916 -0.3116 -0.1821 -0.0982
 3506W        W19690  11.244   2.582  13.706 -0.3072  0.0575  0.3071
 3507W        W19691   1.963  12.458   5.506 -0.1307 -0.0424  0.1391
 3508W        W19692   7.314   7.441  16.349 -0.0408  0.2319 -0.4099
 3509W        W19693  14.597   5.310  15.913  0.0016  0.1415  0.0604
 3510W        W19694   9.942   1.348  12.743  0.2438 -0.1503  0.1576
 3511W        W19695   4.090  13.294   1.007  0.0734 -0.2905 -0.0046
 3512W        W19696  14.878  10.714  14.795 -0.2063 -0.1758 -0.0069
 3513W        W19697  11.211   3.518  11.543  0.1488 -0.0503  0.0341
 3514W        W19698  13.145  13.562   2.094  0.1200  0.1637 -0.0526
 3515W        W19699   3.716  13.538  13.866  0.4647  0.0936 -0.1438
 3516W        W19700   9.089  17.685   0.283 -0.1510 -0.2049 -0.0754
 3517W        W19701   2.040  15.295  10.789 -0.0461  0.2280  0.1067
 3518W        W19702   8.481  16.040   4.083 -0.3858  0.2200 -0.1477
 3519W        W19703   3.622   6.497   1.754 -0.1313  0.1596  0.0692
 3520W        W19704   8.976  16.352   0.192 -0.3830 -0.0183  0.0760
 3521W        W19705   3.603  17.815   5.491  0.1230 -0.2335  0.2194
 3522W        W19706   6.677   6.154   4.989  0.0675 -0.2169  0.2232
 3523W        W19707  13.835   5.295   2.509 -0.2474  0.1341 -0.1950
 3524W        W19708  17.833  15.914  14.137 -0.0998  0.0057  0.3960
 3525W        W19709   7.786   1.062  13.570  0.1657 -0.1528  0.0554
 3526W        W19710   3.128   1.205  12.276  0.0992 -0.0693  0.2837
 3527W        W19711  17.746   6.401   5.066  0.5040 -0.1667 -0.2866
 3528W        W19712   6.435  15.534  14.414 -0.1278 -0.0252  0.1524
 3529W        W19713   5.329  16.060  12.900 -0.1558  0.3635  0.2085
 3530W        W19714   4.601  15.557  14.186  0.0326  0.0272 -0.1315
 3531W        W19715   0.049   7.683   2.943  0.2705 -0.2998 -0.0442
 3532W        W19716  12.621  12.237  15.009  0.0067 -0.1169  0.1487
 3533W        W19717  10.419   4.050   1.751  0.0504 -0.1174 -0.1559
 3534W        W19718   7.187  14.460   4.624 -0.1572 -0.0724  0.3200
 3535W        W19719  16.154  17.187   0.081  0.0436  0.1859  0.4268
 3536W        W19720  17.175   5.691  16.110 -0.0563 -0.2612  0.0700
 3537W        W19721   0.782  16.190  14.162  0.1350  0.2734 -0.3854
 3538W        W19722   2.277   1.202   5.428 -0.0502 -0.2174  0.0832
 3539W        W19723  16.860   6.410  16.359 -0.2551 -0.1476  0.0970
 3540W        W19724  17.846   6.653   2.185  0.1968  0.0519  0.0201
 3541W        W19725   3.345  17.196   2.456  0.3225  0.0998  0.0662
 3542W        W19726   9.218  16.850   1.849  0.1033 -0.2849 -0.0221
 3543W        W19727  17.915  13.580  13.260 -0.0614  0.0789  0.1268
 3544W        W19728  16.334  15.713   3.436 -0.1255  0.1247 -0.0372
 3545W        W19729   5.520   9.332   5.136  0.2112  0.2568  0.0582
 3546W        W19730   0.366  14.836   5.098 -0.1364  0.1320  0.0057
 3547W        W19731   9.573   4.524   3.535  0.1793  0.0710 -0.2131
 3548W        W19732   9.041   8.773   1.224 -0.1546  0.2215 -0.0402
 3549W        W19733  13.796  12.133  14.420  0.0979  0.1164  0.1492
 3550W        W19734  13.193   3.767  11.826 -0.2535 -0.1587 -0.1071
 3551W        W19735   2.397   2.867  14.457 -0.2625 -0.0862 -0.2122
 3552W        W19736   7.380   7.301   5.405  0.0409 -0.1706 -0.1558
 3553W        W19737   7.837  17.390   1.742 -0.0616 -0.0677 -0.0257
 3554W        W19738   4.551   1.767  13.857 -0.1588 -0.0770  0.1399
 3555W        W19739   5.858   9.815  14.274  0.0157  0.1802  0.1126
 3556W        W19740  14.383  14.921   0.030 -0.0902 -0.3117  0.3313
 3557W        W19741   2.741   1.646   5.568  0.0239  0.1000 -0.1529
 3558W        W19742  17.935   3.968   3.345  0.1419  0.0525  0.0398
 3559W        W19743  14.905   6.349  13.840  0.0127  0.1443 -0.0768
 3560W        W19744   6.492  14.900   2.875 -0.0563 -0.1028  0.0313
 3561W        W19745  10.367  10.143   5.219  0.0175 -0.2457 -0.0176
 3562W        W19746  12.055  14.440   1.920 -0.1900 -0.0494 -0.0303
 3563W        W19747  15.388  11.686  13.629 -0.2313 -0.3450  0.0620
 3564W        W19748  15.483   7.935   3.740  0.1766 -0.2127  0.0251
 3565W        W19749   3.641  12.303  12.262  0.1959  0.1321  0.0162
 3566W        W19750   4.211   5.891   4.429  0.1148  0.0692  0.1361
 3567W        W19751   5.801   7.818   3.906  0.0546  0.0795 -0.0108
 3568W        W19752   4.588   6.956   1.369 -0.0109  0.2979  0.2563
 3569W        W19753   0.914   7.665  12.797 -0.0175  0.0654 -0.1173
 3570W        W19754   4.184   2.674   0.845 -0.2432 -0.2298 -0.0164
 3571W        W19755  17.869   5.571  12.271  0.2570 -0.2538 -0.3272
 3572W        W19756   2.884  10.966   4.476 -0.0891  0.0632 -0.1201
 3573W        W19757  15.629   9.206  11.755 -0.2742 -0.2869 -0.1696
 3574W        W19758  15.205   1.298   0.482  0.1457 -0.1951 -0.3744
 3575W        W19759   4.019   8.487  16.196  0.0652 -0.1147  0.1873
 3576W        W19760  14.881   3.909   3.269  0.0447 -0.0260  0.2592
 3577W        W19761   2.852  11.070  13.490 -0.0776 -0.0279  0.1204
 3578W        W19762  10.331  16.007  12.168  0.2089  0.0563 -0.1118
 3579W        W19763  14.084   9.579  14.065  0.0545  0.0226 -0.0849
 3580W        W19764  14.970   6.053   4.106  0.0524  0.1413  0.2894
 3581W        W19765  16.357   6.168   4.956 -0.1741 -0.0839 -0.5277
 3582W        W19766   9.406   8.792  15.156  0.0433  0.1689  0.0945
 3583W        W19767   7.571  17.997   1.254 -0.1934 -0.0744  0.0810
 3584W        W19768  12.164  13.491  15.192  0.3977  0.3228 -0.1560
 3585W        W19769  14.470   9.234  14.145 -0.1344 -0.0367  0.0435
 3586W        W19770   4.604  17.096   5.964  0.0105  0.1516  0.2172
 3587W        W19771  10.189   5.035  14.278  0.0527  0.0340  0.0502
 3588W        W19772   3.979  13.685  13.450 -0.1572 -0.2473 -0.1180
 3589W        W19773  13.295  15.639   4.540  0.2279  0.0578  0.2229
 3590W        W19774   4.847  12.551   2.126  0.1601 -0.1446  0.3417
 3591W        W19775   7.255  11.336  13.066 -0.1389 -0.3101 -0.2148
 3592W        W19776  14.227   8.211  11.578  0.1520 -0.1486 -0.1056
 3593W        W19777  14.097   7.213  12.648  0.0810  0.3005  0.3584
 3594W        W19778   9.581   6.263   4.083  0.1178  0.2019 -0.2596
 3595W        W19779   1.333  16.558  13.924 -0.2786 -0.1549  0.2089
 3596W        W19780   6.106  10.442   1.254  0.2715 -0.0180 -0.0777
 3597W        W19781   5.817   8.252  16.521  0.1324 -0.0353 -0.0463
 3598W        W19782  17.406   6.406  13.110  0.2888  0.3007 -0.0803
 3599W        W19783   4.110   6.481  14.637 -0.2113 -0.0022  0.1854
 3600W        W19784   4.857  12.314   1.397 -0.1942  0.0098 -0.0600
 3601W        W19785   1.948   3.075   2.759  0.0783 -0.2191  0.2655
 3602W        W19786   0.450   1.254  15.942  0.1797  0.1347  0.3621
 3603W        W19787   1.185   4.644   1.688 -0.0418  0.0091 -0.0587
 3604W        W19788   3.266  13.930   5.109 -0.0749  0.0506  0.0992
 3605W        W19789   2.980  15.494  15.948  0.0161  0.0736  0.2801
 3606W        W19790   2.948  17.223  11.971 -0.0732 -0.0810  0.0149
 3607W        W19791  16.441   4.484  12.864 -0.0129 -0.0365  0.1370
 3608W        W19792   8.258  14.052   4.923  0.2780  0.0214 -0.0655
 3609W        W19793  13.911   0.464  14.039 -0.1372 -0.2215  0.1277
 3610W        W19794  13.936   4.442   5.544  0.2360  0.1907 -0.4031
 3611W        W19795   3.179  12.276  13.823 -0.2076  0.0354 -0.0110
 3612W        W19796  10.814   0.895  16.097  0.1945 -0.1107  0.1738
 3613W        W19797   6.826   1.868  15.236 -0.2175 -0.0241  0.0334
 3614W        W19798   0.823   8.777  15.939  0.0797 -0.1257  0.2703
 3615W        W19799  12.628   6.490  12.006  0.0464  0.0543 -0.1495
 3616W        W19800   0.267  16.884   4.842 -0.1331  0.0521  0.0193
 3617W        W19801  15.577   1.561  13.934 -0.2989 -0.0249 -0.0474
 3618W        W19802   9.983   3.974  14.232  0.0604  0.0889  0.0246
 3619W        W19803  17.528  13.423  14.752  0.0928  0.1378  0.2762
 3620W        W19804  10.668  15.109   5.052 -0.1108 -0.1300 -0.0505
 3621W        W19805   7.969  13.165  11.421 -0.2030 -0.0699  0.2755
 3622W        W19806  12.550   2.045   5.523  0.2180 -0.3815  0.0374
 3623W        W19807   8.774   1.872  16.277 -0.0134  0.0663 -0.2508
 3624W        W19808   2.020   5.353   0.178  0.2011  0.0258 -0.0201
 3625W        W19809   9.269   6.131  16.478  0.0839  0.1648 -0.0698
 3626W        W19810  13.772   9.404   1.168  0.1614 -0.1229 -0.2120
 3627W        W19811   9.307  13.103   5.911 -0.0855 -0.0231 -0.2945
 3628W        W19812  12.283  16.365  14.265 -0.0123 -0.0430  0.0803
 3629W        W19813   5.796  14.349   5.552  0.2299  0.0825  0.3324
 3630W        W19814   6.059  15.576   2.417  0.3913  0.0015  0.0555
 3631W        W19815  11.113  13.469   0.452  0.3189  0.1388  0.1759
 3632W        W19816  17.900  15.169   2.137 -0.0431  0.1794  0.2185
 3633W        W19817   5.049   8.945   1.025  0.2812  0.0707  0.1822
 3634W        W19818  13.003   6.812  14.087  0.2838  0.0226 -0.1120
 3635W        W19819  11.495  11.727   0.243 -0.1385 -0.0056  0.1121
 3636W        W19820  17.680   3.107  16.551 -0.1536  0.0697  0.0934
 3637W        W19821  17.104  13.848   0.789  0.0393  0.2508 -0.0500
 3638W        W19822   9.263  17.070  15.558 -0.0523  0.1188  0.2990
 3639W        W19823   3.740  11.394   1.468  0.5126  0.1957 -0.0469
 3640W        W19824   2.579  13.851   4.501  0.1575 -0.0196  0.1867
 3641W        W19825  16.024   5.674   0.117  0.0224 -0.1481 -0.2805
 3642W        W19826   7.811   3.411   1.718  0.0159  0.1104  0.0823
 3643W        W19827   0.524  11.064  16.532  0.0128 -0.4509  0.0858
 3644W        W19828  15.654   7.125   1.800  0.2587 -0.3476  0.0387
 3645W        W19829  10.658  10.051   0.037  0.2261 -0.2473  0.0241
 3646W        W19830  13.943   1.083   0.387 -0.1292 -0.1387 -0.4182
 3647W        W19831   8.730   9.570  12.093 -0.1199  0.4315  0.0483
 3648W        W19832   3.214   9.413   0.330 -0.0803 -0.2414  0.1142
 3649W        W19833   0.428   7.683   3.376 -0.2466 -0.0963 -0.0736
 3650W        W19834  15.284  16.551   4.680  0.1473  0.0007  0.1337
 3651W        W19835   1.198   4.450  16.280 -0.0125  0.1514  0.0086
 3652W        W19836  11.666  12.258   0.840 -0.1996  0.2790 -0.0529
 3653W        W19837   7.464  10.248   3.391 -0.0796  0.3584  0.0760
 3654W        W19838  12.002   2.142   0.350 -0.2830 -0.0429 -0.1653
 3655W        W19839   7.920   3.382  16.253 -0.0050 -0.3769  0.0829
 3656W        W19840   6.227   9.508  16.507 -0.0239  0.2451 -0.0552
 3657W        W19841  11.303   7.040  15.614 -0.3235  0.1644 -0.3636
 3658W        W19842   9.052   3.221   5.887  0.3675 -0.1913  0.0063
 3659W        W19843  15.982  13.374   3.592 -0.2300  0.2053 -0.1877
 3660W        W19844   6.045  11.543   0.554  0.2770  0.3663 -0.1795
 3661W        W19845   6.052   4.913  15.557 -0.0961 -0.0231 -0.1627
 3662W        W19846   6.814  10.481  15.445 -0.5921 -0.1804 -0.3005
 3663W        W19847  17.172   2.979  15.805 -0.3506  0.1989  0.3721
 3664W        W19848   8.747   6.306  12.874  0.2629  0.0313 -0.0105
 3665W        W19849   3.473   5.318  15.152  0.3024 -0.0419 -0.0291
 3666W        W19850  14.259  11.448   5.978  0.2238 -0.0461  0.2321
 3667W        W19851   1.709  11.652  11.850 -0.1098  0.1935 -0.2361
 3668W        W19852  10.332   5.320  16.370 -0.0517 -0.1605 -0.0128
 3669W        W19853   3.572  14.791   5.216  0.1850 -0.1642 -0.3396
 3670W        W19854   5.764  17.808   3.998  0.1541 -0.0045 -0.2388
 3671W        W19855   1.263  15.249  16.699 -0.0114  0.1074  0.1128
 3672W        W19856  13.660   5.804  15.205  0.1500 -0.1037  0.1551
 3673W        W19857   8.560  12.456   2.670  0.1365  0.0764  0.2601
 3674W        W19858   4.120   5.540  16.021  0.1860 -0.0656 -0.3032
 3675W        W19859  14.453  14.536   1.735 -0.2534  0.0289  0.5422
 3676W        W19860  14.268  17.520   0.478 -0.0005 -0.1195 -0.1581
 3677W        W19861   2.902  14.079   4.239 -0.1726 -0.2366  0.0503
 3678W        W19862   4.850   3.261   5.672 -0.0418 -0.0960  0.2662
 3679W        W19863   5.763   1.248   2.730  0.1535 -0.3290  0.0029
 3680W        W19864  15.085   0.200  16.097  0.4033 -0.1177  0.1110
 3681W        W19865   5.578   2.692  15.163 -0.1059 -0.2664  0.2493
 3682W        W19866   3.583  14.887  14.743  0.3494 -0.3553 -0.1635
 3683W        W19867   3.841   4.757  12.592  0.1433 -0.2164 -0.0476
 3684W        W19868  10.097  10.572   3.533 -0.1471 -0.1458  0.2968
 3685W        W19869  10.761   1.424  16.319  0.0708 -0.0042  0.3468
 3686W        W19870  10.906  11.555  14.049  0.3074  0.1868  0.1901
 3687W        W19871  12.090  13.018   1.262 -0.0085 -0.0351  0.1003
 3688W        W19872   1.018   4.705   3.255 -0.0681 -0.1564  0.0443
 3689W        W19873  11.750   7.889   4.482 -0.1001 -0.2324  0.1449
 3690W        W19874  17.823   6.266  10.688  0.1502 -0.1688  0.1449
 3691W        W19875  13.101  16.299  14.392 -0.2115 -0.1035 -0.0487
 3692W        W19876   9.981   9.236   6.080  0.0765 -0.0513  0.2947
 3693W        W19877  12.985  16.865   4.380  0.0509 -0.2042  0.2199
 3694W        W19878  14.703   0.714  14.745 -0.0145  0.2001 -0.1793
 3695W        W19879  14.483  12.002   1.040 -0.1620  0.1216 -0.0958
 3696W        W19880   2.171  16.638  16.489  0.1424 -0.0007 -0.1748
 3697W        W19881  17.936   6.866  13.153 -0.0619  0.2724 -0.1365
 3698W        W19882  14.876  15.260  13.827  0.1053 -0.0526  0.2057
 3699W        W19883   3.778  15.479   1.812 -0.1314 -0.2993  0.1969
 3700W        W19884  12.201  16.120   5.949  0.0344 -0.0723 -0.1727
 3701W        W19885   4.485  16.758  14.833 -0.2110  0.0186 -0.1753
 3702W        W19886  10.104  16.251   4.783 -0.1699  0.3830 -0.1956
 3703W        W19887  11.620   4.457  11.366  0.1026  0.1726  0.2898
 3704W        W19888  17.614   8.676  13.512  0.0251  0.2654  0.0917
 3705W        W19889   1.385  15.216   0.498  0.0534  0.0467  0.0024
 3706W        W19890   5.732   6.065  12.726  0.2270 -0.0337  0.2104
 3707W        W19891   2.710  10.410   2.020 -0.2010  0.1185  0.0819
 3708W        W19892  14.656   3.932   1.511  0.0307  0.0491  0.1260
 3709W        W19893   5.077   6.231  13.770 -0.4315 -0.0227 -0.0226
 3710W        W19894   3.237   4.460   0.534  0.0393  0.0075  0.1120
 3711W        W19895  15.170  12.213   1.508 -0.2890 -0.1002  0.2847
 3712W        W19896   3.435  14.023   5.941  0.4691 -0.0070  0.0736
 3713W        W19897   1.832   6.587  13.416 -0.2241 -0.0033  0.0740
 3714W        W19898  12.406   2.157   0.812 -0.4015 -0.1991  0.0142
 3715W        W19899   4.841  10.015   5.196 -0.3053 -0.1898 -0.0023
 3716W        W19900  17.947   6.143  15.534  0.1179  0.3049 -0.0497
 3717W        W19901   3.464   7.064   0.036  0.2081  0.0389 -0.2727
 3718W        W19902   9.257  11.295   0.254 -0.1081 -0.1170  0.2209
 3719W        W19903  16.860  11.764   4.946  0.3361 -0.1230  0.1736
 3720W        W19904   0.335   3.071   5.243  0.2391  0.0054  0.2677
 3721W        W19905   7.535  11.096   3.917 -0.2360  0.1484 -0.3844
 3722W        W19906   9.188  13.464  15.190 -0.0519  0.0298  0.0793
 3723W        W19907   0.239  14.862   4.067 -0.0429 -0.2505  0.1331
 3724W        W19908  10.461   0.466   4.064 -0.3868  0.1279 -0.0977
 3725W        W19909   4.585   0.520   1.724  0.0230 -0.0522  0.0558
 3726W        W19910   7.444   6.029   0.292  0.2844 -0.1882 -0.0763
 3727W        W19911  17.734  11.325  16.456 -0.0048 -0.0545 -0.2598
 3728W        W19912   1.297   4.908   3.707  0.1283 -0.1041  0.1725
 3729W        W19913   9.472   3.539  15.512  0.2546 -0.0799  0.1943
 3730W        W19914   7.194   9.285  14.478 -0.1947 -0.0196  0.0828
 3731W        W19915  15.712   9.226   6.108  0.0400  0.1434 -0.1507
 3732W        W19916  13.869   9.420  12.741  0.2202  0.1166 -0.3863
 3733W        W19917   9.832  17.140  14.239 -0.0405 -0.0600 -0.2531
 3734W        W19918   4.052  10.419  12.617 -0.0784  0.0454  0.2278
 3735W        W19919   9.003   1.790  14.828  0.4123 -0.0625 -0.1629
 3736W        W19920   2.815  15.170  11.060 -0.0051 -0.3324  0.1571
 3737W        W19921  11.246  10.821  13.989  0.1748  0.0171  0.2140
 3738W        W19922  16.546   0.345   5.208 -0.0100 -0.3811 -0.0963
 3739W        W19923   7.527   5.118  15.516  0.0622 -0.0230  0.1744
 3740W        W19924   0.724   6.395   1.664  0.1045 -0.1982  0.1441
 3741W        W19925   6.170   3.050   0.772 -0.0216 -0.0469 -0.1507
 3742W        W19926   1.570  17.738   4.779  0.1053  0.0159  0.0154
 3743W        W19927   4.760  16.015   5.926 -0.1263 -0.1583  0.0158
 3744W        W19928  16.114  15.542   4.706  0.0409 -0.2942 -0.0061
 3745W        W19929  11.974   9.149   4.121  0.1582  0.0833 -0.2711
 3746W        W19930  14.004  10.214  12.180  0.2255 -0.1175  0.2406
 3747W        W19931  17.216   6.171  14.411 -0.0480  0.0012 -0.1674
 3748W        W19932  13.546   7.250  15.866 -0.1879 -0.0431  0.0377
 3749W        W19933   6.009  15.876   3.960  0.3178 -0.0224 -0.2489
 3750W        W19934   8.245  10.696   3.877 -0.0593  0.0044  0.0042
 3751W        W19935   4.109   9.101   5.868  0.0833  0.2704  0.1148
 3752W        W19936  13.679   3.107   2.888  0.2157  0.0601 -0.1440
 3753W        W19937  16.914   4.866   4.765 -0.0674  0.2943 -0.0764
 3754W        W19938  15.792  11.421  14.999  0.0783  0.4019 -0.0209
 3755W        W19939   7.525  11.378  12.575  0.0474  0.1629 -0.4306
 3756W        W19940   8.267   9.169  13.358 -0.0500  0.0144  0.2254
 3757W        W19941   6.444  13.913  13.590  0.2103  0.0787 -0.3698
 3758W        W19942  10.199   7.696  14.430  0.0925 -0.1224  0.1825
 3759W        W19943   8.281   6.751   5.741  0.1177 -0.1611 -0.1318
 3760W        W19944   3.234  16.951  11.536  0.3018  0.0475 -0.0769
 3761W        W19945  16.082  16.427   5.106 -0.1637  0.0073  0.0459
 3762W        W19946   4.775   6.972   6.783 -0.1369  0.2171 -0.1829
 3763W        W19947   8.476   0.632  14.933 -0.3149  0.1508  0.2178
 3764W        W19948   2.226  14.262   1.982 -0.3466  0.0295  0.2781
 3765W        W19949  15.870  12.765   5.664  0.2041 -0.1077  0.0970
 3766W        W19950   3.087  11.598   0.551 -0.1101 -0.2134  0.0664
 3767W        W19951  16.365   8.168   1.926 -0.2009  0.2164 -0.0412
 3768W        W19952   7.745  11.744  14.146  0.0286  0.0034  0.1588
 3769W        W19953   2.095  16.750  15.398 -0.1842 -0.0652 -0.0932
 3770W        W19954  15.790   4.103   0.313 -0.1263  0.1796 -0.1566
 3771W        W19955   6.001   9.383   3.358 -0.2665 -0.0643 -0.0260
 3772W        W19956   5.464   7.854  16.518 -0.1651  0.1160 -0.2207
 3773W        W19957   7.034   7.319  12.130  0.0829 -0.1081  0.1060
 3774W        W19958  15.746  17.282  16.502  0.1944 -0.0327  0.1286
 3775W        W19959   5.496  10.940   3.004 -0.3214 -0.1321  0.1659
 3776W        W19960  16.064  11.516  13.628 -0.0137  0.0693  0.1332
 3777W        W19961   4.498  17.853  12.489  0.0833 -0.0393 -0.2336
 3778W        W19962   1.994   9.735  12.379 -0.1828  0.0192 -0.0990
 3779W        W19963   7.319   2.676  15.648  0.3493 -0.1171  0.0608
 3780W        W19964  12.928   5.960  14.518 -0.1179 -0.0364  0.1644
 3781W        W19965   5.799   5.914  11.590 -0.0458 -0.1519 -0.2410
 3782W        W19966  12.864  13.265   3.316  0.0314 -0.1477 -0.1479
 3783W        W19967  14.273   6.152   2.051  0.5695 -0.1674 -0.2496
 3784W        W19968   8.351   1.810   3.623 -0.0084 -0.1077 -0.0955
 3785W        W19969  17.644  12.886   0.845 -0.0796  0.1170 -0.1951
 3786W        W19970   7.069  15.862   0.921 -0.0264 -0.1515  0.0063
 3787W        W19971  16.415  17.456  16.512 -0.3218 -0.3860 -0.3486
 3788W        W19972   5.052  14.564   0.443 -0.0190  0.2883  0.2381
 3789W        W19973   9.685  16.041   3.541 -0.0840 -0.0058 -0.2354
 3790W        W19974   5.871  14.382  14.097  0.2068  0.1189  0.2746
 3791W        W19975   8.567  11.528  12.157 -0.1598  0.3262  0.0492
 3792W        W19976  17.376   3.896   4.716 -0.2951  0.0670 -0.2771
 3793W        W19977  11.059   7.265  16.362  0.2128  0.2147 -0.4561
 3794W        W19978  13.173  16.091   5.149 -0.1620  0.1408 -0.0791
 3795W        W19979   4.274  12.116   2.593 -0.0444  0.3897 -0.1468
 3796W        W19980  13.036   5.602   3.548 -0.2716 -0.1838 -0.1641
 3797W        W19981   4.344   4.791  12.351 -0.0173  0.0422 -0.1370
 3798W        W19982   3.283   2.995   4.181  0.1330 -0.1651  0.1398
 3799W        W19983   7.442  10.462  13.827  0.1764 -0.0607  0.2227
 3800W        W19984   3.718   8.913  12.057  0.2279 -0.2124 -0.0673
 3801W        W19985   6.340   7.998   1.885  0.1339 -0.1103  0.1298
 3802W        W19986  15.576   8.965  10.280 -0.0446  0.3100  0.1102
 3803W        W19987  11.924   5.257  12.581  0.0081 -0.2787 -0.0793
 3804W        W19988   1.887  10.363   2.077 -0.0964 -0.0356  0.1087
 3805W        W19989  11.207  10.347   5.475  0.3274 -0.0226  0.1328
 3806W        W19990   4.291   6.245   2.306 -0.0105 -0.2041  0.0353
 3807W        W19991  13.955   8.418  15.904 -0.1532  0.1989  0.0859
 3808W        W19992   7.943  15.065   0.371  0.1814  0.2968 -0.0852
 3809W        W19993  17.947   5.103   5.675  0.1897 -0.0100 -0.0230
 3810W        W19994  15.906   0.415   1.295 -0.1073 -0.0446  0.3132
 3811W        W19995   3.585  16.864  16.603  0.3685  0.0910  0.0451
 3812W        W19996   7.584  11.190   3.033  0.0675  0.1672  0.0744
 3813W        W19997  15.160   4.199   3.515  0.1910 -0.1579  0.0632
 3814W        W19998   3.644   4.327  14.961  0.0097 -0.1163 -0.0518
 3815W        W19999  12.964   0.075  13.127  0.3735  0.0789  0.1105
 3816W        W20000  12.727   8.494   6.172  0.2170  0.1310 -0.0803
 3817W        W20001   4.091   1.525   3.166 -0.0120  0.1913 -0.0716
 3818W        W20002  17.712   5.926   5.115 -0.3601  0.2812  0.0593
 3819W        W20003  11.834  16.183  14.738  0.0456  0.2735  0.4208
 3820W        W20004  11.592   2.691   4.647 -0.0066  0.1081 -0.3063
 3821W        W20005   2.608  11.191   3.589  0.0141 -0.0922  0.0500
 3822W        W20006   0.897   7.463  14.126 -0.0746 -0.0776 -0.3219
 3823W        W20007   8.465  17.152  16.199  0.1623 -0.2895  0.0486
 3824W        W20008  15.374   5.394  12.882  0.1854  0.4892 -0.0948
 3825W        W20009   2.191  11.468  11.645  0.1017 -0.1696 -0.1660
 3826W        W20010   8.387   2.526   1.846 -0.0911  0.2136  0.1818
 3827W        W20011   9.154   4.751  16.060  0.0933 -0.0738  0.2223
 3828W        W20012   9.734   9.276   4.837  0.0727 -0.2200 -0.1556
 3829W        W20013   5.347  17.558  16.698  0.0967 -0.0248  0.1503
 3830W        W20014   3.850   5.183   3.986  0.0607  0.3057  0.4582
 3831W        W20015   7.932   5.840   0.342 -0.0303 -0.0757 -0.2907
 3832W        W20016   7.341   9.462  16.245  0.0403 -0.1676 -0.1800
 3833W        W20017   4.007   4.234   4.958 -0.0533  0.2361  0.2028
 3834W        W20018  12.820   9.275   1.430  0.0852 -0.4603  0.1816
 3835W        W20019   2.471  12.117  16.690 -0.0508  0.0322 -0.4144
 3836W        W20020   3.649   3.549   3.019 -0.0482  0.0667  0.2709
 3837W        W20021   0.111  15.879   4.727 -0.0584  0.3238 -0.0703
 3838W        W20022   8.087   2.965  16.587 -0.1868 -0.0784 -0.2249
 3839W        W20023   9.740  10.999   4.279 -0.1602 -0.1114  0.1993
 3840W        W20024  17.469  10.294  16.268 -0.0505 -0.0291  0.0960
 3841W        W20025   7.708  10.346  14.703  0.2184  0.0662 -0.2961
 3842W        W20026   1.379   1.261   1.734  0.1166 -0.0912 -0.2395
 3843W        W20027  13.756  11.287  12.780  0.0540 -0.1153  0.0422
 3844W        W20028  14.588   3.426  11.229 -0.1160  0.2286 -0.0723
 3845W        W20029   0.840  13.849   2.713  0.1531 -0.2023  0.0467
 3846W        W20030  12.207  17.168   2.532 -0.0844 -0.2160  0.0297
 3847W        W20031   5.501  14.963  11.807 -0.1122  0.2261 -0.2612
 3848W        W20032   1.507  11.746   1.668 -0.2047 -0.1445 -0.0292
 3849W        W20033  10.878   2.453  16.661  0.0013  0.0766 -0.2454
 3850W        W20034   6.895  10.828  13.066  0.1021 -0.2542 -0.0031
 3851W        W20035  17.900  12.815   0.146 -0.0611  0.0694 -0.3834
 3852W        W20036  15.295   1.997  14.275 -0.2248 -0.5558  0.1043
 3853W        W20037   0.814   3.336   2.550  0.0542  0.1777 -0.1998
 3854W        W20038  16.908   8.391  10.251  0.1788  0.0858  0.0531
 3855W        W20039   8.764  15.917  14.745 -0.4566  0.3828 -0.1745
 3856W        W20040  16.025  16.470   2.650  0.1389 -0.0016 -0.0266
 3857W        W20041  13.371   4.654   1.498 -0.0457  0.0742  0.0711
 3858W        W20042  11.695   3.054  16.061  0.0251 -0.0583 -0.1490
 3859W        W20043   1.214  10.371   4.531  0.0487 -0.2592  0.1402
 3860W        W20044  10.943   3.636   3.279 -0.1291 -0.0254  0.0754
 3861W        W20045   4.703   3.499  14.221 -0.1921 -0.2888  0.4125
 3862W        W20046  12.718   8.627   5.641 -0.1619 -0.1823  0.0666
 3863W        W20047   0.804  11.698  16.688  0.1327  0.1229  0.3185
 3864W        W20048   0.963   7.719   5.283  0.2464 -0.1619  0.2622
 3865W        W20049  13.176   1.117   2.809  0.1597  0.1828  0.0205
 3866W        W20050  17.030   9.630   2.366  0.0252  0.0871 -0.0880
 3867W        W20051  16.078   7.114   1.380 -0.3292 -0.0166  0.1618
 3868W        W20052   6.346   9.887  14.516  0.3938  0.3209  0.0338
 3869W        W20053  10.540  13.638   0.357 -0.2676 -0.1491 -0.2207
 3870W        W20054   2.634  13.867  16.394 -0.0025 -0.1165 -0.0185
 3871W        W20055   0.871   2.111  14.968  0.1482 -0.0379 -0.1151
 3872W        W20056   3.172  12.878   2.440  0.0970  0.3120  0.0449
 3873W        W20057  16.486   8.802   2.593  0.0920 -0.0822  0.0316
 3874W        W20058  13.589   5.692   5.375 -0.0810 -0.2143  0.0552
 3875W        W20059   7.110  12.448  14.162 -0.1230 -0.1650 -0.0375
 3876W        W20060  13.647   6.832   0.686  0.0906 -0.1584  0.1997
 3877W        W20061  17.612  10.050   0.038  0.3144  0.0529 -0.0444
 3878W        W20062  16.360  10.751  12.721 -0.2197  0.1943 -0.0306
 3879W        W20063  10.899   2.104  13.444  0.3678  0.0028 -0.0582
 3880W        W20064   2.672   0.392   5.552  0.0485 -0.0913  0.1875
 3881W        W20065   5.849  15.999   5.102  0.1052  0.2929  0.0290
 3882W        W20066   0.595   2.449  12.099  0.1204  0.1781  0.2744
 3883W        W20067   0.226   3.044   4.661  0.0540 -0.0883 -0.0275
 3884W        W20068   0.576   4.222   2.757 -0.3707 -0.3777 -0.2682
 3885W        W20069  17.981  16.651   1.134  0.1116  0.4012  0.1472
 3886W        W20070   3.012  17.937   0.231 -0.1224 -0.0195  0.0988
 3887W        W20071  15.423   3.241  13.143 -0.0633 -0.1442 -0.1173
 3888W        W20072   3.605   1.538   2.165  0.2668 -0.0773 -0.2549
 3889W        W20073   1.601  13.771   3.492 -0.0259 -0.2131 -0.0908
 3890W        W20074  17.088   0.887  14.174  0.2201 -0.1813  0.2268
 3891W        W20075  16.376   5.858  11.642 -0.1329  0.1094  0.2752
 3892W        W20076  10.390   6.461   4.729  0.1197  0.0340 -0.0147
 3893W        W20077  11.366   6.089   1.631  0.0611 -0.2090  0.0714
 3894W        W20078   9.712  14.640  12.898 -0.1700 -0.0652  0.1378
 3895W        W20079   7.401   7.864   5.441  0.1244  0.3557  0.2561
 3896W        W20080  14.199   0.494  13.545  0.2555  0.3490  0.1848
 3897W        W20081  10.445   5.742   0.806  0.0335  0.0275  0.3722
 3898W        W20082  14.555   8.972   1.847  0.5000 -0.0515  0.0000
 3899W        W20083   6.688  12.479   3.320  0.2436 -0.0267  0.0985
 3900W        W20084   3.114  16.220   2.239 -0.3859  0.2007  0.1119
 3901W        W20085  17.003  16.398  14.378 -0.2737 -0.0133 -0.1977
 3902W        W20086   5.252  16.104  15.663  0.0294 -0.3176  0.1207
 3903W        W20087  14.304   6.997  11.008 -0.0615 -0.1628  0.0276
 3904W        W20088   5.331   7.198   1.947 -0.0513  0.0662  0.1104
 3905W        W20089  15.904   1.864  11.334  0.0224 -0.4479 -0.0712
 3906W        W20090  11.612  16.936  13.645 -0.1094 -0.1191 -0.1730
 3907W        W20091  10.060   7.663  13.465  0.0963  0.0476  0.1256
 3908W        W20092   2.056  14.616  11.365  0.0482  0.1420  0.2420
 3909W        W20093   0.928  15.733  11.794 -0.1353 -0.1262 -0.2931
 3910W        W20094   7.547   0.963  16.031 -0.1128  0.1709 -0.1033
 3911W        W20095  12.503   7.893   5.019 -0.1832 -0.0560  0.0905
 3912W        W20096   9.995  14.636  12.501 -0.1108  0.1784 -0.1673
 3913W        W20097   5.426  10.433  14.572 -0.1238 -0.0429  0.2168
 3914W        W20098  16.795   9.507  11.399  0.0252 -0.0264 -0.0163
 3915W        W20099  13.615  15.869   5.443  0.3877  0.0460 -0.0707
 3916W        W20100  17.676   6.857  12.140  0.0489 -0.2188  0.0983
 3917W        W20101  10.717  16.582  16.302  0.0140 -0.4249 -0.4058
 3918W        W20102  15.140  14.333   0.108 -0.1590 -0.0763  0.3777
 3919W        W20103   0.951   7.709   2.519  0.1758 -0.1182  0.2351
 3920W        W20104   0.093   0.424   5.089  0.1148 -0.1891 -0.1197
 3921W        W20105   0.015  17.200   5.136 -0.1421  0.2901  0.0497
 3922W        W20106  17.276   7.044   0.500  0.1249  0.0748  0.0704
 3923W        W20107  15.820  13.668  12.403 -0.1910 -0.1746 -0.1170
 3924W        W20108  12.276   5.718   2.699  0.1134  0.1102 -0.0304
 3925W        W20109   6.515  10.821  13.468 -0.0217 -0.1456 -0.2356
 3926W        W20110  13.246   7.591  13.647  0.2981 -0.4401 -0.2367
 3927W        W20111   9.866   3.111   4.611 -0.1414 -0.0646  0.1438
 3928W        W20112   0.873   8.036  13.211 -0.0948  0.0275 -0.1302
 3929W        W20113   1.140   9.362  13.189 -0.2814 -0.2160 -0.0726
 3930W        W20114  15.068   2.663   5.728 -0.1478  0.0533  0.2472
 3931W        W20115   9.455   7.291  12.615  0.0831  0.1254 -0.2111
 3932W        W20116   9.974  12.261   1.479  0.1708  0.0240 -0.0553
 3933W        W20117   3.617   9.865   0.188  0.0316  0.0709 -0.0133
 3934W        W20118   4.602  14.104  15.068 -0.1406 -0.1736  0.2842
 3935W        W20119  17.099   4.483   0.188 -0.1721  0.1587  0.1328
 3936W        W20120   9.783   5.370  14.264  0.0289 -0.0373 -0.0714
 3937W        W20121   2.030   7.107   4.112  0.1629  0.0185  0.2392
 3938W        W20122  15.960   7.339   2.917  0.0492 -0.0804 -0.1423
 3939W        W20123  10.257   9.002   2.193 -0.0211 -0.0888 -0.1665
 3940W        W20124   8.347  17.334  11.829 -0.0140  0.1084 -0.1261
 3941W        W20125   6.001   0.657  13.893 -0.0529 -0.0858 -0.3499
 3942W        W20126   7.572  13.941  14.454  0.0911 -0.3080  0.0518
 3943W        W20127  11.993   5.404   0.514 -0.1403  0.2254  0.1097
 3944W        W20128   4.677  13.572   3.739 -0.2565  0.3357 -0.0045
 3945W        W20129   7.074   8.901  14.758  0.1700  0.1159 -0.0973
 3946W        W20130   0.864  17.871   4.846 -0.0767  0.0929 -0.0629
 3947W        W20131   4.437   6.309   2.820 -0.1252  0.0218 -0.1252
 3948W        W20132  11.283  14.396   3.452 -0.1434  0.0505 -0.1717
 3949W        W20133  12.875   2.248  12.031 -0.1322  0.1479 -0.1168
 3950W        W20134  15.258  17.042  13.503  0.1026  0.2364 -0.0928
 3951W        W20135   1.442   0.987   0.969  0.1613  0.1019  0.2822
 3952W        W20136   8.157   2.070  14.091  0.0722  0.0729 -0.2076
 3953W        W20137  14.237   6.844  13.215  0.0268 -0.1612  0.0794
 3954W        W20138   7.012   2.906  15.312 -0.0701 -0.0640 -0.1724
 3955W        W20139   6.963  13.348   3.291 -0.1781 -0.1503  0.1480
 3956W        W20140  11.176  17.054   2.537 -0.0790  0.1609  0.2703
 3957W        W20141   0.942  10.862   1.656  0.0802  0.1634 -0.1510
 3958W        W20142  15.395   0.029  15.087  0.1188 -0.0775 -0.0585
 3959W        W20143  17.574  17.777   5.821 -0.2726 -0.3549  0.3766
 3960W        W20144  15.353  13.919  15.521  0.1315  0.1212 -0.3651
 3961W        W20145   0.684   9.741   3.299 -0.0871 -0.2057  0.0254
 3962W        W20146   7.987  14.707   3.204 -0.1857 -0.2192 -0.4683
 3963W        W20147   3.174  17.494   3.268  0.1604  0.2973  0.2161
 3964W        W20148  12.501   4.990  13.706  0.0270 -0.1862 -0.2027
 3965W        W20149  17.016  15.723   3.574 -0.1160  0.1884 -0.0706
 3966W        W20150  17.696  12.877   1.437  0.0206 -0.2554 -0.1110
 3967W        W20151  13.556   1.675  11.601 -0.1370 -0.3702  0.1998
 3968W        W20152   0.136   1.472  14.630 -0.1525  0.0576 -0.0185
 3969W        W20153   8.612  14.543  11.870  0.4018 -0.4888 -0.0401
 3970W        W20154   5.141   9.975   1.155 -0.0934  0.0483  0.0333
 3971W        W20155   4.032   8.607  11.864 -0.1941  0.0116 -0.0528
 3972W        W20156  13.062   4.719  15.994  0.2345 -0.2117  0.0577
 3973W        W20157   8.185   6.102   0.881  0.1063  0.0569 -0.5520
 3974W        W20158   4.247   5.018   1.076 -0.1385  0.0258  0.0284
 3975W        W20159  12.799  12.538   4.635 -0.0270 -0.0591 -0.2349
 3976W        W20160   1.700   1.338  12.678  0.1044  0.1379  0.0100
 3977W        W20161  10.476   6.724  14.955  0.2985  0.1117  0.1146
 3978W        W20162  12.096  15.441   4.109  0.1913  0.0952  0.1311
 3979W        W20163  15.252  16.002  14.364 -0.1303  0.5558  0.1499
 3980W        W20164  17.616   8.515  11.896  0.3249  0.3556  0.0343
 3981W        W20165  17.670  16.047  11.878  0.2970 -0.1757 -0.1354
 3982W        W20166   1.490  12.847  11.980  0.3810 -0.3090 -0.1910
 3983W        W20167   3.496   8.083   4.771 -0.1466 -0.0458 -0.0958
 3984W        W20168  10.595   1.527   4.064 -0.0449  0.1798  0.0993
 3985W        W20169   1.163   1.029   0.504 -0.0236  0.0585 -0.0294
 3986W        W20170   1.668  14.856  11.684  0.0211 -0.0049 -0.0870
 3987W        W20171   3.940   4.684  12.019  0.2636  0.1280  0.0704
 3988W        W20172   2.208  11.508  14.181 -0.0463  0.3400  0.0359
 3989W        W20173   9.518  17.518   0.529 -0.0152  0.4183  0.0257
 3990W        W20174   2.731  10.448   1.265  0.0129 -0.1201 -0.3252
 3991W        W20175   2.857  16.405   5.185  0.1320 -0.2616 -0.2030
 3992W        W20176   0.730  14.653  12.017 -0.0053  0.0385 -0.0873
 3993W        W20177   5.559   4.432   1.375 -0.0977 -0.1591  0.0661
 3994W        W20178   1.691   1.018   0.481 -0.3460  0.1572  0.2437
 3995W        W20179  11.651  17.660   5.463 -0.1024 -0.0551 -0.0034
 3996W        W20180  13.672   3.683  12.128  0.1616  0.0996  0.0442
 3997W        W20181   7.498  15.754   0.509  0.1997  0.0009 -0.3648
 3998W        W20182   1.365   0.509  11.974  0.3077 -0.1355  0.2728
 3999W        W20183  14.344  17.194   4.319  0.0943  0.4229 -0.1183
 4000W        W20184  16.980  17.317  14.737  0.2183  0.2295  0.0008
 4001W        W20185   3.149   2.652   3.338 -0.2537  0.1581  0.1389
 4002W        W20186  13.863   4.572  12.137  0.0326 -0.1035 -0.0498
 4003W        W20187   3.907   5.421   5.194  0.3227 -0.2041  0.0491
 4004W        W20188  15.151   3.682   0.781  0.0117 -0.1023  0.1155
 4005W        W20189   7.408  14.860  16.186  0.3770  0.1537  0.1694
 4006W        W20190  10.679  17.763  13.346  0.1873 -0.1216 -0.1924
 4007W        W20191   9.013  15.220  14.215  0.0014  0.4663  0.0602
 4008W        W20192  13.901  16.537   0.767  0.1053 -0.1077  0.0818
 4009W        W20193   3.907  12.758   2.198  0.2932 -0.0505 -0.0204
 4010W        W20194  11.921  17.834  15.558  0.3039  0.0265 -0.0206
 4011W        W20195   2.743   8.241  12.448 -0.0198  0.0866 -0.1635
 4012W        W20196  12.092  12.006   1.099 -0.2406  0.0780 -0.1187
 4013W        W20197   6.527  11.343  12.036 -0.0419 -0.0495 -0.0479
 4014W        W20198   0.975   1.167   2.523  0.2503 -0.0851 -0.0919
 4015W        W20199  11.544   4.953  13.930  0.0107  0.1870 -0.0511
 4016W        W20200   2.746  10.087   0.049 -0.1996  0.0630 -0.3281
 4017W        W20201  15.461   2.118   1.673  0.2652 -0.0634 -0.1142
 4018W        W20202   6.633   6.568  12.298  0.2545 -0.0589  0.1009
 4019W        W20203  11.947  10.005   0.279  0.1221 -0.0142  0.0774
 4020W        W20204   3.188  12.627   6.096  0.3051  0.2204  0.0202
 4021W        W20205  12.807   0.279  11.394  0.3501  0.1174  0.2322
 4022W        W20206  17.596   7.601   3.143 -0.1366  0.4754  0.0007
 4023W        W20207  10.200  10.419  12.557 -0.3884  0.1160  0.1131
 4024W        W20208   8.145  12.650   3.031  0.0457 -0.1986  0.0427
 4025W        W20209   5.635   7.906  15.069  0.0066  0.0831 -0.0684
 4026W        W20210   3.184   2.624   1.439  0.0069  0.0588  0.0038
 4027W        W20211  10.208  13.587  14.855  0.2577 -0.3134 -0.3687
 4028W        W20212  10.281   9.925  12.440  0.2746  0.1303  0.0154
 4029W        W20213   1.176   5.272  15.801  0.0335  0.0948  0.1911
 4030W        W20214   8.581  15.094  13.193  0.0773  0.0930 -0.0679
 4031W        W20215  14.945   3.174  12.965  0.0418  0.1797  0.1727
 4032W        W20216   7.855  16.828   1.495  0.1495  0.0555  0.0111
 4033W        W20217  15.751  12.885   0.191 -0.0436  0.1420 -0.1672
 4034W        W20218  10.618  10.973  13.358  0.0744 -0.0552 -0.3156
 4035W        W20219   0.408  10.620   1.203  0.3131  0.1185 -0.0564
 4036W        W20220   1.901  13.378  16.524  0.0857 -0.1502 -0.1881
 4037W        W20221   9.145  15.275   5.777 -0.2846 -0.0230  0.0329
 4038W        W20222   8.594   8.342  12.828  0.0597 -0.1069 -0.0906
 4039W        W20223  10.962   3.138   4.754  0.2231 -0.1799  0.1313
 4040W        W20224   7.069   7.221   4.916 -0.2153  0.0753  0.3728
 4041W        W20225  14.599  14.244   4.315 -0.2547 -0.1566 -0.3737
 4042W        W20226   8.081   7.412   1.385  0.1925 -0.0296 -0.0807
 4043W        W20227   6.678  11.902  14.193 -0.2408  0.2852  0.2653
 4044W        W20228  13.997   9.075   4.121 -0.2091 -0.1931 -0.0152
 4045W        W20229  14.978  13.555   4.684  0.1328 -0.0675 -0.0473
 4046W        W20230  14.878  12.377   4.094  0.2671  0.2217 -0.1283
 4047W        W20231   4.459  13.364   2.760  0.0728  0.1399  0.0853
 4048W        W20232   4.696  16.208   0.131 -0.0558 -0.0538  0.1565
 4049W        W20233  12.576   2.055  13.238  0.1373  0.1702  0.0102
 4050W        W20234  15.935   5.843   3.404 -0.0778  0.1247 -0.3083
 4051W        W20235  13.704   7.470  13.456  0.1148  0.1542  0.1888
 4052W        W20236  12.609   6.705  16.034 -0.2059 -0.0453 -0.0538
 4053W        W20237  15.767  16.688   6.326 -0.1497 -0.2716  0.1193
 4054W        W20238  10.281  17.490   0.992  0.2885 -0.1477 -0.1717
 4055W        W20239  17.890   2.217  15.568  0.1902 -0.2279  0.3854
 4056W        W20240   2.676  10.671  15.169 -0.2705 -0.0450  0.1767
 4057W        W20241   7.280   8.323  15.456  0.1699  0.2438 -0.0874
 4058W        W20242  10.558   2.407   1.211  0.2016 -0.1597  0.2405
 4059W        W20243  13.478  14.787   2.667 -0.3363  0.2647 -0.0206
 4060W        W20244  14.835   6.145   2.952  0.1169  0.1299  0.1732
 4061W        W20245   9.338   8.019  15.629 -0.0930  0.0264 -0.2596
 4062W        W20246   7.953  11.835   6.716  0.0338  0.1058 -0.0184
 4063W        W20247   9.470  13.247   3.514 -0.1013  0.0451  0.2711
 4064W        W20248   1.988  10.867  15.472  0.2120 -0.0154 -0.0002
 4065W        W20249   2.464  10.909  15.585 -0.3803  0.0275 -0.0112
 4066W        W20250   0.935   3.543  12.655  0.4284  0.1425  0.0969
 4067W        W20251  15.999  11.186   5.242 -0.1322  0.1490  0.0359
 4068W        W20252  16.164   6.332   2.838 -0.1966  0.1240  0.0312
 4069W        W20253   8.435   9.123   3.348 -0.2351  0.0855  0.1963
 4070W        W20254  13.621  14.209   5.151 -0.1934  0.0174 -0.1284
 4071W        W20255   5.003   3.110   2.598 -0.0827 -0.0378 -0.0404
 4072W        W20256   6.455  15.763   3.285 -0.1243 -0.1511  0.0970
 4073W        W20257   7.258   3.289   0.851 -0.1743 -0.2201  0.1048
 4074W        W20258   3.561  13.472  12.442 -0.4962 -0.3624 -0.2118
 4075W        W20259   5.878  13.918   1.933  0.0606 -0.2408  0.2693
 4076W        W20260   1.122  10.268  13.226  0.0860 -0.1555  0.2539
 4077W        W20261  16.998   8.623   2.566  0.0713  0.2176  0.1950
 4078W        W20262   8.570   9.042   0.051 -0.0128  0.0548  0.2715
 4079W        W20263   4.594   0.079   4.392  0.3046  0.0159 -0.0895
 4080W        W20264   6.240  16.679   3.159 -0.2561 -0.2107  0.3028
 4081W        W20265  16.884  14.558  13.387 -0.0754  0.3788 -0.0426
 4082W        W20266  15.652  12.846  14.855  0.1977  0.1568 -0.0085
 4083W        W20267   9.627   2.072  14.312 -0.1228 -0.0634 -0.0870
 4084W        W20268  13.530   4.097   0.205  0.1520  0.0555  0.1982
 4085W        W20269  14.422  10.117  13.013 -0.0876 -0.2240  0.0995
 4086W        W20270   0.860   4.813   2.271  0.1248  0.1488 -0.1536
 4087W        W20271  13.900  10.753   2.442 -0.0028 -0.0647 -0.2472
 4088W        W20272   3.160  16.807   0.743  0.5586 -0.0754 -0.0073
 4089W        W20273   7.557  17.548   4.711  0.2136 -0.3756  0.1007
 4090W        W20274  12.142  10.921  13.575 -0.1076  0.1178  0.3632
 4091W        W20275   8.047  16.811   0.174 -0.1772  0.1132  0.3703
 4092W        W20276  16.695  13.934  12.285  0.1492  0.2753 -0.0053
 4093W        W20277   0.029   0.535   0.980 -0.0164 -0.0975  0.0965
 4094W        W20278   9.411  14.761  13.328  0.0564 -0.0459  0.1033
 4095W        W20279  15.048  14.996   4.288 -0.0384 -0.0098  0.2303
 4096W        W20280   7.500   4.550   2.199 -0.0273  0.0571 -0.2136
 4097W        W20281  16.792  13.368   2.866  0.1609  0.1990  0.1176
 4098W        W20282   5.784  16.586   3.203  0.0433 -0.0665 -0.0594
 4099W        W20283   1.963  17.384   5.606  0.2693  0.3417 -0.1621
 4100W        W20284  13.640   0.849   0.102 -0.1692 -0.3119  0.1663
 4101W        W20285  16.795   9.218  13.946 -0.0808  0.0273  0.1333
 4102W        W20286  14.457  14.517   0.351  0.0175 -0.1094 -0.2208
 4103W        W20287  10.447   9.013   1.760 -0.1826 -0.1417  0.0951
 4104W        W20288  11.657   6.891  14.923  0.2242 -0.1595 -0.0187
 4105W        W20289   2.556  15.243  14.151  0.3505  0.3095 -0.1168
 4106W        W20290  16.950  15.299   0.539 -0.3018  0.0451 -0.0056
 4107W        W20291   8.963  14.267   1.982  0.2082 -0.3880 -0.1979
 4108W        W20292  15.599   1.307  11.888 -0.1732 -0.1674  0.2115
 4109W        W20293   5.414  16.782  12.932  0.1048  0.0859 -0.1811
 4110W        W20294   3.559  12.406   3.605 -0.2060  0.1629  0.1230
 4111W        W20295  10.395  15.968  15.361  0.0933 -0.2456 -0.0681
 4112W        W20296  16.737  17.710   1.341  0.0451  0.0405  0.0184
 4113W        W20297   9.643   4.265   0.882  0.1677 -0.2722 -0.0800
 4114W        W20298  12.802  17.105  12.176  0.1005 -0.0171  0.0373
 4115W        W20299   3.200   9.972   3.049  0.1980 -0.2524  0.1889
 4116W        W20300   1.144   8.416  13.473  0.2403 -0.0390 -0.1366
 4117W        W20301  17.720  13.952  12.135  0.1716  0.0414  0.3128
 4118W        W20302   9.533   2.970  15.704 -0.1229  0.0459  0.0727
 4119W        W20303  11.463   7.896  13.919 -0.2688  0.2828  0.0699
 4120W        W20304   7.102  17.212  13.190  0.0372  0.2110 -0.1086
 4121W        W20305  15.337   7.947  12.960  0.2387  0.2575  0.0816
 4122W        W20306  11.804   1.469   3.359  0.1990  0.0825  0.0083
 4123W        W20307   2.504   6.981  15.641 -0.2092  0.0855  0.1992
 4124W        W20308   8.999  15.598   1.352 -0.1266 -0.1494 -0.0894
 4125W        W20309   4.837  11.445   1.328  0.0521  0.1750 -0.0021
 4126W        W20310   7.603  13.803   3.466  0.0273  0.0187 -0.1212
 4127W        W20311   5.257  12.713   2.940  0.1673  0.0969 -0.0725
 4128W        W20312  13.389  10.767   4.540  0.3945 -0.3228 -0.0829
 4129W        W20313   0.869   9.255  11.245  0.1956  0.2612 -0.1845
 4130W        W20314  14.334   6.094   4.861  0.0066  0.1000 -0.0318
 4131W        W20315   1.333  14.803   0.198 -0.0422  0.4281 -0.2079
 4132W        W20316  10.801  13.769  12.873 -0.1356 -0.0684 -0.1892
 4133W        W20317  14.016   6.332   5.808  0.4000 -0.1027  0.1513
 4134W        W20318   5.249   3.704  11.986 -0.0498 -0.4970 -0.2487
 4135W        W20319   1.590   5.033   2.827  0.0440 -0.0424  0.1771
 4136W        W20320  10.492  15.714  14.510  0.1334  0.0919 -0.1561
 4137W        W20321  13.062  16.235   2.121  0.2691  0.0973 -0.3224
 4138W        W20322   0.957   5.388   6.196 -0.2437 -0.0202 -0.0185
 4139W        W20323  12.099  13.952   3.230  0.1401 -0.4103  0.1034
 4140W        W20324   1.392  10.266   3.701  0.3363 -0.1996 -0.1076
 4141W        W20325   4.239   1.126   2.795 -0.0075 -0.1417  0.0015
 4142W        W20326  16.278   0.421   4.607 -0.0810  0.0122 -0.0389
 4143W        W20327  15.125  10.083  11.673  0.1201 -0.0029  0.3366
 4144W        W20328   4.139   7.690  13.598 -0.3343 -0.3244  0.1933
 4145W        W20329   1.663   4.283  12.700 -0.0780 -0.6179  0.1711
 4146W        W20330  16.487  10.358  15.356  0.2190 -0.0840 -0.0053
 4147W        W20331   2.609   0.207  12.887  0.0480 -0.1002  0.2605
 4148W        W20332  14.900   2.296   2.108  0.2279 -0.0144 -0.0654
 4149W        W20333  12.869  12.969   5.030 -0.0980  0.1293 -0.1357
 4150W        W20334   1.790  10.135  11.578 -0.0074  0.0568  0.1819
 4151W        W20335   7.754   8.507  12.714  0.3170 -0.0441 -0.2611
 4152W        W20336  10.995  10.701   0.975 -0.1673  0.2015 -0.1163
 4153W        W20337  15.176  17.187   3.462 -0.1197 -0.0391 -0.1162
 4154W        W20338  11.355  13.679  16.560  0.0254  0.0605  0.2290
 4155W        W20339   3.317  12.221  11.877 -0.1547 -0.0028  0.1779
 4156W        W20340   0.263  13.342   2.437 -0.0252 -0.1243  0.0364
 4157W        W20341   8.397   5.193   4.976  0.2009 -0.0272 -0.1164
 4158W        W20342  10.596   7.716  15.719  0.2523  0.0015 -0.0597
 4159W        W20343  12.775   7.602   1.995  0.0923  0.1438  0.2091
 4160W        W20344   6.518   9.440  12.004  0.0427  0.0509 -0.1685
 4161W        W20345  17.448  15.287  11.301  0.1968 -0.0869 -0.0136
 4162W        W20346   8.869   7.370  12.411  0.0147 -0.0682 -0.2690
 4163W        W20347  17.861   6.843   1.212 -0.1251 -0.3081 -0.0830
 4164W        W20348   7.724  12.506  13.279  0.0605 -0.1353  0.2334
 4165W        W20349   7.967  10.375  15.592 -0.4340 -0.2041 -0.0148
 4166W        W20350  11.278   5.328  16.558  0.1931  0.1786  0.0295
 4167W        W20351   0.334   3.818  16.620 -0.2288  0.2400  0.2014
 4168W        W20352  13.222   8.012   2.465  0.1973  0.0806  0.1350
 4169W        W20353  12.525   1.717   0.574 -0.0670 -0.2273 -0.1784
 4170W        W20354  13.795   2.030   1.107 -0.0135 -0.0444 -0.2426
 4171W        W20355   6.883   2.478   4.291  0.0010 -0.0235 -0.2469
 4172W        W20356   7.409   0.022   3.057 -0.1609  0.0644  0.4583
 4173W        W20357   5.208  12.672   3.749 -0.0314  0.2533 -0.0897
 4174W        W20358   8.541  12.497  14.272 -0.1885 -0.0947  0.1351
 4175W        W20359   4.287   1.427   0.023  0.2470  0.1135  0.0604
 4176W        W20360   5.099  17.791   5.094 -0.0966  0.3142  0.0544
 4177W        W20361  17.223   1.389  15.470  0.0345 -0.0752  0.2383
 4178W        W20362  11.791  15.758   5.319 -0.1230 -0.1014 -0.1168
 4179W        W20363  16.673  14.302   0.016  0.0278 -0.3418  0.0833
 4180W        W20364   7.480   4.725   4.287 -0.1691  0.0458  0.1339
 4181W        W20365  14.495   3.515  13.615  0.0884 -0.2539 -0.1857
 4182W        W20366   3.476  11.985  16.019  0.1300 -0.2143  0.0015
 4183W        W20367  14.802  10.514  13.266  0.0837  0.0232 -0.0879
 4184W        W20368  14.181  11.316  15.353 -0.0599 -0.3145 -0.0990
 4185W        W20369   8.009  15.933  15.724 -0.0240 -0.2071  0.0134
 4186W        W20370  16.315   8.448   5.342  0.2530  0.0390 -0.0859
 4187W        W20371  10.852  12.193  12.766 -0.2816  0.0072 -0.0884
 4188W        W20372   6.570   2.122  16.215  0.0758  0.1574 -0.0093
 4189W        W20373   2.376   0.847  12.647 -0.1130 -0.1330  0.0804
 4190W        W20374  15.112  11.898   6.295 -0.0918 -0.0727 -0.0916
 4191W        W20375  16.177   9.914   0.662 -0.1740 -0.0291  0.1155
 4192W        W20376   9.006  13.727   2.852 -0.0473 -0.0207 -0.1245
 4193W        W20377   8.781  13.789   1.381 -0.2204 -0.2043 -0.1703
 4194W        W20378  16.515   8.971   5.125  0.0035 -0.1396  0.1624
 4195W        W20379  16.277   8.003   0.014  0.1172 -0.0836  0.1785
 4196W        W20380   5.128   6.591   5.907 -0.3901 -0.1386 -0.1505
 4197W        W20381   7.879   4.994   1.081  0.1439 -0.0982 -0.0493
 4198W        W20382   9.420  10.951  14.742 -0.0560  0.0268  0.2333
 4199W        W20383  15.728  10.456  13.627  0.0367  0.2048  0.0114
 4200W        W20384  14.020   6.788   0.034  0.2943 -0.0649  0.0057
 4201W        W20385  17.004   7.652   2.423  0.1898 -0.0210 -0.3933
 4202W        W20386   9.924  13.349   4.852 -0.2859  0.0248 -0.0565
 4203W        W20387  11.933   2.883   2.737 -0.0379 -0.1065 -0.0921
 4204W        W20388   2.273   3.374  15.715  0.0788 -0.0708 -0.2809
 4205W        W20389   3.964   7.236   2.041  0.2008 -0.0172  0.1984
 4206W        W20390  15.161  16.563  16.691 -0.0219  0.1021 -0.0698
 4207W        W20391   9.677   2.452   5.723 -0.0297 -0.3184 -0.1077
 4208W        W20392   7.498  11.998  13.455  0.2259 -0.0338 -0.2217
 4209W        W20393  14.077   7.777   3.985 -0.0103  0.0517 -0.2949
 4210W        W20394   5.004  15.721  15.981  0.1465  0.1101 -0.0026
 4211W        W20395   7.692   7.248  12.622 -0.0738 -0.3675 -0.1502
 4212W        W20396  12.361   4.129  12.515  0.0810  0.0141 -0.0025
 4213W        W20397   8.598  11.087   2.972  0.0035 -0.1489 -0.0693
 4214W        W20398   4.258   4.611   4.688  0.2708  0.0976  0.1261
 4215W        W20399   1.341   7.938  15.202 -0.0815  0.0699  0.0884
 4216W        W20400  13.139  17.462  11.494  0.2021 -0.0748 -0.0807
 4217W        W20401  11.905   0.018  16.151  0.2732  0.1131 -0.1213
 4218W        W20402   9.220   1.335  14.534 -0.1234  0.0342  0.1711
 4219W        W20403  14.807  10.227   0.638 -0.1577  0.2935 -0.1607
 4220W        W20404  14.691  15.193   2.873 -0.2745 -0.0246  0.3143
 4221W        W20405  15.561   2.141  15.868 -0.1685 -0.0041  0.2781
 4222W        W20406   1.274  15.190   2.504  0.1085 -0.3973  0.0441
 4223W        W20407   6.267  17.240   1.462 -0.0232  0.0960 -0.1006
 4224W        W20408  10.406   8.200   4.128  0.2565 -0.1501 -0.0373
 4225W        W20409   8.835   0.171   2.479 -0.2537 -0.1088  0.1157
 4226W        W20410  11.340  12.014  16.483 -0.2085  0.2636  0.0046
 4227W        W20411   8.686   0.103   4.002 -0.1253 -0.0513 -0.0791
 4228W        W20412  14.204   6.948   2.904  0.1846 -0.1868 -0.0011
 4229W        W20413   0.430  13.360  16.376 -0.0348 -0.0949  0.1503
 4230W        W20414  10.323  14.493   1.510 -0.2382  0.3292  0.3015
 4231W        W20415  12.415   1.235   4.585 -0.2856 -0.0156  0.1419
 4232W        W20416   4.080  14.269   2.975 -0.0600 -0.2676 -0.1296
 4233W        W20417  17.079   7.492   2.925 -0.0841 -0.0327 -0.0183
 4234W        W20418   5.862   8.456  13.183  0.2232 -0.1221 -0.1349
 4235W        W20419   0.162   6.463   4.831  0.0575  0.5129 -0.0993
 4236W        W20420   9.473   4.541  11.995  0.2216  0.1932 -0.0005
 4237W        W20421  16.522   2.040   0.786  0.1424  0.1332  0.0226
 4238W        W20422   6.824   9.781   2.787  0.2675  0.2322  0.0633
 4239W        W20423  14.382  11.019   0.097  0.1684  0.0595 -0.0210
 4240W        W20424   6.220   3.536  14.428  0.0421 -0.2462  0.2790
 4241W        W20425   2.360   1.339  15.710  0.2605 -0.0240 -0.0541
 4242W        W20426   3.537   1.731   6.094  0.1924 -0.1757 -0.1346
 4243W        W20427   1.154  11.817   0.359  0.0806 -0.3250  0.2222
 4244W        W20428  13.210   2.485  13.986 -0.1216 -0.1599 -0.0252
 4245W        W20429  12.456   9.070  11.459 -0.3785  0.0795  0.0009
 4246W        W20430   3.217  13.346   3.444 -0.0811 -0.0201 -0.0843
 4247W        W20431  12.789  11.702   4.038 -0.0855  0.0849 -0.0720
 4248W        W20432   4.064   0.985  14.860  0.1563  0.1648 -0.1340
 4249W        W20433   8.388   3.463   2.575  0.0733  0.1063 -0.1890
 4250W        W20434  16.895   2.501  11.981  0.0670 -0.0264 -0.0876
 4251W        W20435   6.712   3.133   2.152  0.0487  0.0083  0.1994
 4252W        W20436   4.141   3.946   5.452 -0.0906  0.1927 -0.1724
 4253W        W20437   7.200  14.356   3.578  0.3960 -0.1264  0.0146
 4254W        W20438  13.441  10.554  14.504  0.2123  0.1593 -0.1074
 4255W        W20439  13.324   2.785  11.178 -0.0221 -0.2187  0.3504
 4256W        W20440   4.526  14.637   5.481  0.1628  0.3097  0.1498
 4257W        W20441  15.540  10.581  12.403  0.2189 -0.0086  0.4291
 4258W        W20442   3.503  17.512   1.394 -0.1316 -0.0538  0.0874
 4259W        W20443  17.403  14.146  13.986 -0.0484  0.0982 -0.0010
 4260W        W20444  17.540   8.504   5.324  0.1705 -0.0061 -0.0140
 4261W        W20445  15.931  15.505  13.936  0.0831  0.0039 -0.0092
 4262W        W20446   8.097   1.979  14.690  0.2590 -0.1994  0.2219
 4263W        W20447   5.605   7.210   5.212 -0.1319 -0.1652 -0.1215
 4264W        W20448   4.875   8.545   2.811 -0.3159  0.1565 -0.0825
 4265W        W20449  14.581   5.229   3.962  0.0639  0.0072  0.1182
 4266W        W20450   3.562  13.749  16.022  0.0541 -0.0478 -0.1126
 4267W        W20451  11.362   0.374  10.702  0.0594  0.3130  0.0798
 4268W        W20452  13.195  17.891  15.788  0.0655 -0.0621  0.0042
 4269W        W20453  11.284  11.262   2.242 -0.1194 -0.1270 -0.2460
 4270W        W20454   2.384  17.391   0.150 -0.3555  0.0811  0.0984
 4271W        W20455  15.758   3.802   2.786  0.0995 -0.0859 -0.1480
 4272W        W20456   7.861   9.240   5.308 -0.0574 -0.1774 -0.1464
 4273W        W20457  14.433   2.769   0.059 -0.1279  0.2762  0.0687
 4274W        W20458   6.802  15.990   1.280 -0.1360  0.3539  0.2302
 4275W        W20459   2.350   9.891  11.621 -0.0080  0.0533 -0.1905
 4276W        W20460  13.888  12.053   4.191  0.0782  0.3793 -0.2312
 4277W        W20461   1.133  11.253   5.054 -0.2974 -0.0453  0.0886
 4278W        W20462   2.253   5.211  12.907  0.0379  0.3609  0.0636
 4279W        W20463   7.716   5.322   3.728  0.0928  0.2917 -0.0792
 4280W        W20464   0.898   8.249   1.225 -0.1140  0.2390  0.0273
 4281W        W20465   8.637   2.476   5.182  0.0708 -0.0317  0.0338
 4282W        W20466   8.769   7.734   2.140  0.1082  0.0761 -0.3436
 4283W        W20467  11.862   7.849   1.574  0.1630  0.0641  0.0129
 4284W        W20468   1.725   7.116   4.606  0.2631  0.1477  0.3065
 4285W        W20469  14.202  17.664   2.619  0.1765  0.1007 -0.0153
 4286W        W20470  17.215   9.895   1.468 -0.2760  0.0892  0.2058
 4287W        W20471   2.707  14.028   1.257  0.0951  0.0629 -0.0749
 4288W        W20472   3.291  16.795   1.653  0.0630 -0.0843 -0.0140
 4289W        W20473  12.214   8.755  13.909 -0.1473  0.2507 -0.1268
 4290W        W20474   4.166  14.362  11.858  0.1079  0.0837 -0.1297
 4291W        W20475  12.852  13.078   3.786  0.1045  0.0377 -0.0069
 4292W        W20476   8.161  14.538  15.752  0.2109  0.2320  0.0700
 4293W        W20477   8.442  15.354   4.135 -0.2222  0.0972  0.2254
 4294W        W20478   1.794   8.490   5.843  0.1753  0.3227 -0.1448
 4295W        W20479   0.653  17.959   3.309  0.0904 -0.0278  0.0362
 4296W        W20480  12.802   7.185  11.398 -0.1097 -0.4214  0.1846
 4297W        W20481   1.812  12.798  14.367  0.0991  0.0934  0.0739
 4298W        W20482  10.538  16.282   4.073 -0.1331 -0.1811 -0.1768
 4299W        W20483   5.476  10.907   2.477 -0.1972  0.0775 -0.4771
 4300W        W20484   0.321  17.785   3.648  0.1317 -0.3724  0.2843
 4301W        W20485   2.005   9.470  12.804 -0.2121  0.1176  0.1073
 4302W        W20486   9.408   7.667  12.953  0.1721 -0.0125  0.2702
 4303W        W20487   2.029  17.602  12.106  0.3318 -0.0827 -0.1546
 4304W        W20488  17.155   7.378   3.404 -0.3060 -0.1504  0.0685
 4305W        W20489   9.482   4.279  13.296  0.2389  0.0581 -0.1408
 4306W        W20490   5.861   2.121   4.418 -0.0050  0.2131  0.0006
 4307W        W20491  14.094   6.399  14.942  0.2021  0.1507  0.0478
 4308W        W20492   8.004   1.180  15.950 -0.0200 -0.0952  0.0103
 4309W        W20493   9.127   6.546  11.957 -0.0174 -0.1594  0.1864
 4310W        W20494  10.277   5.197  13.808 -0.1384  0.2641 -0.2296
 4311W        W20495  13.351  11.095  14.432  0.0400  0.1940  0.1941
 4312W        W20496   1.269  12.886  13.507 -0.0315  0.0970  0.0994
 4313W        W20497  11.910   0.998   4.647  0.2799 -0.0840 -0.1579
 4314W        W20498  15.770  12.705  15.371  0.0604 -0.2171 -0.1868
 4315W        W20499   6.340  13.766  12.386  0.1891  0.0693 -0.1375
 4316W        W20500   4.816   7.133   1.765  0.0304 -0.1641 -0.5583
 4317W        W20501  10.131  12.983   2.411 -0.0102 -0.0125  0.1415
 4318W        W20502  15.013  16.122   0.564 -0.4425 -0.0418 -0.2761
 4319W        W20503   2.753  13.556  13.234  0.0061 -0.0047  0.1511
 4320W        W20504  12.365   0.049  13.470  0.0276 -0.4062  0.1939
 4321W        W20505   2.818   4.781   4.191 -0.2875  0.0276 -0.0363
 4322W        W20506   7.757  17.417   2.240  0.1076 -0.1302  0.0741
 4323W        W20507   2.331   9.746   6.115  0.2328  0.4603  0.0270
 4324W        W20508  13.499   1.321  16.492 -0.0782 -0.0788  0.1545
 4325W        W20509   8.265   0.155   0.147  0.2480  0.1690  0.1476
 4326W        W20510   6.977   8.855   1.711 -0.2753  0.0333  0.1331
 4327W        W20511  17.858  12.862   1.976  0.1113 -0.1983 -0.1126
 4328W        W20512   0.909   3.710  13.920  0.1923  0.0708 -0.0761
 4329W        W20513   7.077  12.108   3.166 -0.2648 -0.0692 -0.1910
 4330W        W20514  11.904   9.802  15.570 -0.2856 -0.0869 -0.2254
 4331W        W20515   6.421   8.658  12.572 -0.1530 -0.1396  0.0985
 4332W        W20516  10.405   9.705   4.472 -0.2975 -0.0120  0.1483
 4333W        W20517   0.056   8.328   5.835 -0.2303  0.1176 -0.3274
 4334W        W20518   8.248   1.497   0.939  0.0007  0.2015 -0.0615
 4335W        W20519  13.754  14.138   5.642  0.0818  0.4106  0.1857
 4336W        W20520  15.580   0.799   4.008  0.1926  0.0078  0.1126
 4337W        W20521  11.651  14.567   2.664 -0.1939 -0.0288  0.0974
 4338W        W20522  12.575  11.820  15.453  0.0110 -0.1237  0.4070
 4339W        W20523  13.446  12.108   0.882  0.1089  0.2358  0.1040
 4340W        W20524  14.654   3.623   0.989 -0.1053 -0.0031  0.3528
 4341W        W20525  13.042  12.860  15.562 -0.2484  0.1726  0.1753
 4342W        W20526  12.834  10.853   4.523  0.0538  0.2429  0.0196
 4343W        W20527   0.723  12.323  11.596  0.2045  0.0027  0.2250
 4344W        W20528   7.070   9.024  12.589  0.1743 -0.1079 -0.1612
 4345W        W20529  11.697  12.832  15.742 -0.0689  0.1576  0.0996
 4346W        W20530   3.494   0.890  16.441  0.0091 -0.3266  0.0485
 4347W        W20531   9.800  12.064  13.986 -0.2977  0.1720  0.1925
 4348W        W20532  10.144  17.763  15.580 -0.1304  0.1677  0.0335
 4349W        W20533   9.553  12.685  12.205  0.0782 -0.0656  0.0815
 4350W        W20534  12.057   0.136   0.431 -0.0081 -0.1086  0.1192
 4351W        W20535  13.019   6.124   0.808 -0.2483 -0.1117 -0.1049
 4352W        W20536  15.595   0.641   5.137  0.0335  0.0491 -0.0090
 4353W        W20537   3.912   0.932   4.331 -0.1038 -0.1888  0.4671
 4354W        W20538   8.451  15.473  11.485 -0.3106  0.1659 -0.0975
 4355W        W20539  15.331   3.975  12.639 -0.0603 -0.0420  0.0430
 4356W        W20540  13.890  14.836  11.568  0.3519  0.1390  0.1867
 4357W        W20541   9.743  16.612   0.933  0.1066 -0.0301 -0.0043
 4358W        W20542   1.187   9.603   0.627  0.0555  0.1444  0.4284
 4359W        W20543   6.254   1.091   2.205 -0.1071 -0.3668 -0.2154
 4360W        W20544  11.559   7.615  14.393  0.2541  0.0275  0.4182
 4361W        W20545   6.933   6.393  16.220  0.0758  0.1192 -0.3204
 4362W        W20546   7.035  11.199   4.193  0.0509  0.0327  0.0062
 4363W        W20547  16.576  16.331  12.750  0.0082 -0.3258  0.3002
 4364W        W20548   6.282   5.474  12.350 -0.2610 -0.0588  0.5852
 4365W        W20549  16.489   8.428  12.764  0.0062 -0.1880 -0.1622
 4366W        W20550  14.619  13.141  14.907  0.1909  0.0878 -0.1253
 4367W        W20551   6.558  11.151   1.312 -0.2613 -0.0498  0.3453
 4368W        W20552  12.874  16.372   0.155  0.0928  0.1255 -0.3342
 4369W        W20553   5.998  17.095  12.846  0.3111  0.1415  0.2221
 4370W        W20554  14.101  13.753   2.326  0.1377 -0.0024  0.3432
 4371W        W20555  13.242  12.217   2.301 -0.2976  0.0965 -0.1449
 4372W        W20556   9.857  10.729  14.760 -0.0413  0.0431  0.1454
 4373W        W20557   6.199  12.661   0.023  0.0633 -0.0461 -0.1287
 4374W        W20558   8.048   5.264  15.528  0.0260  0.2169  0.0131
 4375W        W20559   7.486  11.839  12.966  0.1180 -0.5134  0.1444
 4376W        W20560   9.447   0.099   4.693  0.2354 -0.1678 -0.0206
 4377W        W20561  10.574   8.257   1.820  0.1551  0.1399  0.0957
 4378W        W20562  17.211   8.240  12.824 -0.0331 -0.0449  0.0031
 4379W        W20563   2.482  11.618   3.311 -0.0921  0.4196  0.3167
 4380W        W20564   0.196  11.419  16.466 -0.2780 -0.2539 -0.0481
 4381W        W20565  12.946  13.625  14.113 -0.0630  0.1370 -0.0493
 4382W        W20566   7.796  17.410  14.853  0.3002 -0.1263  0.1254
 4383W        W20567  13.696  12.921  12.921  0.0258  0.2303  0.1309
 4384W        W20568   1.760   7.391   5.495  0.1247  0.0266  0.4368
 4385W        W20569  17.968  12.691   5.169 -0.0797  0.0442 -0.1157
 4386W        W20570   3.051  11.349  16.417 -0.2546 -0.0633  0.0868
 4387W        W20571   1.320   5.867  14.903 -0.2570  0.0578 -0.1330
 4388W        W20572   7.569  12.448  15.434  0.1239  0.0774 -0.1971
 4389W        W20573  15.729  12.867  16.373 -0.1576  0.2851  0.1393
 4390W        W20574   0.241   5.078   1.693 -0.3009  0.1112 -0.2617
 4391W        W20575   0.338  10.115   3.352 -0.1894  0.1427 -0.1929
 4392W        W20576  15.180   2.669  14.043  0.0814  0.2469 -0.0628
 4393W        W20577  16.287   0.229  10.062  0.0237  0.3240 -0.1262
 4394W        W20578  16.181   7.182   3.991  0.1761 -0.2812  0.2425
 4395W        W20579  15.176  11.362  12.920  0.2272  0.0280 -0.1958
 4396W        W20580   6.575   9.989  15.327 -0.4602  0.1775  0.0669
 4397W        W20581   6.235   4.413  14.795  0.0233 -0.1035 -0.0240
 4398W        W20582  12.681  12.537   2.445  0.0482  0.0040  0.0735
 4399W        W20583   1.238   9.873  12.424  0.3299  0.0464  0.1562
 4400W        W20584  15.690  15.986  16.365  0.0884 -0.1061 -0.1956
 4401W        W20585  13.453   1.536  13.263 -0.2770 -0.1933  0.1305
 4402W        W20586   7.519   2.382  13.716 -0.1134  0.0645  0.0581
 4403W        W20587   5.331   4.484  13.310 -0.1121 -0.0225 -0.1659
 4404W        W20588  15.623  17.399   3.448 -0.0425  0.0350  0.0834
 4405W        W20589   9.074   9.573  11.582  0.1990 -0.0138  0.2015
 4406W        W20590   5.903  10.841  11.862  0.3033 -0.2566 -0.0254
 4407W        W20591   9.122   9.744  14.140 -0.0993 -0.1565  0.1045
 4408W        W20592   4.562  15.623   0.236  0.0229  0.1385  0.4284
 4409W        W20593   9.855   0.186   0.928 -0.0021 -0.2121 -0.2145
 4410W        W20594  17.211   0.716  11.970  0.0004 -0.1306 -0.0658
 4411W        W20595  12.040  13.242  13.242  0.0616 -0.1690  0.0866
 4412W        W20596  17.775   9.383  13.558  0.2077  0.0904  0.3322
 4413W        W20597   2.847   8.300  15.687  0.0234 -0.1485 -0.0110
 4414W        W20598  17.276  17.926  16.063  0.2698  0.0529 -0.1556
 4415W        W20599  12.582   7.664   3.541  0.0087 -0.1064 -0.3007
 4416W        W20600   9.153  17.937   1.804  0.0732  0.0462 -0.1729
 4417W        W20601  17.601   1.334   1.189  0.0064 -0.0156 -0.1753
 4418W        W20602  13.378  10.101   1.489  0.2122 -0.2159  0.1726
 4419W        W20603   5.210  10.359  16.561  0.3679 -0.2005  0.1170
 4420W        W20604  13.057   8.802   5.270 -0.2543  0.0874 -0.0375
 4421W        W20605   0.298   2.790  16.344  0.0019  0.0268  0.1092
 4422W        W20606   0.307  14.186  12.725 -0.0504 -0.4362  0.0044
 4423W        W20607   7.858   0.345  16.035  0.2245  0.2362 -0.1551
 4424W        W20608   5.502  12.608  15.279  0.0664 -0.0113 -0.2679
 4425W        W20609  11.074   9.418   3.726  0.0636  0.0738  0.1325
 4426W        W20610  16.358   2.063   3.741 -0.1439 -0.2049  0.3076
 4427W        W20611   6.138   9.147   1.602 -0.1075 -0.0849  0.0699
 4428W        W20612   2.768   6.730   1.194  0.1947  0.2505  0.0791
 4429W        W20613   2.702  12.028   4.979  0.0930 -0.0978 -0.0655
 4430W        W20614   3.222  12.386   5.660  0.0723  0.0983 -0.0638
 4431W        W20615   8.736  12.381  15.829 -0.2033 -0.1633 -0.1901
 4432W        W20616  16.997  10.821  13.005  0.1104 -0.0579  0.1656
 4433W        W20617  11.250   8.046   4.682 -0.0918  0.2074  0.0235
 4434W        W20618   4.103  17.133   4.808  0.0614 -0.0124  0.1488
 4435W        W20619  12.909   6.107   3.291 -0.1259  0.2081  0.1102
 4436W        W20620   3.216   8.145  12.041  0.3679  0.1570 -0.0077
 4437W        W20621  14.331  16.051  15.318  0.0231 -0.2223  0.2600
 4438W        W20622  10.893  15.578   4.783  0.1137  0.2944 -0.2646
 4439W        W20623  13.817   1.202  14.177 -0.1510  0.0435 -0.1321
 4440W        W20624  15.727  16.954  15.061  0.1147 -0.2739 -0.2545
 4441W        W20625  16.750  16.598   0.685  0.1926  0.0320  0.1048
 4442W        W20626   8.929  15.335  12.150  0.1901 -0.0237 -0.2210
 4443W        W20627  14.236   6.584   1.221  0.2727  0.0407 -0.0621
 4444W        W20628   4.244   0.354  16.341  0.2156 -0.0288  0.1540
 4445W        W20629   4.497   3.788   0.938  0.1327  0.1080 -0.0012
 4446W        W20630  13.860   0.455  15.148 -0.1226  0.1282 -0.1260
 4447W        W20631  12.125  17.332  15.550 -0.1568  0.0285 -0.0079
 4448W        W20632   8.062   3.608   5.970  0.2610 -0.1435 -0.0572
 4449W        W20633   4.941   2.782   5.421  0.0207  0.0519  0.3107
 4450W        W20634   6.451   3.527   0.606  0.0331 -0.2631 -0.0341
 4451W        W20635   8.862  16.147  15.263  0.2116 -0.2432  0.1772
 4452W        W20636   7.209   6.961   2.735 -0.2297 -0.3650 -0.0767
 4453W        W20637   5.643   2.839  16.611  0.2166  0.0376 -0.0570
 4454W        W20638   6.954  12.546   3.810  0.0574 -0.2891  0.0472
 4455W        W20639   5.797   7.381  12.928 -0.0499 -0.0367  0.1396
 4456W        W20640  11.366  15.044   6.126 -0.1416  0.2231 -0.0884
 4457W        W20641  15.652   7.633   3.290  0.1621  0.0314 -0.1840
 4458W        W20642  13.468  12.164   1.345 -0.0556  0.0441 -0.1684
 4459W        W20643  11.666   6.764   4.114 -0.2619  0.1331 -0.1361
 4460W        W20644   5.588  13.465   3.228  0.2388  0.0075  0.2851
 4461W        W20645   1.808   5.629   4.180  0.0380 -0.0648  0.0320
 4462W        W20646   5.487   9.614   3.367  0.0097 -0.2693  0.1749
 4463W        W20647   6.186  11.316   4.093  0.1416 -0.3247  0.3095
 4464W        W20648   8.001   9.621  11.683  0.2407 -0.2253  0.1483
 4465W        W20649   7.992   7.795   0.165 -0.1004  0.2549 -0.2372
 4466W        W20650   2.211   8.218   0.328  0.1253  0.3190 -0.0490
 4467W        W20651   7.539   3.719   4.758 -0.1340 -0.3455  0.0439
 4468W        W20652  14.492  13.496  15.853  0.0544 -0.0015 -0.0976
 4469W        W20653   8.235   9.878  16.421 -0.1122 -0.0393 -0.0739
 4470W        W20654   9.609   7.831   0.724  0.0508  0.0374 -0.0554
 4471W        W20655   1.806  11.561  12.847 -0.0542 -0.5249 -0.3607
 4472W        W20656   2.649   2.632  16.205 -0.2701  0.1601  0.2343
 4473W        W20657   5.684   3.640  14.144 -0.3577  0.1804 -0.3830
 4474W        W20658   8.693   2.263   3.749  0.3427  0.1420  0.0585
 4475W        W20659  14.425  16.187   4.303  0.0565  0.2772 -0.3213
 4476W        W20660   8.001   6.458  16.443  0.0190  0.1322  0.2096
 4477W        W20661  13.665  13.416  15.258 -0.2759  0.0517 -0.2412
 4478W        W20662  11.691   2.821   3.213 -0.0930  0.1655 -0.0936
 4479W        W20663   2.873   3.727   5.577  0.0085  0.1702  0.3159
 4480W        W20664  17.473   1.665   2.921  0.2385 -0.0074  0.0931
 4481W        W20665   7.947   6.775  15.479  0.0065 -0.1807  0.0526
 4482W        W20666  15.624  11.524  12.241  0.2220  0.0243  0.1759
 4483W        W20667  10.818   3.403  16.195 -0.1852  0.1949 -0.2574
 4484W        W20668  13.557   5.522   1.313  0.1027 -0.2165  0.1463
 4485W        W20669  16.684  15.322   1.554 -0.0740  0.2451  0.1195
 4486W        W20670   4.045  14.905   0.254  0.0935 -0.2848 -0.0909
 4487W        W20671  17.085   3.852  13.878 -0.4434 -0.0351 -0.1757
 4488W        W20672  10.895   1.342   2.391  0.0350  0.0993 -0.0845
 4489W        W20673   3.642   0.733   1.802  0.1417  0.2478 -0.0698
 4490W        W20674   3.860  17.885   4.969 -0.0199 -0.1850 -0.0341
 4491W        W20675   2.502  13.161   5.258  0.2247 -0.1379  0.1802
 4492W        W20676   6.518   9.068   3.329 -0.1766  0.0043 -0.2006
 4493W        W20677   5.479  13.565  13.425 -0.1479  0.0830  0.1398
 4494W        W20678  13.857   5.127  13.903  0.1768 -0.2845  0.2104
 4495W        W20679   1.715   2.875  11.879  0.0358  0.1477 -0.0988
 4496W        W20680   5.033  16.208   4.903 -0.1130  0.0865  0.0908
 4497W        W20681  11.801   1.806  16.256  0.1653 -0.0887  0.1654
 4498W        W20682   1.620  12.864  14.827 -0.2579 -0.1450 -0.1605
 4499W        W20683   8.229   5.593  12.753  0.2227 -0.0846 -0.3058
 4500W        W20684  12.855  14.382   0.915  0.2325 -0.3075  0.1846
 4501W        W20685   3.438  13.131   1.609  0.0079  0.1478  0.1021
 4502W        W20686   9.427   1.480  14.116  0.0517 -0.2822 -0.2621
 4503W        W20687   3.647   6.263  15.598  0.0083 -0.3210 -0.1044
 4504W        W20688  15.139  16.660  11.748  0.0506  0.1127  0.0233
 4505W        W20689  15.775  16.735  13.813 -0.2604  0.0306 -0.1456
 4506W        W20690   4.076   1.100  12.709 -0.0380  0.1486  0.0874
 4507W        W20691   3.664   7.135   3.518 -0.2376  0.1030 -0.0939
 4508W        W20692  12.173  12.409   2.444 -0.0825 -0.1980  0.4674
 4509W        W20693   8.209  17.500   3.424 -0.3293  0.0188 -0.1703
 4510W        W20694  15.249  11.876   0.552 -0.0105 -0.2817  0.0918
 4511W        W20695  14.063   3.940  13.280 -0.1794  0.1671  0.1092
 4512W        W20696   6.265   8.846  13.456 -0.0526 -0.1243 -0.0715
 4513W        W20697   6.195  15.974  14.537  0.1173  0.1322  0.1274
 4514W        W20698   1.841   9.878   6.036  0.2382  0.3543  0.1508
 4515W        W20699   6.440  13.930  11.928  0.1457  0.0998  0.1786
 4516W        W20700  16.863   1.968   3.005  0.0584  0.0209 -0.0544
 4517W        W20701   1.284   4.179  12.116 -0.0503 -0.1303 -0.3198
 4518W        W20702   3.594   7.823  14.306  0.0301 -0.0812 -0.0288
 4519W        W20703   8.424   0.021   0.706 -0.1653  0.1583 -0.0912
 4520W        W20704   1.715  14.679   5.287  0.0074 -0.0367  0.2397
 4521W        W20705  14.587  16.697   4.400 -0.0786  0.0946  0.3166
 4522W        W20706   7.702   9.905  14.481 -0.0992  0.0616 -0.0785
 4523W        W20707  10.191   7.433  13.937 -0.0032  0.1669 -0.0168
 4524W        W20708   0.894  13.467   1.565  0.0325 -0.1062  0.0746
 4525W        W20709  16.443   8.236  14.990  0.4318 -0.0116  0.0157
 4526W        W20710   4.627   9.313   1.730 -0.1477 -0.0189  0.2444
 4527W        W20711   9.873  16.478   1.403 -0.0661  0.3246 -0.0805
 4528W        W20712   0.511   5.269  16.341  0.2429 -0.1287 -0.2322
 4529W        W20713   5.405   9.772   1.559  0.2307 -0.2636 -0.0199
 4530W        W20714   5.020  16.295  13.202  0.1357 -0.0437  0.3447
 4531W        W20715  11.470  10.037  15.728 -0.2025 -0.2544  0.2063
 4532W        W20716  14.899  10.235   2.101 -0.1131  0.0347 -0.0766
 4533W        W20717   6.303  11.513  12.494  0.0271  0.0716  0.1005
 4534W        W20718   2.645   2.645  12.108  0.2449  0.2296 -0.5050
 4535W        W20719  15.989  13.919  11.933  0.0829 -0.0631 -0.2261
 4536W        W20720  14.186   0.736   1.021  0.3279  0.1511  0.2439
 4537W        W20721   5.127  13.364   0.143  0.0400 -0.2121  0.0129
 4538W        W20722  12.954   7.870  16.694 -0.0086 -0.1272  0.0204
 4539W        W20723  15.997  12.523   4.092 -0.1556  0.0971 -0.1188
 4540W        W20724   9.410  15.946   2.070  0.0518  0.0993 -0.1280
 4541W        W20725  10.379  12.663  15.243 -0.1697 -0.0080 -0.1876
 4542W        W20726   0.184   7.811  15.793  0.0271  0.0048 -0.2143
 4543W        W20727   0.485   2.401   2.908  0.1006 -0.1226 -0.0979
 4544W        W20728   2.734  17.449  16.267 -0.0032  0.3575  0.1005
 4545W        W20729   9.866  17.355   0.064 -0.0280 -0.0911  0.1015
 4546W        W20730   3.075   9.189  15.355  0.1772  0.0207  0.0585
 4547W        W20731  16.666   3.749  14.191  0.1289 -0.1105  0.1982
 4548W        W20732   9.562   5.279   2.925 -0.1684 -0.2575  0.1618
 4549W        W20733  17.899   2.443  14.397 -0.0807 -0.1566  0.1382
 4550W        W20734  16.649  13.123  13.761  0.0828 -0.2271 -0.1329
 4551W        W20735  15.226  14.875  12.972  0.0936 -0.2266 -0.1731
 4552W        W20736  14.257   9.038  12.831 -0.5329  0.0594  0.0116
 4553W        W20737  12.239   3.268  16.151 -0.1905 -0.2237  0.3748
 4554W        W20738  16.012   8.187   0.527 -0.0154  0.2379 -0.0504
 4555W        W20739   4.836  10.477  15.149 -0.2372  0.1638 -0.5009
 4556W        W20740  16.700   3.748  11.943  0.1479 -0.2144  0.2186
 4557W        W20741   1.631   9.945   2.276 -0.2662 -0.2805  0.1067
 4558W        W20742  14.389  13.560  11.063  0.1090  0.2352  0.0066
 4559W        W20743  12.004   5.584  15.914  0.0248  0.1410 -0.0502
 4560W        W20744   9.424   6.046   1.823 -0.1061  0.0517  0.1272
 4561W        W20745  17.174   1.135   0.203 -0.2819  0.4765 -0.2093
 4562W        W20746   8.938   1.527  16.683  0.0531 -0.2066  0.2517
 4563W        W20747  11.947   7.060   3.143  0.4764 -0.1647 -0.2525
 4564W        W20748  11.010  10.178  12.969  0.1934  0.0250  0.5365
 4565W        W20749  12.152   7.299  15.838  0.0326 -0.3276  0.1610
 4566W        W20750   3.518   8.831  12.533 -0.0323 -0.1214  0.1499
 4567W        W20751  17.987  16.619   3.140  0.0012 -0.1758 -0.0149
 4568W        W20752   9.263   1.077   2.503 -0.3166  0.0519 -0.0976
 4569W        W20753   6.405   6.651  16.143 -0.0548  0.2153 -0.1248
 4570W        W20754   1.946  16.180   4.930 -0.0282  0.1330 -0.0427
 4571W        W20755  17.444  12.713   2.923 -0.0731 -0.3029  0.4139
 4572W        W20756   0.674   5.062   3.048  0.0613  0.3226 -0.0406
 4573W        W20757   4.032   5.373   1.318  0.1413 -0.2928  0.0546
 4574W        W20758   6.931   2.626  11.754 -0.1640 -0.0514  0.3409
 4575W        W20759   6.278  15.200  12.417 -0.0929  0.3087 -0.1302
 4576W        W20760  13.131   8.643   3.948  0.1282  0.3951  0.2125
 4577W        W20761   3.454   5.018   2.873  0.1097  0.1323  0.0296
 4578W        W20762   6.545   0.630  12.961 -0.1071  0.1417  0.2641
 4579W        W20763   9.076   3.523  14.194 -0.2194 -0.0804 -0.0223
 4580W        W20764   6.665   6.191   0.754  0.0853 -0.0293 -0.0312
 4581W        W20765   1.322   5.486   5.778 -0.1035  0.0613  0.0647
 4582W        W20766  17.598  12.436   0.287 -0.0920  0.2317  0.1187
 4583W        W20767  14.561  17.846   0.784  0.0886  0.2188 -0.2519
 4584W        W20768   3.012   7.887   4.275 -0.1793 -0.1547  0.0566
 4585W        W20769  17.680  14.424  11.311 -0.2255 -0.0419  0.0271
 4586W        W20770   9.734  13.510   3.795 -0.0998  0.0374 -0.4462
 4587W        W20771   3.084   8.256   1.517 -0.1426 -0.1803  0.0659
 4588W        W20772   1.549   7.058   5.142  0.1176 -0.2583  0.0523
 4589W        W20773  10.603   6.332  13.537 -0.0344  0.0304  0.1237
 4590W        W20774   0.235  13.870  13.635 -0.1096  0.1921 -0.0965
 4591W        W20775   4.987  13.721   5.262  0.2375  0.0538 -0.1164
 4592W        W20776  12.558  17.439  11.917 -0.0019 -0.0856 -0.2838
 4593W        W20777   5.834  12.072  11.862  0.1972 -0.0654  0.0605
 4594W        W20778  16.479   3.452   4.155  0.1204 -0.1622 -0.2330
 4595W        W20779   5.621   4.015   0.612 -0.0926  0.0021  0.1013
 4596W        W20780   0.907   0.358  12.630  0.1987  0.0765 -0.3627
 4597W        W20781  17.807   6.091   4.667 -0.0745  0.0312  0.1122
 4598W        W20782   6.728   0.104  12.815 -0.0695  0.1455 -0.1247
 4599W        W20783  12.779   3.241  16.051 -0.2330  0.0663 -0.1485
 4600W        W20784   3.129   3.934   2.581 -0.1425  0.2062  0.2157
 4601W        W20785  16.971   4.852   3.620 -0.3283 -0.4057  0.4122
 4602W        W20786   0.234   8.683   1.030 -0.0626  0.1817  0.0892
 4603W        W20787   2.632   0.103  13.416 -0.0705 -0.1551 -0.0019
 4604W        W20788  13.021   0.047   1.953 -0.2342  0.1782 -0.1155
 4605W        W20789  17.165  10.962   3.881  0.2770 -0.1217 -0.0880
 4606W        W20790   9.993  11.264  11.485 -0.1136 -0.3587 -0.0669
 4607W        W20791  13.330   8.575  14.886 -0.0788  0.0035 -0.0851
 4608W        W20792   2.659  17.928   5.806  0.0967 -0.0222 -0.1833
 4609W        W20793  14.947  14.454  15.773 -0.0485 -0.0946 -0.1786
 4610W        W20794   6.673  14.544   3.790  0.2017 -0.1302  0.1259
 4611W        W20795  15.509   8.459   2.230 -0.0184  0.2495  0.3783
 4612W        W20796   7.791  10.351   4.007 -0.5256 -0.2765  0.1756
 4613W        W20797  15.493   3.672  16.298  0.0265  0.2581 -0.2083
 4614W        W20798  14.300  13.502  13.397  0.0253 -0.0321  0.0942
 4615W        W20799   9.281  15.203  12.533 -0.0005  0.0564 -0.1294
 4616W        W20800  17.776  17.021  12.802 -0.2457  0.1392 -0.1611
 4617W        W20801   8.347   5.607  14.386  0.3402  0.1154 -0.2740
 4618W        W20802  10.402   7.658   0.404  0.0854  0.0498  0.1523
 4619W        W20803   9.904   3.786   2.415 -0.0762 -0.3189  0.2320
 4620W        W20804  14.906   3.390   5.345  0.0272 -0.0093  0.5217
 4621W        W20805  14.573  14.009  12.081 -0.0012  0.0084  0.0664
 4622W        W20806   3.124  16.126   4.923 -0.1776 -0.2236  0.1576
 4623W        W20807   0.200  11.132   2.947  0.2196 -0.0295 -0.0025
 4624W        W20808  14.822   0.093   1.106  0.1921  0.2205 -0.0500
 4625W        W20809   8.772  17.438   1.270 -0.1620  0.0733 -0.0535
 4626W        W20810  14.708   4.765   5.023  0.1011  0.2012 -0.2191
 4627W        W20811   7.553  12.670   3.079 -0.0350 -0.1781 -0.0690
 4628W        W20812   2.028  17.152  14.768 -0.2606 -0.1638 -0.0971
 4629W        W20813   8.544   5.573  14.914 -0.3406  0.1781  0.1079
 4630W        W20814  11.145   8.596   1.116  0.1146 -0.0966 -0.0654
 4631W        W20815   9.388  12.994   1.313 -0.0815  0.0498  0.0661
 4632W        W20816   5.578  13.045   3.850 -0.2916 -0.0788  0.0363
 4633W        W20817   2.553   3.536   4.265 -0.0339  0.1169  0.0067
 4634W        W20818   3.399  14.063  12.560 -0.0275  0.0481 -0.1079
 4635W        W20819  12.155   9.303   5.608 -0.1642 -0.0942  0.0114
 4636W        W20820  16.549   1.567   0.842  0.1910  0.1618 -0.0490
 4637W        W20821   4.577  11.797  15.453  0.0469  0.2183  0.1942
 4638W        W20822   1.205  17.076   2.888 -0.0360 -0.1225  0.0151
 4639W        W20823  10.923  12.053  14.717 -0.1419 -0.0302 -0.0057
 4640W        W20824  15.281   9.413   4.217  0.1705 -0.1215  0.2919
 4641W        W20825  15.833   5.762  14.746  0.1811  0.1507  0.3014
 4642W        W20826  11.963  14.885   5.306  0.2151  0.0086 -0.1837
 4643W        W20827   2.389   8.096   3.383  0.0920 -0.3348  0.1004
 4644W        W20828   8.565  17.220   5.816 -0.0073  0.1788  0.0072
 4645W        W20829  15.155   4.405  11.961 -0.1368  0.0845  0.0941
 4646W        W20830  15.561  14.489  13.152 -0.3214 -0.0714 -0.1644
 4647W        W20831   7.195  11.187   6.677  0.0090  0.1908  0.1122
 4648W        W20832   8.681  10.015   1.089 -0.1524 -0.2464  0.1902
 4649W        W20833  11.325  10.537   3.379  0.0295 -0.0294 -0.0557
 4650W        W20834   3.754  10.450   1.473  0.1947  0.2067 -0.0980
 4651W        W20835  11.032  10.472   4.261  0.1615  0.0188  0.2203
 4652W        W20836   4.144   4.319   2.643 -0.3105 -0.0958 -0.3474
 4653W        W20837   7.113   3.991  13.972  0.0847  0.3149 -0.0643
 4654W        W20838   6.974  10.270   2.678 -0.0984  0.2796  0.0098
 4655W        W20839   0.482   2.664  13.532  0.1291 -0.1909 -0.2307
 4656W        W20840   7.601   8.926  14.617  0.2230 -0.0179  0.1285
 4657W        W20841   4.018   9.745   5.761 -0.0652 -0.1992  0.0305
 4658W        W20842   6.883   2.731  16.431  0.3581  0.2238 -0.1118
 4659W        W20843   1.973  17.353   3.234  0.1207 -0.0312  0.3127
 4660W        W20844  15.243  14.370  15.342 -0.0482 -0.0505  0.0791
 4661W        W20845  17.264  14.768  16.026 -0.1420 -0.1749  0.2161
 4662W        W20846  12.421   2.272   4.383 -0.1028 -0.0400 -0.2812
 4663W        W20847  13.213   8.009  11.618  0.1052  0.2231  0.0723
 4664W        W20848  12.468   8.319   2.689 -0.0547 -0.0459  0.2017
 4665W        W20849   2.232   9.722  15.469 -0.1713  0.2754 -0.0399
 4666W        W20850   4.024  10.247  13.185  0.0634  0.1484  0.0820
 4667W        W20851   4.994   1.545  13.858 -0.0097 -0.2035 -0.0054
 4668W        W20852   4.484  10.866   5.136 -0.1445 -0.1800 -0.0707
 4669W        W20853   3.165   7.121   2.664 -0.1777 -0.0318 -0.1540
 4670W        W20854   2.042   0.507  15.282  0.0767 -0.2537  0.0386
 4671W        W20855   0.289   6.977   2.257 -0.0720  0.2253  0.0354
 4672W        W20856  15.799  13.805  16.063 -0.0752 -0.2013 -0.0288
 4673W        W20857  13.694   0.782   2.867  0.1286  0.0780 -0.1796
 4674W        W20858  11.024   3.454   0.019 -0.0543  0.1571 -0.0819
 4675W        W20859   2.516   9.626   1.730 -0.1642  0.0443 -0.0787
 4676W        W20860   7.859  14.588   0.215 -0.4035  0.0041  0.0070
 4677W        W20861   2.633  10.961   6.371 -0.0842 -0.3156 -0.0167
 4678W        W20862   6.355  11.329   5.368 -0.1521  0.1120  0.0944
 4679W        W20863   3.493   6.949  13.366  0.2226  0.1854 -0.2780
 4680W        W20864  13.933   5.986   2.501 -0.2417  0.0222  0.2608
 4681W        W20865   6.077  15.276  15.051 -0.0581 -0.0845 -0.0562
 4682W        W20866  15.684  16.399  16.645  0.0072  0.3076 -0.2188
 4683W        W20867   2.395  12.075  14.848 -0.3286 -0.3034 -0.1757
 4684W        W20868   2.791   6.994   6.007 -0.2422  0.2465  0.3142
 4685W        W20869  11.109  15.438  14.872  0.1860 -0.0264  0.2827
 4686W        W20870  12.789   0.400  13.505 -0.5358  0.3731 -0.2210
 4687W        W20871   0.933  10.461  11.404 -0.2584 -0.0670  0.0267
 4688W        W20872  12.537  16.977   4.599 -0.0835  0.2225  0.1179
 4689W        W20873  14.938  11.133  16.264  0.0155 -0.0885  0.1386
 4690W        W20874  16.242  16.125  15.686  0.3362 -0.0915 -0.0683
 4691W        W20875   2.723  16.855   1.770  0.2521  0.1427  0.1746
 4692W        W20876   1.414   1.431   4.509  0.1328  0.3929  0.3151
 4693W        W20877  14.016   7.803  14.477 -0.0221 -0.0597  0.2553
 4694W        W20878  14.145   1.474  14.908  0.1088 -0.2336 -0.2161
 4695W        W20879  13.952  10.246  12.650  0.0152 -0.0033  0.1418
 4696W        W20880  17.290   7.649  14.184  0.0889 -0.0085 -0.0874
 4697W        W20881  12.528  16.393  15.566  0.0182  0.0011 -0.0346
 4698W        W20882   7.423  15.487  13.235  0.0068  0.2429 -0.0323
 4699W        W20883   6.890   9.365  14.893  0.2018  0.2118 -0.3462
 4700W        W20884   9.263   1.470   0.518 -0.0216  0.3671  0.0438
 4701W        W20885  11.142   3.725   2.116  0.2115  0.0289 -0.0825
 4702W        W20886   5.868   4.600   5.245 -0.0729 -0.1952  0.0150
 4703W        W20887  15.604   5.828   0.357  0.0397  0.1244  0.0799
 4704W        W20888   0.839   2.172   3.369  0.0223  0.1858  0.3704
 4705W        W20889   4.533  11.527  12.851 -0.1162 -0.1740  0.0630
 4706W        W20890   3.626   1.088  12.121 -0.2951 -0.0879  0.0127
 4707W        W20891  17.356   0.888  16.105 -0.0086 -0.1161  0.0012
 4708W        W20892  13.084  15.062   2.887  0.1605  0.0439 -0.1191
 4709W        W20893  16.459   3.082   3.812 -0.4876  0.0272  0.0668
 4710W        W20894   2.953   9.877  14.818  0.1997 -0.0787  0.0988
 4711W        W20895   4.023   8.735  14.870 -0.0333  0.3815 -0.2535
 4712W        W20896   2.006   4.174   4.006  0.2284 -0.1797 -0.0496
 4713W        W20897   7.174   2.696   0.741  0.3349  0.0439 -0.0840
 4714W        W20898  17.465   8.962  11.284 -0.0716  0.0281 -0.2529
 4715W        W20899  10.999   2.222  15.869 -0.1734 -0.1438  0.0601
 4716W        W20900  16.033   0.932  11.891 -0.1086  0.2289 -0.0233
 4717W        W20901  16.412   1.104   2.926  0.2597  0.1118  0.0388
 4718W        W20902   2.376   9.556  16.134  0.3819 -0.5293 -0.0024
 4719W        W20903  13.764  14.025  16.042 -0.2328 -0.0873 -0.1439
 4720W        W20904  15.944  17.033   3.719  0.0372 -0.2060  0.0798
 4721W        W20905  17.498   3.864  15.976  0.1034 -0.0768 -0.0178
 4722W        W20906  13.244  13.406   2.575 -0.0243 -0.1451 -0.0629
 4723W        W20907  17.505   3.730   1.395  0.0430  0.4157  0.2416
 4724W        W20908  17.356  14.269  13.491  0.2210  0.1467 -0.1888
 4725W        W20909  14.904   4.036  12.874  0.0193  0.0602 -0.2279
 4726W        W20910   9.368  13.612   5.178 -0.1426  0.2376 -0.4217
 4727W        W20911   1.534   5.665   3.801  0.1059  0.1980  0.0733
 4728W        W20912  12.150  14.941  16.465  0.0281 -0.0149  0.1172
 4729W        W20913   1.815   3.889   1.415 -0.1521 -0.0037 -0.0168
 4730W        W20914   7.588  14.721   0.987 -0.0157  0.2875  0.0200
 4731W        W20915  15.677   8.805  14.534 -0.2288 -0.2976 -0.1061
 4732W        W20916   0.974   3.269   4.367  0.1217 -0.3165  0.4724
 4733W        W20917  13.392  11.398   2.017  0.0655  0.0282 -0.2708
 4734W        W20918   6.105  17.778   0.103 -0.2679 -0.0243 -0.0144
 4735W        W20919  11.908   8.085   2.808 -0.0811 -0.0529  0.1007
 4736W        W20920  16.246   8.937   1.156  0.2374 -0.0111 -0.0417
 4737W        W20921   9.172   0.486   4.965 -0.0783 -0.1972 -0.0688
 4738W        W20922  13.602   7.899   1.537 -0.2125 -0.0022  0.1401
 4739W        W20923   9.705  13.872  14.327  0.1105  0.0406  0.3191
 4740W        W20924   5.818   3.155  13.631 -0.0260 -0.0723 -0.1516
 4741W        W20925   9.544   4.884  10.787 -0.0189 -0.0407 -0.0884
 4742W        W20926  15.312   6.098   1.068 -0.1004 -0.1466 -0.0770
 4743W        W20927  10.944  13.802  13.421 -0.2152 -0.0693  0.1084
 4744W        W20928   3.577  15.415  13.911  0.1127  0.0138 -0.1173
 4745W        W20929  14.401   9.351   4.344 -0.0150  0.0712 -0.1309
 4746W        W20930  12.681   1.415  12.705  0.5238 -0.0321  0.0307
 4747W        W20931   9.077  17.606   2.231  0.0800 -0.0187 -0.1439
 4748W        W20932   1.016   9.362   3.131  0.1324 -0.0307  0.1161
 4749W        W20933   0.398   8.612   6.101  0.1179  0.2260  0.0465
 4750W        W20934   8.882   3.872  16.385  0.2864  0.0857 -0.2825
 4751W        W20935  13.986  15.784   1.700  0.2463  0.0816 -0.2169
 4752W        W20936  12.232  12.558  12.626  0.1133  0.0103  0.0395
 4753W        W20937  10.878   4.058  15.139 -0.0844  0.1498 -0.0364
 4754W        W20938  12.543   5.296  13.234  0.2608 -0.1871  0.0664
 4755W        W20939  16.769   9.201  12.525  0.1185 -0.1544  0.2632
 4756W        W20940   3.760   2.820  14.633 -0.2620  0.0533 -0.0838
 4757W        W20941   9.416   0.044   0.659  0.0603  0.0195 -0.1791
 4758W        W20942  17.414   8.180   3.738  0.0632  0.2637 -0.1326
 4759W        W20943   6.563  11.674   5.069 -0.0339 -0.0258  0.1932
 4760W        W20944   6.521  16.413  12.129 -0.0891 -0.1302  0.0998
 4761W        W20945   7.214  16.800  13.563  0.1332 -0.0275  0.0259
 4762W        W20946  15.920   4.293  14.702 -0.1191  0.0915 -0.2069
 4763W        W20947  16.409   3.547   2.898 -0.1425 -0.3287  0.0326
 4764W        W20948   7.145   9.066  16.586  0.1360 -0.0213 -0.0330
 4765W        W20949  14.421   7.563   1.296 -0.2573  0.3703 -0.1646
 4766W        W20950  16.871   3.204  15.478  0.2122  0.2095  0.0197
 4767W        W20951   5.639   2.477   2.194 -0.2255  0.2316  0.0436
 4768W        W20952   6.994   7.567  13.483  0.0841  0.0301  0.1920
 4769W        W20953   9.197   2.790   2.422 -0.0737 -0.0565 -0.2741
 4770W        W20954   8.337   2.398  13.189  0.1959  0.0113 -0.1004
 4771W        W20955  15.292  13.081  13.430  0.1005 -0.0461  0.0663
 4772W        W20956   8.691  16.132  16.514  0.2829  0.0303  0.1074
 4773W        W20957  11.959  13.445   3.032 -0.0944  0.1697 -0.1298
 4774W        W20958   3.347   0.070   1.543 -0.2053 -0.0462 -0.2165
 4775W        W20959  13.972  15.526   5.239 -0.1040  0.1279 -0.0687
 4776W        W20960   0.405   9.466   5.037 -0.1524  0.0417  0.0527
 4777W        W20961  14.200   3.262  12.094 -0.2157  0.1865  0.1155
 4778W        W20962   5.538  17.964  13.579  0.1765 -0.3697  0.2275
 4779W        W20963  12.594  13.592  11.670  0.0982 -0.0641  0.1431
 4780W        W20964   2.839   6.961   3.818 -0.0887  0.4624  0.0050
 4781W        W20965  12.733   7.967  15.015  0.0117  0.0628  0.2089
 4782W        W20966   9.691   7.026  14.671 -0.0482 -0.0367 -0.1963
 4783W        W20967   1.416  16.726   3.813  0.0981 -0.4841 -0.3347
 4784W        W20968   2.021   7.753  12.546  0.1158  0.1760 -0.0539
 4785W        W20969  10.263  15.910   2.858 -0.0721 -0.0060 -0.0776
 4786W        W20970  12.806  17.795  16.346  0.2775 -0.2592  0.2906
 4787W        W20971  10.600   5.010   1.878  0.0671 -0.2946 -0.0437
 4788W        W20972   5.019   3.239  16.279  0.1881 -0.2179  0.0679
 4789W        W20973   7.165   9.578   5.111  0.0221  0.1893  0.0817
 4790W        W20974  16.959   4.852   5.391  0.1031  0.1133 -0.1015
 4791W        W20975   9.498   7.269   0.619 -0.0716  0.2547 -0.0727
 4792W        W20976   3.618   5.547  11.644 -0.3888 -0.1721  0.0009
 4793W        W20977   6.144   0.186   0.918  0.1104  0.1712 -0.1017
 4794W        W20978  16.742   5.554   3.501  0.0203  0.0670 -0.0162
 4795W        W20979  15.687  10.284   1.131 -0.2971 -0.0511  0.0328
 4796W        W20980   9.649   6.347   0.023 -0.3925  0.2301 -0.1719
 4797W        W20981   7.413   8.043  12.170 -0.1657  0.1426  0.2031
 4798W        W20982   6.245  11.417   4.669 -0.0620 -0.2573  0.2404
 4799W        W20983   8.395  12.113  12.955 -0.4741  0.0575 -0.4213
 4800W        W20984  10.024   0.728  16.455  0.0343 -0.1149  0.1426
 4801W        W20985   3.844   0.663  13.926  0.2733  0.1645  0.0462
 4802W        W20986  11.155   7.184  14.172  0.0169 -0.1126 -0.0583
 4803W        W20987   0.871  12.111   1.251  0.3761 -0.2065  0.1158
 4804W        W20988   9.778  11.470   0.009  0.1486  0.2087  0.0759
 4805W        W20989  11.507  11.974  11.399 -0.0344  0.5069 -0.2203
 4806W        W20990   4.539  11.211   1.030  0.1180 -0.1370 -0.0471
 4807W        W20991   2.664  16.742   5.530 -0.4825  0.0970  0.1077
 4808W        W20992   4.622   6.379  14.437 -0.3734 -0.0690  0.0112
 4809W        W20993  14.028   0.053  16.109 -0.0599 -0.2750  0.1416
 4810W        W20994  17.235   9.046   1.839  0.1171 -0.0583  0.0131
 4811W        W20995   0.801   0.025   5.929  0.4513  0.0497  0.0422
 4812W        W20996   9.779   8.339  13.659  0.3614  0.2192 -0.0652
 4813W        W20997   8.365   3.727   1.379 -0.1083 -0.0624 -0.2339
 4814W        W20998  13.689   5.289   3.682 -0.1216 -0.1868  0.1851
 4815W        W20999   9.654  13.509   5.711 -0.2262 -0.2058 -0.0816
 4816W        W21000   1.952  12.482   2.240 -0.0952 -0.0765 -0.4380
 4817W        W21001  13.789  11.580  15.125 -0.0573  0.1348  0.1202
 4818W        W21002   7.932  17.154   4.620 -0.0378  0.0523 -0.3043
 4819W        W21003   5.912  10.789   2.221  0.0803 -0.1726 -0.0716
 4820W        W21004  11.251  11.712  16.096 -0.1518 -0.0286  0.0517
 4821W        W21005  17.251  13.938   5.327  0.0271  0.0113 -0.0284
 4822W        W21006   5.497  10.547  12.704 -0.0570  0.1521 -0.0474
 4823W        W21007  13.260  14.081   0.943  0.2874 -0.2566 -0.0250
 4824W        W21008   7.737   3.049   3.104  0.2229  0.0057  0.4065
 4825W        W21009  13.379   1.638   5.748  0.0033 -0.0371 -0.1959
 4826W        W21010   9.678   7.443   1.750  0.0948 -0.0690  0.0261
 4827W        W21011  11.703  15.334   0.824 -0.1549  0.0783 -0.0376
 4828W        W21012   0.286  12.262  15.806 -0.1634  0.0853  0.2521
 4829W        W21013   6.191   2.955  15.838  0.0946 -0.0195  0.0830
 4830W        W21014   5.121   1.867  12.877  0.1139 -0.0220 -0.0092
 4831W        W21015  17.178   8.219   4.859  0.1476 -0.1875 -0.1470
 4832W        W21016  16.776   4.641  16.529 -0.2011 -0.0133 -0.0207
 4833W        W21017  10.161   5.058   3.784 -0.2144 -0.0552 -0.0206
 4834W        W21018  14.942  13.458   0.122  0.3288 -0.1535  0.0286
 4835W        W21019  15.213  14.962  14.130  0.1586 -0.2690 -0.1676
 4836W        W21020   6.832  11.175  13.473 -0.1120 -0.5147  0.2230
 4837W        W21021  12.820  11.271   4.843  0.0454  0.0432 -0.4416
 4838W        W21022  13.428   2.027  13.851 -0.1545 -0.1250  0.3528
 4839W        W21023  15.013   4.242  14.705  0.4457 -0.2095  0.2069
 4840W        W21024   4.846  11.220  14.677 -0.0623  0.0243 -0.1235
 4841W        W21025  10.525  17.774   1.414 -0.0224  0.0202  0.1702
 4842W        W21026   1.710   9.438   1.262  0.1079 -0.1474 -0.0051
 4843W        W21027   8.047   0.889   1.119 -0.0424 -0.1396  0.0271
 4844W        W21028   2.099  11.939  10.483  0.0098  0.0303 -0.4596
 4845W        W21029   7.109   2.176   4.717  0.0301 -0.0192 -0.0778
 4846W        W21030   7.683   2.342   4.231  0.1770 -0.3386 -0.0978
 4847W        W21031  15.003   7.243  13.821  0.2735  0.1534  0.4505
 4848W        W21032   4.796   2.072  14.251 -0.1665 -0.0759  0.1565
 4849W        W21033  11.652   0.070   4.883  0.1277  0.2605  0.0680
 4850W        W21034   8.174   0.666  16.356 -0.3624  0.2487  0.0543
 4851W        W21035  10.072   5.505   5.145  0.2230 -0.0353 -0.5767
 4852W        W21036   2.217   7.824  15.781 -0.1388  0.1828 -0.1907
 4853W        W21037  16.071   2.319  16.131 -0.0281 -0.0853 -0.2260
 4854W        W21038  15.988   0.407  15.632  0.1568  0.0441 -0.4059
 4855W        W21039   3.391   4.795  12.936  0.0050  0.2586 -0.0822
 4856W        W21040  10.313  16.580  10.933 -0.1539  0.2396  0.1487
 4857W        W21041   7.925   3.948  13.597 -0.0923 -0.2516 -0.1363
 4858W        W21042  15.803  16.633   5.682 -0.1813 -0.1700 -0.1669
 4859W        W21043  13.776  10.453  13.735 -0.1649  0.1444 -0.3784
 4860W        W21044   6.116  11.824   1.598 -0.0628 -0.0106 -0.4158
 4861W        W21045   0.019   9.751  14.366 -0.3185 -0.2088  0.0122
 4862W        W21046  14.818  12.841  13.012 -0.1623  0.3431 -0.0071
 4863W        W21047  10.637   8.634   1.416 -0.0456 -0.1006 -0.1076
 4864W        W21048  13.109   1.848  11.816 -0.1268  0.1482 -0.1881
 4865W        W21049  11.862  15.013   1.809  0.1442 -0.0703  0.2043
 4866W        W21050   8.280   7.924  14.270  0.1246  0.0717 -0.1325
 4867W        W21051  13.145  14.781   3.951  0.0228 -0.0728  0.0592
 4868W        W21052  11.067   4.398   4.418 -0.3283 -0.1523  0.0256
 4869W        W21053  17.484  15.130  13.521  0.1846  0.2584  0.1350
 4870W        W21054  14.471  15.673  14.459 -0.2411 -0.0075 -0.2128
 4871W        W21055   8.961   4.249  14.983  0.2483 -0.4295  0.1132
 4872W        W21056   9.828   6.199   2.086 -0.0822  0.0956 -0.1531
 4873W        W21057   1.364   5.392  15.299 -0.2605 -0.0087 -0.0206
 4874W        W21058   4.667   5.744   5.737  0.0952  0.3581 -0.1529
 4875W        W21059  13.694  12.843   4.264 -0.0781 -0.0355 -0.0119
 4876W        W21060  17.345   9.579   0.123  0.0603 -0.2730  0.0080
 4877W        W21061  14.004   5.914   5.181  0.1235  0.3826 -0.1617
 4878W        W21062   0.977   9.053   3.928 -0.0801 -0.2582  0.0141
 4879W        W21063  11.297   0.964  14.615  0.1611  0.2686  0.2560
 4880W        W21064   2.318  13.184   0.044  0.1430 -0.0806  0.2370
 4881W        W21065   5.360   3.359   0.510  0.0140 -0.0342  0.2822
 4882W        W21066  12.783  15.089   3.771  0.2262 -0.0519 -0.1700
 4883W        W21067  17.185  12.023  16.307  0.2091 -0.0238  0.0004
 4884W        W21068   7.729  12.389  15.956  0.0653  0.0073 -0.0703
 4885W        W21069  10.403  16.227  14.499 -0.3105 -0.0508  0.3395
 4886W        W21070   9.672   2.622  16.045  0.2426 -0.1249 -0.2828
 4887W        W21071   6.081   8.079   5.305 -0.1411 -0.2894  0.0426
 4888W        W21072  16.320   8.101  15.531 -0.0260 -0.2327  0.3478
 4889W        W21073  11.693  13.913   5.412  0.1924 -0.0640 -0.0824
 4890W        W21074   3.589   4.120   2.631  0.2119 -0.0128  0.0139
 4891W        W21075   4.872  15.539   2.454  0.1101 -0.0104  0.1595
 4892W        W21076   6.489   6.853   3.222  0.0188 -0.0305  0.3720
 4893W        W21077   5.636  15.351  13.463 -0.0165 -0.1588 -0.2576
 4894W        W21078   2.545   5.018  14.940  0.0701  0.0350 -0.2205
 4895W        W21079   7.686  12.652   2.133  0.1332  0.1592 -0.1739
 4896W        W21080   6.024   4.051  14.508  0.2194 -0.1795 -0.1026
 4897W        W21081  16.539   7.112   1.607  0.2575  0.0016 -0.2307
 4898W        W21082   9.838  17.746   0.808 -0.2338 -0.1515  0.0637
 4899W        W21083  12.586   0.350   0.401  0.2005 -0.1620 -0.1466
 4900W        W21084   2.801   7.970   1.105  0.0826 -0.1028  0.0115
 4901W        W21085  11.297   9.883   5.776 -0.3396 -0.0126  0.0516
 4902W        W21086  10.243  11.093  13.849  0.5298 -0.1364 -0.2145
 4903W        W21087   8.443  10.276   3.649 -0.0544  0.1907  0.0227
 4904W        W21088  14.128  17.983  15.282  0.1374 -0.0297  0.0332
 4905W        W21089   7.658   3.072   2.212 -0.0929 -0.0349 -0.1010
 4906W        W21090   9.060  10.583   3.477  0.3172  0.1923 -0.2305
 4907W        W21091   7.722   6.798  14.987  0.2681  0.0822 -0.2624
 4908W        W21092   2.008   6.085  13.476 -0.0643 -0.2486 -0.0929
 4909W        W21093   8.071  14.476   3.680  0.2986  0.0413 -0.0307
 4910W        W21094   9.532  12.655   0.606 -0.1002 -0.0091  0.0846
 4911W        W21095  14.670   7.023  11.973  0.0879  0.0597 -0.0937
 4912W        W21096  14.444   6.008   2.522 -0.0861 -0.0568 -0.2914
 4913W        W21097   3.920  15.994   4.350 -0.0827  0.0076  0.0521
 4914W        W21098  13.633   3.529   5.773  0.0317 -0.0444  0.2604
 4915W        W21099   2.550   3.134  13.968 -0.1797 -0.0004  0.1297
 4916W        W21100   5.568   7.244   1.239 -0.1404  0.0098  0.1250
 4917W        W21101  16.327   9.832   2.871  0.1021 -0.1672  0.0280
 4918W        W21102  13.951   0.502  11.720 -0.2724 -0.0906 -0.2703
 4919W        W21103  13.197  17.870   3.163  0.0728 -0.1890 -0.1139
 4920W        W21104  12.910  17.576  15.474  0.3525 -0.1223  0.0308
 4921W        W21105  13.476   1.037  13.158  0.0414 -0.0656  0.2066
 4922W        W21106   7.231   9.367   1.544 -0.1743  0.1450  0.1733
 4923W        W21107   4.380  16.615   0.622 -0.1703  0.0492 -0.1374
 4924W        W21108  11.666   0.658   1.848  0.1491 -0.2656  0.1812
 4925W        W21109   7.318   6.033   6.353  0.2039 -0.0803 -0.2385
 4926W        W21110  17.071  13.019   2.520 -0.1411  0.1317  0.0631
 4927W        W21111   7.261  13.871  15.056  0.0709  0.1481 -0.1739
 4928W        W21112  10.218  16.181  15.872 -0.0031  0.3155  0.1598
 4929W        W21113  10.757   2.580  11.832  0.0202  0.1765  0.2777
 4930W        W21114  11.109   9.065  13.005 -0.0868  0.1257  0.1106
 4931W        W21115  17.655  17.717  15.231  0.0183  0.1577  0.0966
 4932W        W21116  17.023  16.618   0.261 -0.1702 -0.1567 -0.3174
 4933W        W21117  14.760  16.584  12.360 -0.1167 -0.0801  0.3531
 4934W        W21118  10.787  12.049   5.166  0.1402 -0.0433 -0.1354
 4935W        W21119  12.044  15.825   4.853  0.2919 -0.2998 -0.0954
 4936W        W21120  10.833  13.094   0.428  0.1673 -0.0798  0.2262
 4937W        W21121  13.096  11.054  13.325 -0.1550 -0.0534 -0.0564
 4938W        W21122  10.267  16.884  11.438 -0.1264 -0.0800 -0.3275
 4939W        W21123  15.539   3.949   0.689  0.1299  0.0383  0.0398
 4940W        W21124   8.997   0.614   2.290  0.1227  0.0498 -0.0814
 4941W        W21125  14.065  15.377  15.838  0.0062 -0.0357  0.0752
 4942W        W21126   0.053   6.412   3.571 -0.2966 -0.1987 -0.2454
 4943W        W21127   5.125   1.314   1.033  0.3978 -0.1837 -0.0610
 4944W        W21128   1.239   8.053  16.263 -0.2839  0.0115  0.0259
 4945W        W21129  15.157  17.759   1.368  0.0223 -0.0175  0.0439
 4946W        W21130  16.818  15.728  14.359  0.0272 -0.0212  0.6088
 4947W        W21131  16.873   0.314  16.671 -0.0114 -0.0810  0.3145
 4948W        W21132   7.985  16.478   1.047  0.1877 -0.1780  0.1854
 4949W        W21133   1.103   5.296   2.628  0.0954  0.1558  0.2978
 4950W        W21134   2.378   9.774  16.692 -0.0277 -0.3998  0.0743
 4951W        W21135   3.724   5.626  13.622  0.1536 -0.1481 -0.1706
 4952W        W21136   0.394  10.540  12.593 -0.0654 -0.0748 -0.0345
 4953W        W21137  10.897   0.606   3.774 -0.1107 -0.1313 -0.1394
 4954W        W21138   4.661   4.005  12.815 -0.0693  0.0877 -0.2340
 4955W        W21139   2.606   8.452   1.171  0.0195  0.0191 -0.1577
 4956W        W21140   3.439   3.132   3.234  0.1210  0.0907 -0.2702
 4957W        W21141   4.460   9.111  14.285  0.1389  0.1596 -0.2545
 4958W        W21142   6.328   9.689  13.981  0.1283 -0.2761 -0.2116
 4959W        W21143   6.317   5.915   1.490  0.0449 -0.2493 -0.0009
 4960W        W21144   2.512   8.166  16.597  0.1897 -0.1893  0.0919
 4961W        W21145  17.948  17.493   4.133  0.0414  0.1593  0.0613
 4962W        W21146   8.094  15.762  14.740  0.1360 -0.1698  0.0371
 4963W        W21147   4.185  15.399  13.851 -0.0498 -0.0049  0.0180
 4964W        W21148   0.911  12.789   0.581 -0.3017 -0.1002  0.2446
 4965W        W21149   9.507  11.001  16.592  0.0130  0.1127 -0.0762
 4966W        W21150   9.621  16.400  12.857 -0.0009 -0.0633 -0.0056
 4967W        W21151   7.239  15.943   2.666 -0.0861  0.3623 -0.1187
 4968W        W21152   5.563   4.051  14.334  0.3247  0.2583 -0.0097
 4969W        W21153   2.634   6.301   1.729  0.2139  0.0987  0.1893
 4970W        W21154   9.756   4.032   4.986  0.0259  0.0254 -0.1143
 4971W        W21155  15.019  17.252   1.390  0.1834  0.0456  0.3395
 4972W        W21156   8.615  17.751   4.448  0.1096  0.2914  0.0894
 4973W        W21157  17.059   7.228  14.395 -0.2352 -0.0295  0.0687
 4974W        W21158  13.903  13.509  13.770  0.1311 -0.2340  0.0946
 4975W        W21159  10.374   6.386   3.769 -0.2740  0.0201  0.4140
 4976W        W21160   9.536   8.437   4.210  0.3616 -0.1271 -0.0992
 4977W        W21161   7.418   6.660  14.605 -0.0003 -0.1409 -0.2578
 4978W        W21162  13.454  10.967   2.322 -0.1392 -0.1828 -0.1433
 4979W        W21163  10.233  15.360   1.727  0.1594 -0.0924 -0.0837
 4980W        W21164   4.486  15.455  14.680 -0.3577 -0.1869 -0.1006
 4981W        W21165  11.657  16.785   3.354  0.0813  0.2989 -0.2871
 4982W        W21166   2.974   1.275  10.901 -0.0324  0.2128  0.0888
 4983W        W21167  15.871   1.019   5.213 -0.0360 -0.0382  0.0656
 4984W        W21168   6.193   8.320   3.826  0.2452  0.1521  0.1450
 4985W        W21169   9.644   4.474   4.819 -0.2974  0.1259 -0.2776
 4986W        W21170   8.541   2.207  12.083 -0.1951 -0.0112  0.0566
 4987W        W21171   8.027  16.296   3.169  0.1967  0.0156 -0.1034
 4988W        W21172   6.580  17.439  16.183 -0.0922 -0.1128 -0.3175
 4989W        W21173  10.075   1.258   3.734 -0.0603  0.0301 -0.1126
 4990W        W21174   9.387   6.826  14.990 -0.0716 -0.0685  0.0464
 4991W        W21175   5.160  12.334   3.331  0.1393  0.0101 -0.0470
 4992W        W21176  17.142   9.064   4.307  0.0493 -0.0552 -0.0277
 4993W        W21177  17.708   7.956  10.511 -0.1785  0.2517 -0.1847
 4994W        W21178   0.784  15.490   4.582  0.1542 -0.2800 -0.0837
 4995W        W21179  10.694   0.684   0.681 -0.1399 -0.2439 -0.1640
 4996W        W21180  16.852   7.383  11.906  0.2124  0.0199  0.0534
 4997W        W21181   8.723   3.574   4.098  0.0858 -0.1863  0.1849
 4998W        W21182  15.128   8.341   0.756  0.2700  0.1574  0.3476
 4999W        W21183  14.427   2.790  11.969  0.0305  0.0509  0.1593
 5000W        W21184  16.218  17.379  13.642  0.0649 -0.4626  0.7469
 5001W        W21185  13.831   0.397   0.874 -0.0988  0.2317  0.0132
 5002W        W21186   5.451  17.541   0.969 -0.0565  0.0848  0.1909
 5003W        W21187   8.493   6.790   3.321 -0.0235  0.1171 -0.0114
 5004W        W21188  15.246   1.095   4.352 -0.1000 -0.1154 -0.0292
 5005W        W21189  10.722  10.785   1.771  0.3347  0.0649 -0.2511
 5006W        W21190  10.242  13.222  14.337  0.0286 -0.1535 -0.1042
 5007W        W21191  10.561  15.808   1.242 -0.0803 -0.1250  0.2355
 5008W        W21192  10.123   6.219   0.038 -0.2699 -0.2711 -0.0381
 5009W        W21193   3.659   1.144   4.874  0.3023 -0.3795  0.4167
 5010W        W21194   6.468   6.750  12.802 -0.0305  0.4475 -0.1494
 5011W        W21195   2.401   1.260   2.756 -0.0592 -0.0663 -0.1510
 5012W        W21196   1.215   1.185  15.495 -0.2829 -0.0269  0.2681
 5013W        W21197   9.485   3.603   3.468 -0.0270 -0.1564  0.1501
 5014W        W21198  11.040  12.730  12.637 -0.1042  0.1060  0.0216
 5015W        W21199  15.670   2.536   1.649 -0.0327  0.0157  0.1158
 5016W        W21200   1.535   6.407  12.682  0.2575 -0.1532  0.0934
 5017W        W21201   1.603  16.829   2.516  0.0002 -0.0904 -0.1923
 5018W        W21202   4.015  12.113  12.019 -0.1254  0.0306 -0.1750
 5019W        W21203   4.476  14.574  14.356 -0.3236  0.2480  0.0748
 5020W        W21204  16.243   4.190   0.542 -0.2795 -0.0685 -0.1889
 5021W        W21205  16.705  15.657  13.362 -0.0494 -0.0063 -0.0442
 5022W        W21206  11.189   9.923  12.021  0.0484 -0.1565  0.1560
 5023W        W21207   7.780   6.229   3.869  0.1439 -0.2565  0.2508
 5024W        W21208   5.657   1.292   4.227 -0.0206 -0.6139 -0.4511
 5025W        W21209  10.253   8.608   1.901 -0.0118  0.3198 -0.0869
 5026W        W21210  14.253   3.694   5.198 -0.4610 -0.0633  0.2458
 5027W        W21211   5.356   1.693  12.470 -0.0699  0.0923 -0.0922
 5028W        W21212   6.731  12.973   5.041 -0.0649 -0.1316  0.0527
 5029W        W21213  11.478   8.039  15.691 -0.2701  0.0860  0.1636
 5030W        W21214   0.236   2.689   1.077 -0.2078  0.0610 -0.0842
 5031W        W21215   5.462  17.783  12.575 -0.1402  0.0845  0.2245
 5032W        W21216   0.660   3.787  14.891 -0.1101 -0.0417 -0.2055
 5033W        W21217  13.486   4.632   5.324 -0.4019 -0.1464 -0.0559
 5034W        W21218   0.034  16.732   1.610 -0.1232  0.2094  0.0196
 5035W        W21219   8.426  10.297   0.745 -0.0506  0.1821 -0.2330
 5036W        W21220   2.505  14.514   0.537 -0.1932  0.1395 -0.1017
 5037W        W21221  10.649  15.546  11.746  0.1837 -0.0748 -0.0069
 5038W        W21222  10.282   7.508   5.358 -0.3316  0.1333 -0.0255
 5039W        W21223  11.317  11.027   3.642  0.0545  0.2661  0.3967
 5040W        W21224  15.431  17.397   4.842  0.2330 -0.1983  0.0300
 5041W        W21225  17.527  15.518   0.557  0.1619  0.0176  0.3370
 5042W        W21226  10.284   5.316  13.331  0.0475 -0.1324  0.0862
 5043W        W21227  17.995  15.258  11.362  0.0018 -0.0159  0.2828
 5044W        W21228  17.409  15.691   4.545  0.0267  0.0682 -0.0077
 5045W        W21229  16.106   5.645  13.021 -0.2594  0.0999  0.0070
 5046W        W21230  14.531   7.836   5.468  0.2047 -0.1488  0.0380
 5047W        W21231   2.454   0.166   2.161  0.2213  0.0865 -0.0401
 5048W        W21232  13.744  13.669   5.374  0.0079  0.1799  0.0434
 5049W        W21233   2.366   0.800   1.309 -0.0052 -0.1356 -0.0011
 5050W        W21234   8.754  10.111  15.023  0.0794  0.0497 -0.0746
 5051W        W21235   1.842  13.033   3.088 -0.1432  0.0420  0.0016
 5052W        W21236   7.284  11.966  16.067  0.3020  0.0994 -0.1509
 5053W        W21237   0.004   3.865  15.408  0.1582  0.0688  0.0934
 5054W        W21238  14.901  11.731  13.713  0.1731 -0.3771 -0.0302
 5055W        W21239   3.808  10.502   2.476 -0.0947 -0.0586  0.0742
 5056W        W21240  17.386  12.701   5.189 -0.1926  0.0485  0.1157
 5057W        W21241  17.157   7.687   4.730  0.1753 -0.0399 -0.3030
 5058W        W21242  12.806  17.963   0.643  0.2102  0.0735 -0.1545
 5059W        W21243   1.756  17.208  14.123 -0.2582 -0.2959  0.1816
 5060W        W21244   5.415  16.762   2.405 -0.1371 -0.0919 -0.0585
 5061W        W21245  15.989   6.500   0.606  0.4176 -0.2800  0.0931
 5062W        W21246  12.392  10.874  16.607 -0.1263  0.1379 -0.0486
 5063W        W21247  13.652   8.991   0.356 -0.0811 -0.0462 -0.3184
 5064W        W21248   5.814   0.800   3.960 -0.2082 -0.0001  0.1647
 5065W        W21249  15.481   0.322   1.794 -0.0525  0.0741  0.1428
 5066W        W21250   3.318   9.151   1.297  0.2095  0.0299 -0.2001
 5067W        W21251  14.289  11.799   0.047 -0.2247  0.0350 -0.0266
 5068W        W21252   1.427   2.701   5.941  0.0224  0.1140  0.3110
 5069W        W21253   4.168  15.657   0.603  0.0567  0.1215 -0.3464
 5070W        W21254   2.652   2.840  16.622 -0.1508 -0.0024  0.3197
 5071W        W21255   8.064  10.801   1.821 -0.1200 -0.0775 -0.1971
 5072W        W21256   0.425   6.656   1.315 -0.2465 -0.0660  0.2798
 5073W        W21257   8.456  14.160   3.755 -0.0993 -0.0885 -0.2323
 5074W        W21258  13.343   8.372  14.429 -0.1395  0.1280 -0.1301
 5075W        W21259  14.750   7.386   5.113 -0.2776 -0.2572  0.0070
 5076W        W21260   3.628  10.514  13.830  0.0249  0.0998 -0.0291
 5077W        W21261  16.177   0.287   0.839 -0.0701  0.3358  0.1927
 5078W        W21262   0.005  11.697  14.961  0.2877  0.3147  0.2857
 5079W        W21263   4.291  16.773   4.138 -0.1800  0.0812  0.2439
 5080W        W21264  14.828  16.249  16.425  0.1944  0.2084 -0.1510
 5081W        W21265   9.531  12.478  12.643 -0.0515  0.0203  0.1498
 5082W        W21266   4.258  15.419  12.101 -0.0601  0.0421  0.2139
 5083W        W21267  12.352   4.551  13.795 -0.1874 -0.1157 -0.0565
 5084W        W21268  14.828   1.819   5.365 -0.0262  0.0203  0.1381
 5085W        W21269   5.908   8.357  12.680 -0.1339  0.0664  0.3044
 5086W        W21270  10.729  16.379   1.385 -0.0850  0.0975  0.2546
 5087W        W21271   4.701   1.613  14.355  0.2011  0.3166 -0.4378
 5088W        W21272   7.922  10.800  11.714  0.1593 -0.3498 -0.1414
 5089W        W21273  17.833  15.006  13.899  0.1891  0.1372 -0.1300
 5090W        W21274  15.163  13.807   0.867  0.1708  0.2004 -0.1869
 5091W        W21275  12.877  14.089   1.332 -0.0864  0.1082 -0.0197
 5092W        W21276   4.761  12.205  13.862  0.2383  0.1309  0.0630
 5093W        W21277   0.182   3.369   5.699 -0.2075  0.0524 -0.0910
 5094W        W21278   3.093  17.666   1.680  0.0694 -0.0499  0.1229
 5095W        W21279   6.677  15.475  12.618  0.0753  0.1144 -0.1548
 5096W        W21280   0.222   2.837   1.978  0.2400 -0.2718 -0.0532
 5097W        W21281   2.244  11.696  15.120 -0.0377 -0.0107 -0.0887
 5098W        W21282   2.178   0.381  13.720  0.1244  0.1705  0.0037
 5099W        W21283   4.389   0.810  12.981 -0.0204 -0.1268  0.2157
 5100W        W21284   3.531  14.676  15.518 -0.0739  0.0326 -0.1202
 5101W        W21285   6.469  12.909   4.618 -0.3759  0.3247  0.0794
 5102W        W21286   7.908  11.207  13.725 -0.0392 -0.0875 -0.2810
 5103W        W21287   1.052   0.797  14.510 -0.1471 -0.0299 -0.1605
 5104W        W21288  10.954  10.455  14.187 -0.0708 -0.1121 -0.1639
 5105W        W21289  16.101  16.606   3.645  0.2080 -0.0327 -0.0080
 5106W        W21290   7.526   3.279   3.794 -0.1010 -0.0652 -0.0933
 5107W        W21291  14.930  17.672   5.747  0.1712  0.1818 -0.0317
 5108W        W21292   2.029  12.376   4.101 -0.0169 -0.1845 -0.0230
 5109W        W21293   5.712  17.049  11.361 -0.2506 -0.0618  0.3302
 5110W        W21294  14.739   8.697   0.479 -0.2259 -0.0835 -0.0103
 5111W        W21295  12.751   3.019   5.910 -0.2887  0.0102  0.2062
 5112W        W21296  13.166  17.449  13.328 -0.1159 -0.0968  0.1104
 5113W        W21297   4.944   9.201   0.190  0.0146 -0.0748 -0.0516
 5114W        W21298  11.316  16.771  15.022  0.0792  0.0282  0.1399
 5115W        W21299   5.487  13.823  12.380  0.1396 -0.1756  0.0060
 5116W        W21300  10.828  13.548   5.319 -0.0406 -0.1378  0.1793
 5117W        W21301  14.531   7.721  14.536 -0.1669  0.1012 -0.0763
 5118W        W21302   4.931  13.935   5.735  0.1684 -0.0840 -0.3401
 5119W        W21303  11.565  11.627  12.620 -0.0831  0.0968 -0.1273
 5120W        W21304   5.831   8.083  14.620 -0.1710 -0.2820 -0.1183
 5121W        W21305  13.946   6.495   3.184  0.0834  0.0423 -0.0328
 5122W        W21306   9.278   1.009  15.299 -0.2851  0.1863 -0.5514
 5123W        W21307  13.884  13.884   3.308 -0.0819 -0.0083 -0.2839
 5124W        W21308  13.563  16.214  11.315  0.0509  0.2866  0.0962
 5125W        W21309   0.620   3.046   5.744 -0.0433 -0.2742 -0.1360
 5126W        W21310  12.346  16.939   6.353  0.0053  0.1387  0.0902
 5127W        W21311   3.372   7.430   3.110  0.0202  0.3855 -0.2273
 5128W        W21312  17.019   4.438   3.960 -0.0246  0.4428 -0.1325
 5129W        W21313  12.625  16.999   0.853  0.1302 -0.1377  0.4445
 5130W        W21314   5.232  14.181   2.130  0.3214  0.4271 -0.0469
 5131W        W21315   0.496   2.326  13.039  0.1654 -0.1498  0.3945
 5132W        W21316  11.581   5.845   4.026 -0.0288 -0.0314 -0.0385
 5133W        W21317   3.891  12.317  15.884  0.1318  0.2517 -0.0284
 5134W        W21318   0.890  11.905  11.325  0.0779  0.2771 -0.3008
 5135W        W21319  11.862  16.985  12.141 -0.0494  0.2638  0.2761
 5136W        W21320   2.120  11.212  13.150  0.1112 -0.4431 -0.3271
 5137W        W21321   7.391  13.418   0.822  0.3321  0.4235  0.0967
 5138W        W21322   8.928  11.735   5.692 -0.0928  0.1961 -0.2579
 5139W        W21323  11.395  12.409   4.681 -0.0506 -0.0460 -0.1838
 5140W        W21324   2.330   1.097  11.988 -0.2608  0.0696  0.1750
 5141W        W21325  11.001   8.271  14.943  0.1679 -0.1867  0.1878
 5142W        W21326   8.440   5.913  13.097 -0.3028  0.2067  0.0948
 5143W        W21327  10.049  13.536   1.275  0.0877  0.1026 -0.0417
 5144W        W21328  13.788   9.211   4.609 -0.0399  0.1314 -0.0677
 5145W        W21329  16.761  14.132   4.143 -0.2871  0.1110  0.1045
 5146W        W21330  11.223   5.600   5.808 -0.3008 -0.0052  0.2581
 5147W        W21331  12.647   4.817  15.068  0.2987 -0.1940  0.0646
 5148W        W21332  11.911   3.916   5.037  0.1584 -0.0016 -0.1405
 5149W        W21333  14.203  14.765   4.082 -0.1935 -0.1472  0.1571
 5150W        W21334   7.995  12.219  12.060 -0.0481  0.1601  0.1544
 5151W        W21335  12.672   1.298   3.293 -0.0470 -0.1475  0.0807
 5152W        W21336  15.225   0.391  12.070  0.1964  0.0510  0.0561
 5153W        W21337   7.898   8.346   6.165  0.1035  0.0684  0.0777
 5154W        W21338  17.349  12.009   4.725 -0.1095 -0.1906 -0.2503
 5155W        W21339  11.581   7.489  15.109  0.1436 -0.1708 -0.1581
 5156W        W21340   7.935  13.524  14.000 -0.0681 -0.0723  0.4482
 5157W        W21341  17.676  16.283   0.828 -0.0148 -0.1233 -0.1152
 5158W        W21342   8.641   7.491   1.634 -0.4270 -0.2463 -0.2660
 5159W        W21343  13.536  13.974   1.343 -0.0314 -0.0309  0.3229
 5160W        W21344   7.414  14.818   0.528  0.0416 -0.1303  0.3349
 5161W        W21345   8.645  16.536  15.820  0.1042 -0.0759 -0.0652
 5162W        W21346  14.685  13.949  15.482  0.2220  0.1132 -0.0267
 5163W        W21347  10.494   2.154  16.011  0.1922  0.0323  0.1301
 5164W        W21348   1.433  17.549  11.871  0.2348  0.0627  0.1936
 5165W        W21349  11.399   5.433  13.924 -0.1054 -0.0023  0.1155
 5166W        W21350   3.426  11.013  16.234  0.0686 -0.3137  0.2075
 5167W        W21351  17.542   3.353  15.377  0.0961  0.2000  0.1890
 5168W        W21352   2.182   7.137   5.632 -0.0751 -0.0136  0.2408
 5169W        W21353   9.894   9.652  12.832 -0.0867  0.2120 -0.0351
 5170W        W21354  16.950  10.637   2.271 -0.0472  0.2326  0.0827
 5171W        W21355   4.540  13.107   2.088 -0.1140 -0.0461  0.1243
 5172W        W21356   8.387   0.307  12.095 -0.0228  0.0499  0.1978
 5173W        W21357   1.688   9.371  16.249  0.0467 -0.2945 -0.2626
 5174W        W21358   5.310  11.340  14.967  0.1083  0.1403 -0.1299
 5175W        W21359   3.481   3.932   3.921  0.1036  0.1204  0.1126
 5176W        W21360   2.176  17.910   4.943 -0.0134  0.0121  0.1309
 5177W        W21361  11.247   8.859  15.581 -0.3261 -0.1188  0.1247
 5178W        W21362  13.467   0.267  14.122 -0.0484 -0.4655  0.3737
 5179W        W21363  17.834   3.947  16.565  0.1520 -0.0751 -0.0146
 5180W        W21364   9.238   1.825   0.973  0.0868 -0.0122 -0.2247
 5181W        W21365   6.180   4.578   3.544  0.0208  0.0035  0.2775
 5182W        W21366  13.343  14.200  15.305  0.0579  0.1750  0.0888
 5183W        W21367   4.306   4.241   3.182 -0.0943 -0.2347  0.0507
 5184W        W21368  12.828   3.690  16.529  0.0303  0.1609  0.1670
 5185W        W21369   8.514   9.850   4.886 -0.0115  0.0370  0.3762
 5186W        W21370  17.195   3.222   2.583  0.1030 -0.0150 -0.2630
 5187W        W21371  11.415   7.701   2.682  0.1310 -0.1469 -0.0114
 5188W        W21372  17.775   5.225   0.755  0.1831  0.1865  0.2966
 5189W        W21373   0.252  17.737  12.429  0.0446 -0.0752 -0.0768
 5190W        W21374  12.845   8.507  15.125  0.3089 -0.1376  0.0099
 5191W        W21375   9.818  12.689  16.533 -0.0140  0.0307 -0.3558
 5192W        W21376  17.015  10.386  15.507  0.1072  0.1656  0.1571
 5193W        W21377   3.847  10.139  16.582  0.0504  0.1105  0.1720
 5194W        W21378  10.061   8.466   4.437 -0.2028 -0.3315 -0.1154
 5195W        W21379   6.672   6.956   3.955  0.1422  0.1734  0.2080
 5196W        W21380   0.912  11.091  14.229 -0.0478 -0.1427 -0.0723
 5197W        W21381   0.657   7.292   2.074 -0.0768 -0.1030  0.0084
 5198W        W21382  12.881  12.139   2.734 -0.2381  0.1294  0.1882
 5199W        W21383  10.397   9.271  11.516  0.2225 -0.2486  0.0013
 5200W        W21384   6.226   7.337   5.682  0.0360  0.0589  0.3128
 5201W        W21385  11.701   2.191  12.945 -0.1096  0.0027 -0.0216
 5202W        W21386  13.472  17.787  14.065 -0.0211 -0.0609 -0.1625
 5203W        W21387   8.685   6.327  13.381 -0.2204  0.0119  0.3220
 5204W        W21388   7.936   0.455  11.801 -0.1725  0.2419 -0.0487
 5205W        W21389  17.681  16.545  15.981  0.0360 -0.1367 -0.1447
 5206W        W21390   2.193  16.276  14.395  0.1443 -0.2017  0.3873
 5207W        W21391   4.199   6.380  14.125 -0.0677  0.0064 -0.2493
 5208W        W21392  15.313  17.490   4.386 -0.0107  0.2028 -0.2736
 5209W        W21393  14.350   8.350  13.601  0.0919 -0.0377  0.1400
 5210W        W21394   3.350  17.876  12.635  0.1046 -0.0083 -0.1144
 5211W        W21395   4.365  12.765  15.229  0.0343 -0.0121  0.0667
 5212W        W21396   0.926   1.937  13.056  0.1111 -0.1986  0.1100
 5213W        W21397  14.768   7.212   1.168  0.1091  0.0682  0.0840
 5214W        W21398  13.932  17.802   0.263 -0.1612 -0.4237  0.0104
 5215W        W21399  15.251   5.115  16.356 -0.0582 -0.2121 -0.1479
 5216W        W21400   6.982   5.740   3.153  0.1345 -0.1059  0.0755
 5217W        W21401  12.549   2.679  12.139  0.1280  0.0180  0.3860
 5218W        W21402  11.441  15.383   3.627 -0.1351 -0.0755 -0.1641
 5219W        W21403  14.813   9.693   4.310  0.0300  0.0207  0.1213
 5220W        W21404   6.496  13.314   4.855  0.0829 -0.5881  0.1553
 5221W        W21405   1.215  11.129  12.320  0.0707  0.0261 -0.1009
 5222W        W21406  17.488   0.178  12.525  0.3245  0.0436 -0.0208
 5223W        W21407  15.436  12.256  13.960 -0.1394  0.0275 -0.2178
 5224W        W21408   9.003   2.930   1.255  0.0420  0.0049  0.1637
 5225W        W21409   2.699  15.191  13.573  0.3840  0.0598  0.1780
 5226W        W21410   2.107  13.020  13.954  0.2182 -0.0465 -0.0272
 5227W        W21411   4.916   1.348  14.780 -0.1045  0.0673  0.2171
 5228W        W21412   3.099  12.763  13.900 -0.0131  0.5980  0.0366
 5229W        W21413   4.978   9.084  15.408  0.0326 -0.0441  0.1109
 5230W        W21414   1.432  14.344   0.455 -0.0979 -0.0082 -0.0967
 5231W        W21415   6.849   8.505   2.461 -0.1593  0.1204  0.0194
 5232W        W21416   1.300  13.968  13.496 -0.0042 -0.0858 -0.0938
 5233W        W21417   5.204   1.796  16.388 -0.2923  0.1413  0.0008
 5234W        W21418   1.010  10.524   0.397  0.1136  0.3466 -0.0192
 5235W        W21419  14.617  16.516   1.767 -0.0574  0.0068 -0.1218
 5236W        W21420  14.795   6.432   0.092  0.0786  0.2311 -0.2213
 5237W        W21421   9.484  17.391   3.974 -0.0356  0.2390  0.0147
 5238W        W21422   7.963  12.064   5.852 -0.0811 -0.4157  0.0504
 5239W        W21423  13.251   3.182   5.390  0.3633 -0.1468  0.2278
 5240W        W21424  12.269  15.875  14.115 -0.2802  0.4212 -0.1942
 5241W        W21425   3.034  10.535  11.490  0.1043  0.0223 -0.0611
 5242W        W21426   2.748   3.248   1.314  0.0780 -0.0350 -0.0432
 5243W        W21427   7.570   1.948  14.573 -0.0782 -0.0929 -0.1616
 5244W        W21428   5.913  10.314   3.121 -0.1763 -0.1296 -0.5485
 5245W        W21429  16.025  10.656   5.288 -0.1953 -0.2061 -0.0764
 5246W        W21430  14.879  17.724  12.388  0.1029  0.6325  0.3975
 5247W        W21431  16.984   5.318   3.909  0.5709 -0.0120 -0.0453
 5248W        W21432   4.611   5.433   4.361 -0.3449  0.0702 -0.1942
 5249W        W21433   4.759   4.027   1.310  0.1796 -0.0834  0.2086
 5250W        W21434  11.317   3.654   1.226  0.0801 -0.1630  0.3940
 5251W        W21435   5.533  16.173   1.679  0.1656 -0.2087 -0.1695
 5252W        W21436  10.044  11.126   5.944  0.2014  0.0310 -0.3248
 5253W        W21437   4.149  13.414   2.318  0.1859 -0.3287 -0.3222
 5254W        W21438   1.152  13.033   0.235 -0.0910  0.0329 -0.2575
 5255W        W21439   3.251  11.340  14.639  0.0493  0.1263 -0.1624
 5256W        W21440  11.917  14.936  15.715 -0.1420  0.0556  0.2210
 5257W        W21441   3.135   8.664  15.383 -0.0049  0.0021  0.0096
 5258W        W21442  17.171   3.974   0.242  0.0897  0.0613 -0.1002
 5259W        W21443  11.812   1.653  13.736  0.0203  0.0648  0.2239
 5260W        W21444  14.045   4.968   6.112  0.0363  0.1411 -0.2448
 5261W        W21445   0.128  10.461  11.120  0.2118  0.0119  0.1032
 5262W        W21446   2.461  10.467   2.926  0.1302 -0.0067  0.1766
 5263W        W21447   6.637   5.587   6.371 -0.0209  0.2384  0.1533
 5264W        W21448   1.520  17.701   0.271 -0.0779 -0.1969  0.3441
 5265W        W21449   2.407  12.551  14.731  0.0898 -0.0027 -0.1531
 5266W        W21450  17.322   9.986  15.615  0.1551 -0.1697 -0.3746
 5267W        W21451   1.365   0.207   5.448  0.0747 -0.0677 -0.1002
 5268W        W21452   7.447   5.586   4.494  0.2702 -0.1287  0.3846
 5269W        W21453  13.122   2.763   0.221  0.1101 -0.0681 -0.0727
 5270W        W21454   0.291   5.638  11.531  0.0945  0.5070  0.2692
 5271W        W21455   2.668   3.126   3.562 -0.2401  0.0186 -0.1253
 5272W        W21456  10.242  16.045  13.130  0.2636  0.0591 -0.1745
 5273W        W21457   1.089  17.311   3.369 -0.3661  0.2370 -0.2478
 5274W        W21458   8.773  12.660  14.896  0.0810 -0.0696 -0.0995
 5275W        W21459   9.047  11.524   2.090 -0.1067  0.1624  0.1238
 5276W        W21460   7.729   0.197   3.915 -0.0469  0.0201 -0.2308
 5277W        W21461   6.235  12.505  12.523 -0.0140 -0.0280  0.0556
 5278W        W21462   5.278   0.639  13.250 -0.0256  0.0401 -0.0737
 5279W        W21463   5.374   1.151  15.495  0.0699 -0.1849  0.1184
 5280W        W21464   1.112  11.979   0.853 -0.2900 -0.2541 -0.0537
 5281W        W21465  11.180   0.365   0.737 -0.0959 -0.0773 -0.1642
 5282W        W21466   4.050  14.417   5.690  0.0697  0.0108 -0.0036
 5283W        W21467   1.601  15.280  16.276 -0.2389 -0.0445 -0.3438
 5284W        W21468   2.707   0.774  12.099  0.1056  0.3293 -0.0113
 5285W        W21469   3.305   3.354  12.112  0.1938 -0.1520  0.1179
 5286W        W21470   5.615   1.463   0.909 -0.0142 -0.0294 -0.0417
 5287W        W21471   8.298  11.737  12.544 -0.0695 -0.1573  0.1011
 5288W        W21472  15.474   9.735   5.767 -0.0022 -0.1845  0.1243
 5289W        W21473  11.240   2.375  11.633  0.1359  0.1630  0.0702
 5290W        W21474  11.975   5.239   0.031  0.0934 -0.0584  0.0084
 5291W        W21475  16.383   2.445   5.158 -0.1940 -0.3200 -0.1148
 5292W        W21476   2.300   4.817  15.829  0.2850  0.0538 -0.2442
 5293W        W21477  16.948  14.592   4.531 -0.0115 -0.0968  0.1986
 5294W        W21478   1.014   9.449   5.701 -0.3208  0.1749  0.0420
 5295W        W21479   0.723  11.691   0.462  0.0467 -0.2390 -0.1795
 5296W        W21480   8.923   2.014  15.317 -0.1719 -0.2006 -0.0517
 5297W        W21481   4.428   1.973   3.775  0.0381  0.4153  0.1310
 5298W        W21482   8.954   5.062  16.494 -0.2547 -0.0120  0.2307
 5299W        W21483   2.298   0.286   5.874  0.0376 -0.0856 -0.0100
 5300W        W21484  13.093   5.757   2.199 -0.0946 -0.1325  0.0151
 5301W        W21485  12.923   7.103   1.709  0.5172  0.4221  0.1100
 5302W        W21486   8.309   4.380   0.581  0.0195  0.1578  0.1862
 5303W        W21487  14.168  10.966   1.027  0.0333 -0.1834 -0.3777
 5304W        W21488   8.849  12.209  15.290 -0.2332  0.0584 -0.3383
 5305W        W21489  14.241   8.005   0.442 -0.4739 -0.0882  0.0909
 5306W        W21490   6.064   0.268  16.679  0.0312  0.0911  0.0024
 5307W        W21491  14.820  13.403  13.280 -0.0470 -0.1959  0.1411
 5308W        W21492  13.566  12.036  12.454 -0.1506  0.0923  0.2404
 5309W        W21493  10.505  15.060  13.344  0.2277  0.1786  0.1471
 5310W        W21494   5.778   5.865  10.997 -0.1940  0.0566 -0.0577
 5311W        W21495   5.382  12.614   4.658  0.0714  0.0320  0.3265
 5312W        W21496   3.468   9.675   2.762  0.0940  0.0421  0.0008
 5313W        W21497  16.915   1.752  15.238  0.1122 -0.0598 -0.3726
 5314W        W21498   9.701  11.255   4.673 -0.0696  0.2664 -0.0979
 5315W        W21499   1.860  16.316  11.394 -0.2431 -0.1799 -0.0005
 5316W        W21500   1.311  12.615   5.795  0.0444  0.0209 -0.2959
 5317W        W21501   1.717  11.946  15.639  0.1384  0.1767  0.1364
 5318W        W21502   1.963  16.325   4.438  0.0210  0.2752  0.1106
 5319W        W21503   0.841   4.584   5.608  0.1792 -0.2330  0.0625
 5320W        W21504   7.399  16.871  11.904 -0.0880  0.3247 -0.0376
 5321W        W21505   0.480   7.187   3.590  0.1692  0.1462  0.0534
 5322W        W21506  14.007  10.359  16.214 -0.1912  0.1757 -0.2292
 5323W        W21507  12.011   2.928   4.942  0.0376 -0.0238 -0.3807
 5324W        W21508  10.118   5.467   4.269 -0.5140  0.0983 -0.2143
 5325W        W21509  10.320   8.780  11.712 -0.1695  0.2175  0.0274
 5326W        W21510  14.465   3.746   5.931  0.1669  0.1941  0.0748
 5327W        W21511  10.566  11.008  15.801 -0.1755  0.1215 -0.0994
 5328W        W21512  11.065   0.766   4.747  0.3422  0.2398  0.1831
 5329W        W21513   7.116   5.618   1.159  0.1457  0.1512  0.1777
 5330W        W21514  11.105  10.124   0.353  0.0831 -0.1896  0.2366
 5331W        W21515   8.682   8.163  14.873  0.0149  0.0052 -0.0042
 5332W        W21516  17.181   4.182   1.547 -0.1116 -0.2165  0.0624
 5333W        W21517   5.565   7.596   1.677 -0.2635  0.2477 -0.1457
 5334W        W21518   1.579   2.923   3.488 -0.2531  0.0507  0.1515
 5335W        W21519  14.628   0.552   1.376 -0.2373  0.0748 -0.1773
 5336W        W21520   0.042  11.286   5.574 -0.0274  0.0171 -0.0091
 5337W        W21521   2.094   7.805   2.497 -0.1235  0.2319  0.2120
 5338W        W21522   1.560   6.451  15.341  0.0999 -0.2997  0.2355
 5339W        W21523  16.315   3.359   0.088  0.1317  0.2924  0.3725
 5340W        W21524  15.979  12.187   2.288 -0.1371 -0.0759 -0.0170
 5341W        W21525   6.619   0.452  14.734  0.0137 -0.3205 -0.1940
 5342W        W21526   0.109   3.440  15.012  0.0338  0.0485  0.2803
 5343W        W21527  12.612  11.678   3.085  0.1415 -0.4455  0.0275
 5344W        W21528   8.627  16.054   2.618 -0.0747 -0.2260  0.0496
 5345W        W21529  12.834  11.460  15.754  0.0471 -0.0083 -0.1906
 5346W        W21530  11.910  17.356   4.387  0.0692  0.2334 -0.1586
 5347W        W21531   6.771   0.327  14.010 -0.4580  0.3561  0.2605
 5348W        W21532   1.952   6.565   1.210 -0.1208 -0.1675 -0.0114
 5349W        W21533   3.559  12.667   1.788 -0.5776 -0.2206  0.0278
 5350W        W21534  13.435   2.733   5.292  0.3244  0.3470  0.1281
 5351W        W21535  13.381   6.156  15.967 -0.0760 -0.0244 -0.0691
 5352W        W21536  14.206  17.341  15.465  0.1036 -0.1714 -0.0562
 5353W        W21537   9.675   6.188   3.553  0.3053 -0.0791 -0.1675
 5354W        W21538   4.100  10.009  15.620  0.3397  0.2438 -0.0731
 5355W        W21539  15.998  12.205   3.300  0.0115 -0.1134  0.3285
 5356W        W21540  11.678   5.210  14.351 -0.2809 -0.5550  0.0873
 5357W        W21541   4.112  10.164   0.997  0.0065  0.1865 -0.1482
 5358W        W21542  10.864  11.042  14.862  0.3894 -0.2272  0.1038
 5359W        W21543   6.341   4.330  16.209  0.4753  0.1539 -0.0594
 5360W        W21544   5.723   2.359  12.301 -0.0231  0.3540  0.1677
 5361W        W21545   0.617  13.569   3.231 -0.2707 -0.3409  0.0285
 5362W        W21546   4.669  11.547   4.038 -0.1048 -0.2091 -0.0074
 5363W        W21547   8.847   2.389   2.329 -0.2793  0.0508  0.1641
 5364W        W21548  13.817  14.843  13.927 -0.0944 -0.0619  0.1346
 5365W        W21549   9.645   1.105  13.901 -0.3492 -0.3181 -0.2796
 5366W        W21550   1.910  10.359  16.238 -0.2080 -0.0566  0.1017
 5367W        W21551   8.764   9.783   3.344  0.1123 -0.0875 -0.1688
 5368W        W21552   3.056  17.701  11.341 -0.2511  0.0288  0.0177
 5369W        W21553  16.628  10.170   2.716  0.3949  0.0317 -0.3715
 5370W        W21554   9.249   9.258   5.040  0.0590  0.2597  0.1592
 5371W        W21555  17.522  11.697  14.880  0.0344  0.3543 -0.0493
 5372W        W21556  16.182  17.915   1.134  0.2924  0.2390 -0.1040
 5373W        W21557  17.381   1.255  11.998  0.0205  0.1268  0.0929
 5374W        W21558  16.950   1.384  12.184  0.2037 -0.0455  0.1786
 5375W        W21559   5.002   1.268   3.605  0.1761 -0.4269 -0.1035
 5376W        W21560   7.296   9.752   2.457 -0.0760  0.1921  0.1568
 5377W        W21561   5.246   8.725   0.093  0.1077 -0.0106 -0.1638
 5378W        W21562  13.475  14.440  13.535 -0.2517  0.2785  0.3340
 5379W        W21563  14.134   7.600  13.701  0.0890 -0.2261  0.1525
 5380W        W21564   3.266  14.942   3.834  0.3880  0.0550 -0.1336
 5381W        W21565   6.583  12.042   3.053 -0.1153  0.0918 -0.0954
 5382W        W21566  14.966   4.034   2.057 -0.2947  0.0177 -0.2072
 5383W        W21567  16.535  10.076  15.922 -0.1489  0.2248 -0.2118
 5384W        W21568   3.372   0.407   4.711 -0.0948 -0.0175  0.0355
 5385W        W21569   6.674  17.435   4.184  0.3378  0.0907  0.2127
 5386W        W21570  13.198   5.845  11.329  0.2629  0.0761 -0.0499
 5387W        W21571   0.736   6.316   2.141 -0.2455  0.0662 -0.2557
 5388W        W21572   3.120  12.943   1.971 -0.1741  0.0888  0.0532
 5389W        W21573  11.659   9.128  12.787  0.0275  0.0243  0.0069
 5390W        W21574  12.218  10.757   0.411 -0.0689 -0.0600 -0.2057
 5391W        W21575  10.538  13.562   1.323 -0.1322  0.3180  0.1161
 5392W        W21576   6.088  10.302  16.053  0.1471  0.0471 -0.1759
 5393W        W21577  15.031   2.694   6.347 -0.0346 -0.2158 -0.0130
 5394W        W21578  13.270   0.559  14.572  0.3205  0.0820  0.1768
 5395W        W21579   3.685   3.164  13.087  0.0993 -0.1220  0.1173
 5396W        W21580   8.846  11.707  16.499  0.1752 -0.0489 -0.0464
 5397W        W21581  14.846  11.362  14.037 -0.0798 -0.2116 -0.4154
 5398W        W21582  11.878  12.789   4.785 -0.0898 -0.1935  0.1179
 5399W        W21583   3.718  17.469   4.643 -0.2971  0.1525  0.2469
 5400W        W21584   4.463   4.173  16.141 -0.2060 -0.2021 -0.1438
 5401W        W21585   4.844   5.575  15.386 -0.0631  0.1078  0.3827
 5402W        W21586  13.130   9.107   0.165  0.0802  0.0486  0.3344
 5403W        W21587   8.952  15.392  12.972 -0.0597 -0.1002  0.1485
 5404W        W21588  17.983  11.081   2.506  0.2223  0.1503 -0.2931
 5405W        W21589   8.787   6.590  15.751  0.3824  0.2196  0.3771
 5406W        W21590  17.963   5.367   4.427  0.0379  0.2550 -0.1462
 5407W        W21591   8.222   6.485   6.148  0.0577  0.0571  0.0792
 5408W        W21592  15.310   1.606   2.670  0.1470  0.0919  0.0130
 5409W        W21593   9.627   1.424   0.821 -0.0283 -0.0542 -0.0900
 5410W        W21594   2.922   5.224   1.646  0.0872 -0.0802  0.0297
 5411W        W21595  11.882   9.201  12.003 -0.1520 -0.1607  0.0146
 5412W        W21596   3.344   4.636   5.095  0.2268  0.0836  0.0089
 5413W        W21597   8.332  16.938   5.020 -0.0922 -0.1788 -0.0559
 5414W        W21598  15.391   1.861  12.618  0.0201 -0.0163 -0.1046
 5415W        W21599  11.993  15.626   1.080  0.2028 -0.0905 -0.2384
 5416W        W21600   7.530   4.606  15.547 -0.0733 -0.2678  0.1434
 5417W        W21601   9.276   8.024   5.450 -0.0134 -0.0477  0.0034
 5418W        W21602   9.449  10.744   1.978  0.1739  0.1076 -0.0734
 5419W        W21603   1.157  12.260   3.966  0.1518 -0.0122  0.0775
 5420W        W21604  15.648  17.418   3.963  0.1278  0.1851 -0.1114
 5421W        W21605  16.513   8.847  13.214 -0.2435  0.0145  0.2933
 5422W        W21606  15.910  17.629  16.119  0.0646  0.2711  0.2242
 5423W        W21607  16.114   8.466  14.415 -0.1575 -0.0258 -0.3116
 5424W        W21608  12.151  11.545  11.759 -0.0099 -0.0619  0.1652
 5425W        W21609   6.706   8.717   0.935 -0.0144  0.1700 -0.1788
 5426W        W21610  13.891   5.426   5.055  0.0942  0.0663 -0.2675
 5427W        W21611  14.489   9.456   6.039  0.1502 -0.1077 -0.2883
 5428W        W21612   3.122   0.376   3.443 -0.0819 -0.0487 -0.0463
 5429W        W21613  15.553  12.418  16.240  0.0094  0.2342  0.2163
 5430W        W21614   0.526  13.755  12.806 -0.2673  0.0311 -0.0637
 5431W        W21615  13.076  10.488  12.213 -0.2159 -0.0376 -0.1230
 5432W        W21616  10.832   4.174   2.104 -0.0974 -0.1891  0.0997
 5433W        W21617  17.289  11.692   3.368 -0.4660  0.0497  0.1934
 5434W        W21618   9.200  13.451  13.765 -0.2649  0.0500  0.1540
 5435W        W21619   8.970   4.808  12.801  0.1572 -0.2661 -0.2124
 5436W        W21620  14.255  11.214  12.509 -0.0827 -0.1582  0.0601
 5437W        W21621   7.535  15.958   4.599 -0.0670  0.0386  0.0694
 5438W        W21622  13.277   1.192   4.168  0.0768 -0.0195 -0.0656
 5439W        W21623  10.728   3.219   5.234 -0.0380 -0.2983  0.1107
 5440W        W21624  11.807   2.242  11.667  0.1271 -0.0268  0.4521
 5441W        W21625   8.716   9.067  14.261 -0.2722 -0.0365 -0.1114
 5442W        W21626   2.286  14.105   3.635  0.0946 -0.0335  0.0031
 5443W        W21627  14.542   2.673  15.770 -0.2487 -0.0462  0.1183
 5444W        W21628   7.611  10.120   5.845  0.2210 -0.1525 -0.2416
 5445W        W21629  11.661   2.994  14.117 -0.1199 -0.2453  0.1414
 5446W        W21630  13.007  10.002  12.452 -0.0700  0.1204  0.2513
 5447W        W21631  16.552   0.092   4.242  0.0115  0.2609  0.0676
 5448W        W21632   1.823  10.630  16.662 -0.1453 -0.1550  0.3018
 5449W        W21633   6.607   5.939   0.318  0.1369 -0.1938  0.0638
 5450W        W21634  17.417   3.144  14.419  0.1007  0.0316 -0.0309
 5451W        W21635  11.349  15.927   5.349 -0.0399 -0.0018 -0.2963
 5452W        W21636  15.198  16.570   1.780  0.0866 -0.1896  0.2741
 5453W        W21637   9.097  14.809   5.633  0.0454  0.0344 -0.1747
 5454W        W21638  12.301   7.689  14.907 -0.3513  0.0123 -0.1499
 5455W        W21639  17.107  14.095   3.591  0.0967 -0.1496 -0.0436
 5456W        W21640   0.521   5.023   5.650  0.2902  0.3340 -0.0604
 5457W        W21641  16.007   3.237   0.536 -0.3750 -0.1851  0.1673
 5458W        W21642  16.212   7.441   0.774  0.2736  0.2589  0.1796
 5459W        W21643  17.317   1.076   0.821  0.1309  0.0279 -0.0883
 5460W        W21644   5.294  11.379   6.300 -0.2026 -0.1687  0.0117
 5461W        W21645   6.185  12.795  16.183  0.3860 -0.0400 -0.0105
 5462W        W21646  13.890   7.972   1.948 -0.2451  0.0584  0.2094
 5463W        W21647   1.212   6.414   2.709 -0.2214  0.1169  0.0867
 5464W        W21648   9.284  15.734  15.045 -0.2132  0.0365 -0.0223
 5465W        W21649   3.756   7.572  13.911 -0.0767  0.1873 -0.0917
 5466W        W21650  10.173  15.343  11.463  0.0702 -0.1102 -0.3626
 5467W        W21651   2.188  13.429   0.993  0.3209 -0.2304  0.0791
 5468W        W21652   5.308  13.972  16.177  0.0197  0.1588  0.0628
 5469W        W21653   0.234   6.817   3.225  0.0878 -0.1406  0.1564
 5470W        W21654   1.671  15.089  14.298 -0.3392  0.2511 -0.0143
 5471W        W21655  16.806   6.282   6.196 -0.0973 -0.1111 -0.0545
 5472W        W21656  15.475   1.686  15.789 -0.0260  0.2282 -0.4167
 5473W        W21657   6.724  16.625  13.737  0.0020 -0.0831  0.2018
 5474W        W21658   6.339  13.168   5.425 -0.0628  0.3521  0.2503
 5475W        W21659  16.107  17.850  16.545  0.1350 -0.1587 -0.2613
 5476W        W21660  16.739   8.071   3.153  0.2936  0.0814 -0.1063
 5477W        W21661   2.343  12.644  12.651  0.0715  0.0468  0.0282
 5478W        W21662  16.544   5.653  16.621  0.0138  0.1252 -0.2202
 5479W        W21663   6.897   7.728   5.145 -0.0905 -0.0077 -0.1845
 5480W        W21664   5.518   7.028   0.764  0.1246 -0.0487 -0.0918
 5481W        W21665   0.461   4.134   4.490  0.0086  0.2694 -0.1390
 5482W        W21666  10.145  10.795  12.234 -0.1205  0.0645  0.1336
 5483W        W21667  13.028   2.956  16.380  0.2872 -0.0245  0.4097
 5484W        W21668  16.607  15.496  12.318  0.0672  0.0955  0.2300
 5485W        W21669   6.932  15.535   1.659 -0.3348 -0.0176 -0.2014
 5486W        W21670  10.592  10.669   4.359  0.2233 -0.2172 -0.1232
 5487W        W21671   9.871  14.084  14.771  0.0342  0.1216  0.0976
 5488W        W21672   7.650   6.080   1.857 -0.0264  0.3602  0.1150
 5489W        W21673   2.654  14.312   2.934 -0.1611  0.0292  0.0422
 5490W        W21674   5.561   7.802   1.252 -0.3242  0.1893  0.0494
 5491W        W21675  17.876   5.392  13.472  0.1072 -0.0826  0.1279
 5492W        W21676   2.172  13.001  14.768  0.0053 -0.1080  0.0619
 5493W        W21677   1.852   6.750  12.935 -0.0317  0.1276  0.1916
 5494W        W21678   3.218   4.193   0.974  0.0149 -0.2296 -0.0472
 5495W        W21679   1.594   4.305  15.497  0.1961  0.2419 -0.4591
 5496W        W21680   9.070   7.796   3.497 -0.0088  0.2723  0.2084
 5497W        W21681   5.620   7.520   0.125 -0.1775  0.2075 -0.3266
 5498W        W21682   8.248   9.986   3.131 -0.2162  0.0525  0.0245
 5499W        W21683  10.070   2.073  14.109  0.1672  0.4132 -0.1532
 5500W        W21684   4.533   8.159   5.196 -0.0839  0.0027  0.0514
 5501W        W21685   1.553  13.467  11.301  0.0900 -0.2074  0.2691
 5502W        W21686  17.088  15.523  14.911  0.1204  0.0801 -0.4977
 5503W        W21687   1.453  10.583  15.756  0.0599  0.1916  0.0650
 5504W        W21688   4.936   9.504  16.445 -0.0911  0.1981 -0.0642
 5505W        W21689  10.906  10.044  14.549 -0.2746  0.3025  0.0669
 5506W        W21690   9.005   7.193  13.088 -0.2191  0.0414  0.1417
 5507W        W21691  11.744  13.733   4.933 -0.1054 -0.0389 -0.1804
 5508W        W21692  13.770   9.991  13.494  0.1053  0.0817  0.1906
 5509W        W21693   1.261   8.394   4.416  0.0617  0.0536  0.0818
 5510W        W21694  17.311  17.809   0.783 -0.1700  0.3172 -0.2263
 5511W        W21695   7.271  13.391   3.720 -0.0364 -0.2290  0.1607
 5512W        W21696   3.015   0.888   3.297 -0.3325  0.0550  0.2638
 5513W        W21697   4.212   0.132   1.696 -0.3164 -0.0237  0.1600
 5514W        W21698   2.494   5.256   2.575 -0.2373 -0.2208 -0.2053
 5515W        W21699  10.603  12.572   4.549 -0.2152  0.0466  0.0994
 5516W        W21700  15.847  11.283   0.985  0.2910  0.1515  0.0616
 5517W        W21701  11.654  13.841  15.733 -0.0893  0.3070 -0.1557
 5518W        W21702  13.870   4.842   2.403 -0.1045 -0.0394  0.0442
 5519W        W21703   3.917   7.999   2.791 -0.1942 -0.2565 -0.0766
 5520W        W21704  10.533   5.659   1.577  0.2607  0.2529  0.0941
 5521W        W21705   3.273  13.376   1.180 -0.1763  0.1661 -0.1304
 5522W        W21706   6.670  17.536  11.943 -0.0687  0.0852 -0.1251
 5523W        W21707   3.457   5.302   6.032 -0.1703  0.0293  0.2545
 5524W        W21708  12.604   2.909  11.602 -0.2645 -0.0181  0.2168
 5525W        W21709   7.416  15.960  12.332  0.1521 -0.0514  0.3408
 5526W        W21710  12.038   9.764  12.750 -0.1705 -0.1090  0.0532
 5527W        W21711   9.921   2.827   0.971 -0.2373 -0.2152  0.0437
 5528W        W21712   5.330  15.755   5.271  0.0174 -0.2167 -0.0008
 5529W        W21713   7.098   8.392  11.972  0.0539 -0.0631 -0.1373
 5530W        W21714   6.736   7.202   3.466 -0.1523  0.2157 -0.0771
 5531W        W21715  17.066   3.823  12.878 -0.2053 -0.0031  0.0391
 5532W        W21716   1.742  17.306  13.618  0.1786  0.1292 -0.2220
 5533W        W21717   0.077   0.683  13.828  0.0956 -0.1177 -0.0658
 5534W        W21718   5.358  10.894  11.859 -0.1201 -0.0048  0.3517
 5535W        W21719   5.886   2.112  14.557 -0.0173 -0.0259  0.2762
 5536W        W21720   1.020  10.336   4.993 -0.0033  0.0706 -0.0960
 5537W        W21721  13.206   9.853  14.815 -0.1263  0.0551  0.1695
 5538W        W21722   8.272   1.490  15.170  0.0241 -0.0613  0.0021
 5539W        W21723   3.678  12.608  12.618  0.1337  0.2792  0.1022
 5540W        W21724   9.600   3.262  12.493 -0.1611 -0.0446  0.1505
 5541W        W21725   2.981   2.842  13.826 -0.0185  0.0906  0.0043
 5542W        W21726   5.419   2.463  13.824  0.4884  0.2939 -0.0168
 5543W        W21727   7.189   1.357  12.936  0.1633 -0.0405  0.3720
 5544W        W21728  14.870   4.447  15.650 -0.0442 -0.2288 -0.1906
 5545W        W21729  15.302   3.361  12.138  0.0408  0.1999  0.1547
 5546W        W21730  14.037   6.236   0.043  0.1016 -0.2965 -0.0998
 5547W        W21731  12.676   5.137  11.578 -0.1708  0.2008  0.3955
 5548W        W21732  13.542   7.065  15.394 -0.1537  0.1930  0.3315
 5549W        W21733   6.029  11.270  12.055 -0.3203  0.2979 -0.0877
 5550W        W21734   7.641   0.548  15.069 -0.1639  0.3457 -0.2443
 5551W        W21735   8.977  17.617   4.056 -0.4112  0.3990 -0.0308
 5552W        W21736  12.239   3.706   3.030 -0.4669 -0.3053  0.0616
 5553W        W21737  12.948   0.802  11.444 -0.0136 -0.2602  0.1710
 5554W        W21738  12.263  17.291   0.431  0.0897  0.3010  0.1730
 5555W        W21739  12.045   6.821  11.559  0.0277 -0.0443 -0.1000
 5556W        W21740   0.874   5.021  14.039  0.1228  0.2648 -0.1572
 5557W        W21741   0.797   2.115  15.615  0.0566  0.1733 -0.0281
 5558W        W21742  10.459   7.560   2.507 -0.0386  0.0738 -0.1305
 5559W        W21743  16.504  13.876  13.137  0.1355  0.4491  0.0967
 5560W        W21744  10.194   1.309   1.101  0.0155 -0.3882  0.0688
 5561W        W21745   1.599   1.427  11.575  0.0996  0.0586  0.2159
 5562W        W21746   0.301   8.584   2.847  0.0559 -0.0842 -0.2660
 5563W        W21747   2.367  13.986  15.613 -0.1297 -0.4096  0.2007
 5564W        W21748   4.782  10.530   5.478 -0.1970  0.0090  0.1228
 5565W        W21749   1.223   2.260   5.045  0.1520  0.0923  0.0709
 5566W        W21750  17.453  13.867  13.220 -0.0955 -0.1925  0.1530
 5567W        W21751   9.897  14.354  15.814  0.3461  0.1204 -0.1433
 5568W        W21752   5.281   1.552   2.129  0.1791 -0.1696 -0.2816
 5569W        W21753   8.056  18.005  12.982 -0.4122 -0.0028 -0.0181
 5570W        W21754   8.891   7.174  14.144 -0.0491 -0.2106 -0.3764
 5571W        W21755  16.330  10.632   3.581  0.2142 -0.0726 -0.3689
 5572W        W21756  11.905   6.125   4.769  0.2601 -0.1096  0.0507
 5573W        W21757  15.297   8.081  14.023 -0.0065  0.3265 -0.0860
 5574W        W21758  13.675   9.534  11.886 -0.1848  0.0318 -0.0985
 5575W        W21759  14.894  14.090   1.650 -0.2798 -0.5087  0.0512
 5576W        W21760  15.052   0.627   1.782  0.1043  0.0231  0.1281
 5577W        W21761   2.580  17.195  14.666  0.1594 -0.1508 -0.0104
 5578W        W21762   7.501   7.023  13.397  0.0293 -0.4540  0.1039
 5579W        W21763  15.922  11.275  16.304 -0.1433 -0.0488 -0.1088
 5580W        W21764  11.034   0.931   0.930 -0.1248  0.1793  0.0454
 5581W        W21765   7.348  12.292   2.229  0.2186  0.0981 -0.0384
 5582W        W21766   5.968   9.061  13.809  0.0267 -0.0408  0.4343
 5583W        W21767  15.931   6.056  13.927 -0.3189  0.2146 -0.3699
 5584W        W21768  10.355  12.195   4.696 -0.2150 -0.0384 -0.0322
 5585W        W21769  10.237   6.637  16.315 -0.1042  0.5171  0.0290
 5586W        W21770  10.181   8.747  13.408 -0.0114 -0.2050 -0.0417
 5587W        W21771   5.588  14.788   5.692 -0.0340  0.2084  0.0091
 5588W        W21772   4.712   9.617   2.883 -0.0134  0.0749  0.2905
 5589W        W21773  12.939  15.712   0.638 -0.4290 -0.2023  0.2440
 5590W        W21774   5.956   0.773  16.568 -0.0568 -0.0875  0.1535
 5591W        W21775  10.781   5.029   3.766  0.1519 -0.0104  0.1888
 5592W        W21776  10.295  17.041   1.929  0.1969  0.1108  0.2004
 5593W        W21777   5.197   4.841  13.618 -0.2415 -0.0886 -0.3358
 5594W        W21778   0.330   1.499  13.681 -0.0135  0.1258 -0.1563
 5595W        W21779  12.800  12.887  13.992 -0.0112  0.0038 -0.1755
 5596W        W21780   8.815   3.654  13.740 -0.0456  0.2071 -0.1783
 5597W        W21781  12.661   3.271  13.802  0.4767 -0.2259 -0.4734
 5598W        W21782   2.970   6.824   4.359 -0.1922 -0.0432 -0.1394
 5599W        W21783   8.104  11.667   5.567 -0.2421  0.0645  0.0061
 5600W        W21784   8.865  17.690   3.544 -0.2206  0.1868 -0.2627
 5601W        W21785  17.166   0.740   0.513  0.0889  0.1452  0.4493
 5602W        W21786   7.642  16.216  12.677 -0.1888  0.2283 -0.1198
 5603W        W21787  13.632  13.961   2.321 -0.1582  0.1484 -0.0996
 5604W        W21788  15.486   8.707   3.534  0.0911 -0.1417 -0.0380
 5605W        W21789  16.784   2.926   0.704 -0.2091  0.1161  0.2758
 5606W        W21790   3.345   4.861  14.874 -0.1011  0.1787 -0.1973
 5607W        W21791  14.326   4.352  15.734 -0.1340  0.1439  0.0445
 5608W        W21792   0.317   6.507  13.205 -0.0985 -0.1761 -0.0781
 5609W        W21793   8.278   1.409   0.468  0.2310  0.0970  0.0835
 5610W        W21794  13.697  13.646  14.545  0.0765  0.5345 -0.1475
 5611W        W21795   6.522  12.973   5.908 -0.3236  0.1021 -0.0626
 5612W        W21796   5.435   6.805  11.844 -0.1945 -0.1975 -0.0380
 5613W        W21797   1.565   9.997  16.575  0.1752  0.2444 -0.0990
 5614W        W21798  16.894   3.333   3.053  0.0078 -0.3630  0.1060
 5615W        W21799  13.758   8.379   1.512 -0.4844  0.1869  0.3639
 5616W        W21800   7.734   9.295  14.014  0.1739 -0.1438 -0.1383
 5617W        W21801   8.378   8.039   0.492  0.0366 -0.1091 -0.0166
 5618W        W21802   1.388   5.894   6.180  0.0915  0.1262  0.2070
 5619W        W21803   5.810  10.987  12.623 -0.1139 -0.0540  0.2006
 5620W        W21804  10.692   8.108  11.078 -0.1958 -0.1922  0.0139
 5621W        W21805   0.743  11.174   3.771  0.3312 -0.0733  0.0544
 5622W        W21806   1.123  14.244   4.171 -0.0952 -0.1415 -0.2884
 5623W        W21807  17.530   2.352  14.768  0.1587 -0.4082  0.1074
 5624W        W21808  10.776  17.948  13.876  0.1924 -0.2569 -0.0922
 5625W        W21809   2.280  17.584  14.879  0.0156  0.0509 -0.0835
 5626W        W21810  10.084  12.861   0.248  0.0355 -0.1806  0.2078
 5627W        W21811  11.480  10.713   2.978  0.1768  0.0872 -0.1200
 5628W        W21812   0.406   0.215  12.358 -0.3969  0.3315 -0.2565
 5629W        W21813  15.886  10.572   3.781  0.1900  0.0665  0.0676
 5630W        W21814   2.259   0.768  14.856 -0.3958 -0.0523 -0.1164
 5631W        W21815   1.440  17.713  15.326  0.0247 -0.1204 -0.0520
 5632W        W21816   5.195   3.153   1.013 -0.2186  0.2656 -0.1034
 5633W        W21817   2.563  12.303  16.216 -0.2243  0.0900  0.0573
 5634W        W21818  14.356   5.114  12.866  0.2243 -0.0411 -0.0102
 5635W        W21819   9.738   0.817  15.158  0.1073 -0.2629  0.1220
 5636W        W21820   5.010  17.055   2.386 -0.3438 -0.2362 -0.1410
 5637W        W21821  17.518   0.302   4.650  0.1113 -0.1547 -0.0548
 5638W        W21822   4.137  16.675  12.641  0.1028 -0.2234 -0.0642
 5639W        W21823  16.562   0.892  14.931 -0.2166  0.1786  0.0913
 5640W        W21824  16.831   4.310   3.090  0.2263 -0.3600  0.3274
 5641W        W21825   3.183   2.946   2.112  0.1556 -0.0284 -0.0493
 5642W        W21826  13.341   6.543   2.693 -0.1499  0.0427 -0.2378
 5643W        W21827   8.231   7.853   5.696  0.1075  0.0402  0.1739
 5644W        W21828  10.467   8.385  11.453 -0.1499 -0.1530 -0.0041
 5645W        W21829  14.289  12.299  16.293 -0.0888  0.0162 -0.0073
 5646W        W21830  12.753   1.531  10.844  0.0910  0.3094  0.2640
 5647W        W21831   9.442  14.445  16.044  0.0025  0.3233 -0.2546
 5648W        W21832   3.811   8.608  15.706  0.1143  0.0359 -0.3235
 5649W        W21833  14.190   3.482   1.856  0.0884  0.2819 -0.0710
 5650W        W21834  14.747  12.402  16.589  0.1274 -0.1326  0.1370
 5651W        W21835  14.263  11.871  11.751  0.1059 -0.0916  0.1068
 5652W        W21836  13.404  13.693   4.481 -0.2219  0.0579 -0.2251
 5653W        W21837  14.015   8.325   4.888 -0.0052 -0.1944  0.0642
 5654W        W21838   7.046   5.293  15.258 -0.1898 -0.0006  0.1895
 5655W        W21839  11.317   8.859   0.213 -0.0814  0.0522  0.2892
 5656W        W21840   4.682  12.614   5.233  0.3097 -0.1578 -0.2854
 5657W        W21841   2.748  16.268   3.694  0.3164  0.2781 -0.2675
 5658W        W21842   0.868   6.723   1.026 -0.0891 -0.0671  0.0982
 5659W        W21843  10.144   9.269  15.598 -0.1846 -0.2738  0.1108
 5660W        W21844  15.761  10.730  13.177 -0.2597  0.0429  0.0075
 5661W        W21845  17.144   5.442   2.451 -0.1431 -0.0799 -0.0864
 5662W        W21846   7.021   0.598   4.057 -0.1004  0.2936  0.1633
 5663W        W21847  11.616   0.251  14.881 -0.0621  0.4943  0.0861
 5664W        W21848  14.300  17.425   3.846  0.1736  0.1623  0.2107
 5665W        W21849   8.181   4.507   3.843  0.1347 -0.0284 -0.0620
 5666W        W21850   5.381   5.719   0.892 -0.2731  0.1917  0.1043
 5667W        W21851   1.780  14.855  15.999 -0.0554  0.0516 -0.0232
 5668W        W21852   1.839   0.049  11.361 -0.0485  0.0655 -0.1351
 5669W        W21853   5.085  16.557  12.446 -0.0584 -0.0938 -0.2356
 5670W        W21854  13.728   1.437  12.838 -0.1612 -0.1192 -0.0866
 5671W        W21855  11.187   0.642  15.198  0.0726  0.0567 -0.0398
 5672W        W21856   6.219   7.382   2.850  0.0430 -0.3535  0.2203
 5673W        W21857   0.748   8.369   3.666  0.0382  0.0971 -0.0438
 5674W        W21858   6.092   7.712   2.333  0.0907 -0.0025  0.1150
 5675W        W21859  14.918   8.312   4.698  0.0398  0.1581  0.0420
 5676W        W21860  17.242   5.985   2.992  0.0490  0.1159 -0.1615
 5677W        W21861   9.304  15.940   1.080  0.0139 -0.2703 -0.4303
 5678W        W21862   4.804   1.743  12.576 -0.0435 -0.0094  0.0149
 5679W        W21863   9.425  10.355  16.024  0.0965 -0.1896 -0.0238
 5680W        W21864  15.954  14.556  13.438  0.0466  0.0435 -0.0172
 5681W        W21865  11.792   1.557   5.828 -0.1099  0.0607  0.2799
 5682W        W21866  11.289  12.040   5.016 -0.0013 -0.5456  0.3890
 5683W        W21867  12.560   9.697  12.133  0.2031 -0.0412 -0.0684
 5684W        W21868  17.879   6.815  14.324 -0.2772 -0.0224  0.2228
 5685W        W21869   7.904   8.557  14.790 -0.1258 -0.0843  0.0973
 5686W        W21870  13.315  12.757   3.809 -0.1538 -0.0501 -0.0520
 5687W        W21871   2.230  13.092  12.532  0.0688 -0.2334 -0.0058
 5688W        W21872   5.202  10.492   1.235  0.0883  0.1834  0.1314
 5689W        W21873  15.657   4.308  11.698 -0.4722  0.1874  0.1495
 5690W        W21874  16.773   6.619  12.595 -0.1149  0.2265 -0.3688
 5691W        W21875  12.566  14.293  13.636 -0.1280  0.0076 -0.1500
 5692W        W21876  10.262  16.866   2.877 -0.1423  0.0764 -0.1019
 5693W        W21877  13.255  13.183   4.154 -0.2244 -0.1064 -0.0690
 5694W        W21878   9.327  11.649  16.584 -0.1171 -0.1150  0.1237
 5695W        W21879  12.455   7.238   3.330 -0.0111  0.1150  0.1263
 5696W        W21880  12.292  17.771   5.948  0.1095 -0.2143 -0.0660
 5697W        W21881  17.323   7.574  14.685 -0.1019 -0.1279  0.0560
 5698W        W21882   5.988  14.567   3.493  0.2511 -0.0635  0.1743
 5699W        W21883  17.023   4.871  10.963  0.0668 -0.3030 -0.0339
 5700W        W21884  10.094   4.745   5.549 -0.2377 -0.1341  0.2172
 5701W        W21885   5.701   8.531   2.353 -0.2282  0.0798 -0.1033
 5702W        W21886  11.627  11.025   4.011 -0.0406 -0.1069  0.1395
 5703W        W21887  13.245   6.363   5.277 -0.1808  0.2573  0.2428
 5704W        W21888  14.396   7.970   3.303 -0.1040  0.3855  0.1719
 5705W        W21889  13.655  12.393   2.549 -0.0074 -0.2935  0.2117
 5706W        W21890   6.670   0.852  11.263 -0.1253 -0.1150 -0.0640
 5707W        W21891   2.751  17.842  14.807 -0.1805  0.4310 -0.4927
 5708W        W21892  13.735  17.538   1.809  0.0185  0.0449  0.1527
 5709W        W21893   1.046   1.545  11.571 -0.2432  0.2349 -0.0196
 5710W        W21894  11.170   9.989  14.157  0.1338  0.0005  0.3355
 5711W        W21895   2.685  16.788   3.684  0.1856 -0.0978 -0.1772
 5712W        W21896   8.679   2.985   5.255  0.2488  0.0430 -0.1156
 5713W        W21897  11.231  15.199   0.950 -0.0821 -0.3428  0.3064
 5714W        W21898  10.154   9.551   2.500  0.0227  0.1739 -0.1712
 5715W        W21899   7.227   6.794   5.122  0.0349  0.1340  0.0912
 5716W        W21900   8.262   9.552  14.551 -0.1942 -0.1092 -0.0428
 5717W        W21901   0.045  15.036  12.561  0.0309 -0.3368  0.0094
 5718W        W21902  14.336  16.855   4.852 -0.1074 -0.0892 -0.3326
 5719W        W21903   8.701   3.389   1.323  0.1033  0.1577  0.0077
 5720W        W21904  10.381   6.792  13.522 -0.0746  0.1028  0.1577
 5721W        W21905   6.008   7.050  16.174  0.0007 -0.1209 -0.1048
 5722W        W21906  14.294   7.557   0.177 -0.1624 -0.3379 -0.1336
 5723W        W21907   2.372   6.572  15.413  0.2336  0.0418  0.0415
 5724W        W21908   9.334  14.624   4.363 -0.3427 -0.0898 -0.1430
 5725W        W21909  12.711  10.587  14.791  0.0659 -0.0972  0.1142
 5726W        W21910   2.219   8.536  16.281  0.0272 -0.0927  0.2449
 5727W        W21911  11.367   2.047   3.507  0.0217 -0.2135 -0.0185
 5728W        W21912  16.369  10.244   3.159  0.0533 -0.3116  0.1735
 5729W        W21913  15.403   6.168   2.288  0.1351  0.0649  0.0968
 5730W        W21914  11.512   2.483  14.183 -0.2218 -0.0502 -0.1244
 5731W        W21915   1.448  12.995  11.477  0.1068 -0.3506  0.0758
 5732W        W21916   4.487   7.449   0.002 -0.0567  0.1417 -0.3243
 5733W        W21917  13.916   0.328   5.541 -0.0783  0.1123 -0.0368
 5734W        W21918   3.023   6.171   4.379 -0.1333  0.1429 -0.1756
 5735W        W21919   6.435  16.093  15.874 -0.3096  0.1902  0.0984
 5736W        W21920   6.974   5.805   0.641 -0.1874  0.0720 -0.2590
 5737W        W21921   2.102  15.903  14.628 -0.1321 -0.0484 -0.1689
 5738W        W21922   8.733  11.775   4.894  0.1797  0.1832 -0.5738
 5739W        W21923   3.757  11.426  15.293  0.3172  0.0013  0.4126
 5740W        W21924   7.410  14.292  13.996 -0.0987 -0.3144 -0.1435
 5741W        W21925   2.679   3.248   5.713 -0.1366  0.0750  0.1632
 5742W        W21926   0.941  16.085   2.018 -0.2343  0.1598 -0.1674
 5743W        W21927   2.819   9.647   3.005  0.1269  0.0197  0.1345
 5744W        W21928   1.847   6.664   0.635  0.1831 -0.3358  0.3899
 5745W        W21929  13.469   8.701   1.840 -0.0705 -0.2244  0.1353
 5746W        W21930   4.225   5.138   2.207  0.0102 -0.0177  0.0184
 5747W        W21931  15.918   9.949  11.701 -0.4877 -0.0256  0.0856
 5748W        W21932  14.848   3.603   0.387 -0.0881 -0.2540  0.3564
 5749W        W21933   5.098   9.227  16.026 -0.1753 -0.3129  0.1581
 5750W        W21934  17.983   1.527  16.128  0.1175  0.0280  0.1057
 5751W        W21935  16.996  14.220  14.695 -0.0971 -0.0889 -0.3047
 5752W        W21936   4.175   5.159   4.312  0.0272 -0.0349 -0.0314
 5753W        W21937  10.213   5.641  15.894 -0.1097 -0.1206 -0.1787
 5754W        W21938   7.662   7.138  14.591 -0.1745  0.3313  0.0300
 5755W        W21939   4.215   1.623  12.719 -0.1370  0.1628  0.1566
 5756W        W21940  13.020  10.960  13.929 -0.0598 -0.0528 -0.0499
 5757W        W21941  16.852  13.903   1.536  0.3901 -0.1773  0.1448
 5758W        W21942   0.694   6.859  16.083 -0.1079 -0.2422  0.1474
 5759W        W21943  13.419   1.534  14.146 -0.1799  0.4075  0.1354
 5760W        W21944   2.520  14.772   3.108 -0.0148 -0.0221  0.4880
 5761W        W21945   0.857  11.284   5.536 -0.3083  0.2758  0.0178
 5762W        W21946  16.704  13.464  15.622  0.0321 -0.1243 -0.1575
 5763W        W21947  14.354  14.641  11.406  0.0217  0.1198 -0.0812
 5764W        W21948   4.794  12.795  13.809 -0.2632  0.1865  0.1536
 5765W        W21949  10.237  17.250   3.683  0.0509  0.1442 -0.4280
 5766W        W21950  13.599  15.373  13.971  0.0477 -0.0731  0.1219
 5767W        W21951  17.469  14.165  14.464  0.2388 -0.0053 -0.4388
 5768W        W21952  17.351  12.939  15.027  0.1386 -0.0973  0.1058
 5769W        W21953   6.816  13.361  16.098 -0.1799 -0.2350  0.1623
 5770W        W21954  11.298  16.351   1.490  0.3435  0.1672  0.2036
 5771W        W21955   5.261   4.880   3.090  0.1842  0.0905  0.3200
 5772W        W21956   9.930   3.546  14.494  0.1587 -0.2225 -0.1724
 5773W        W21957  14.759   9.472  12.371 -0.0992  0.0222  0.1680
 5774W        W21958   8.483  15.679   0.669  0.1757  0.2082  0.0609
 5775W        W21959  14.320  11.589  12.142  0.1653  0.0987  0.0819
 5776W        W21960   0.552  11.303   0.244 -0.2031 -0.1973 -0.1477
 5777W        W21961   1.176   2.155  12.166  0.0964 -0.4075  0.0140
 5778W        W21962   7.367   2.862  13.658  0.1223 -0.1493  0.2252
 5779W        W21963   3.277  10.301   0.703  0.0556  0.2087 -0.4654
 5780W        W21964   4.407  16.402  14.523 -0.0242  0.0181  0.0725
 5781W        W21965   6.201  16.476   0.992 -0.0240 -0.1867  0.2232
 5782W        W21966   0.417   9.064   1.359  0.1707  0.1393 -0.0968
 5783W        W21967   7.425  13.694   4.364  0.0243 -0.0244 -0.1233
 5784W        W21968  11.487   5.866  14.757 -0.0186 -0.1628 -0.2776
 5785W        W21969   3.815   5.491  11.095 -0.0120  0.0284 -0.1475
 5786W        W21970   6.691   9.108   4.094 -0.0561 -0.0240 -0.0594
 5787W        W21971  15.998   9.034  12.180 -0.3047  0.4545  0.5598
 5788W        W21972  12.772   0.547  14.588 -0.0114  0.0567  0.0047
 5789W        W21973  12.157  15.892  12.028  0.1502  0.1208 -0.1022
 5790W        W21974  16.667  13.241  15.108  0.0470 -0.1499  0.1112
 5791W        W21975   6.148   5.530   4.890 -0.1303  0.1084  0.3317
 5792W        W21976   4.366   1.371   3.582 -0.0536 -0.2757  0.2313
 5793W        W21977  15.033  17.825  14.238  0.0661 -0.1315  0.1749
 5794W        W21978   7.449   5.496   0.214  0.1537 -0.1162  0.1111
 5795W        W21979   5.250   9.573  13.060 -0.0972  0.2303  0.0482
 5796W        W21980  14.854  15.268  16.525  0.0714 -0.2766  0.0303
 5797W        W21981   5.070  17.341   2.892 -0.0302  0.1409 -0.0391
 5798W        W21982  11.455   4.351  13.079 -0.0823  0.0783  0.0988
 5799W        W21983   3.772  10.102   0.603  0.3024 -0.0473 -0.1090
 5800W        W21984   0.327  14.939  13.885  0.3927 -0.0919  0.0711
 5801W        W21985  16.595  11.356  12.282  0.5116  0.0440  0.0208
 5802W        W21986  17.379   2.425   0.033 -0.1755 -0.0606 -0.3533
 5803W        W21987   8.729  10.747   4.804  0.1768 -0.1370 -0.0827
 5804W        W21988  15.672  16.589   1.194  0.6060  0.0135  0.1441
 5805W        W21989   5.086   2.370  15.074 -0.2102  0.0435  0.1001
 5806W        W21990   9.657   3.646   2.938 -0.3185  0.1829  0.0125
 5807W        W21991  16.171  13.336  13.683  0.1076 -0.1080  0.0251
 5808W        W21992   8.299  12.681   5.143 -0.0327  0.1292 -0.1064
 5809W        W21993  16.996  14.978  11.492  0.1737 -0.1222  0.0047
 5810W        W21994   1.317  11.612  13.115 -0.0508  0.0835  0.0643
 5811W        W21995  10.671  17.616  16.431  0.1702 -0.2563 -0.0144
 5812W        W21996   7.727   2.337  14.228  0.0966 -0.1506 -0.1124
 5813W        W21997  15.617  13.643   0.717  0.1862 -0.0065 -0.4172
 5814W        W21998  12.447  17.529   4.762  0.0198 -0.0577  0.3457
 5815W        W21999   1.518  10.717  13.359  0.0130  0.3669 -0.3398
 5816W        W22000  10.010  15.542  16.611 -0.0065 -0.2274  0.0278
 5817W        W22001  15.308  10.544  14.502  0.1343  0.0343 -0.2205
 5818W        W22002  11.858   4.561  13.299 -0.0628  0.0494 -0.1560
 5819W        W22003   8.139   0.901   3.833 -0.0440  0.0708  0.0466
 5820W        W22004   0.329  11.394   2.140 -0.2137 -0.2087  0.0954
 5821W        W22005   3.834   4.452  16.056 -0.0383 -0.1044  0.0099
 5822W        W22006  15.933  14.438   3.654  0.5198 -0.1305 -0.1454
 5823W        W22007   0.057  16.874  16.259  0.0984 -0.0621  0.1702
 5824W        W22008   2.844   5.489  15.262  0.2563  0.0752  0.0929
 5825W        W22009   2.838   3.595   0.485  0.1913  0.1657  0.2705
 5826W        W22010   7.234  11.935  13.928 -0.1675  0.1081  0.0372
 5827W        W22011  15.864  10.718  15.746 -0.0271  0.0394 -0.1881
 5828W        W22012  13.427   5.080   2.946 -0.1895  0.0260 -0.2313
 5829W        W22013  16.148   5.471  13.759 -0.0215 -0.2350  0.3370
 5830W        W22014   4.155   8.010   2.249 -0.0106 -0.0833  0.3197
 5831W        W22015  13.039  17.506   1.828 -0.2256  0.2766 -0.0221
 5832W        W22016  13.014   0.965   2.370 -0.1139 -0.1247 -0.0915
 5833W        W22017  17.324   9.561  14.873 -0.0705  0.1415 -0.0331
 5834W        W22018   7.955   4.895  13.965 -0.1015 -0.0619 -0.0133
 5835W        W22019   8.248   4.454  12.865  0.2407  0.2097  0.3405
 5836W        W22020  10.237   1.555   3.053 -0.0473 -0.3306 -0.3046
 5837W        W22021   9.570  10.386  13.994  0.3742 -0.4465  0.0030
 5838W        W22022   7.915   9.015   4.056 -0.2098  0.1378  0.0815
 5839W        W22023  13.848  15.509  11.027 -0.3215 -0.1234  0.0018
 5840W        W22024  14.587   1.320  14.062 -0.0834  0.1899  0.0741
 5841W        W22025   7.444   0.334   2.156  0.1858  0.0627  0.0193
 5842W        W22026  17.412   8.900   2.776 -0.0428 -0.1559  0.2087
 5843W        W22027  14.780  15.607   1.486  0.2605 -0.0226 -0.0367
 5844W        W22028   7.816  10.912   1.059  0.1347  0.1211  0.1095
 5845W        W22029   7.790  11.785  12.467  0.3751  0.0857 -0.1784
 5846W        W22030  14.091  10.785   1.671 -0.1406 -0.1702  0.3036
 5847W        W22031  10.253  16.673  15.608  0.2306 -0.2488  0.0611
 5848W        W22032   9.228   7.181   1.474  0.0122 -0.1594  0.1389
 5849W        W22033  17.369   0.735   5.295 -0.1724  0.0868  0.2619
 5850W        W22034   1.800  14.120   3.838 -0.0699 -0.1407 -0.0798
 5851W        W22035   7.936  17.950   0.436 -0.0500 -0.2062 -0.1279
 5852W        W22036  17.822   5.605  11.733  0.2916 -0.0818  0.0327
 5853W        W22037   9.497  12.559  11.725  0.0081  0.1168 -0.0973
 5854W        W22038   0.398  16.492  14.118 -0.1069  0.1913 -0.1017
 5855W        W22039  12.269  12.983  13.609  0.1836 -0.2226  0.0920
 5856W        W22040  14.916   8.888  13.941 -0.1384  0.2101 -0.3528
 5857W        W22041   2.813   6.599  15.790  0.1585  0.0776 -0.1147
 5858W        W22042  14.941  14.210  14.354 -0.0582 -0.0506 -0.2433
 5859W        W22043   9.030  12.883   5.525  0.2103 -0.0467  0.1006
 5860W        W22044   0.016   9.211  10.457  0.1988 -0.1120 -0.1359
 5861W        W22045  12.490   0.974  11.246  0.3987  0.0180 -0.0913
 5862W        W22046   2.560   6.062   4.728 -0.2551  0.4655  0.0965
 5863W        W22047   5.033  17.882  14.923 -0.0044  0.2520 -0.0661
 5864W        W22048   1.826   2.777   5.594  0.3199 -0.1723 -0.4644
 5865W        W22049  17.672   5.455   5.327 -0.1662 -0.2648  0.0802
 5866W        W22050   7.324   7.139   1.805 -0.2274 -0.1723  0.1194
 5867W        W22051  17.854   0.927   1.280  0.1732 -0.0540  0.0748
 5868W        W22052  15.529   1.239   0.071 -0.1916  0.0130  0.1598
 5869W        W22053   6.811  10.107   1.621  0.0692 -0.1022 -0.3284
 5870W        W22054   6.694   6.630  15.634 -0.1553  0.1666  0.2308
 5871W        W22055  16.743  17.144   3.904  0.0776  0.0768  0.1338
 5872W        W22056  12.925  11.987  14.653  0.1243  0.0285 -0.1244
 5873W        W22057   4.885  17.365  15.118 -0.2090  0.0288  0.1439
 5874W        W22058  13.837  14.726   4.467  0.2071  0.2504 -0.0863
 5875W        W22059   8.036  11.279   2.824  0.1945  0.0088  0.1752
 5876W        W22060   0.908   3.417  14.385  0.0754  0.2357 -0.1128
 5877W        W22061   1.746   1.354   0.819  0.0114 -0.1319  0.1200
 5878W        W22062  15.510   5.684   0.858  0.3354 -0.0530 -0.1041
 5879W        W22063   2.693  17.870   1.391 -0.0210  0.2208 -0.1121
 5880W        W22064  11.784   5.695  14.326  0.0255 -0.1584 -0.1869
 5881W        W22065   5.321  10.954  13.333 -0.0059  0.3934  0.2760
 5882W        W22066  15.316   1.771  12.091  0.1326  0.0189 -0.2515
 5883W        W22067   3.998   9.980  13.547 -0.4199  0.0994 -0.4095
 5884W        W22068  13.257   7.819   5.498  0.0586  0.0103 -0.2602
 5885W        W22069   7.692   5.864   2.455  0.0733  0.2313 -0.0460
 5886W        W22070   7.632  17.106  14.454  0.0455 -0.1781  0.4268
 5887W        W22071   9.870   2.726  12.442  0.0572  0.0089 -0.0663
 5888W        W22072   5.945   2.683  16.227 -0.0173  0.1980 -0.0227
 5889W        W22073   3.699   9.795  11.544  0.1079 -0.3566  0.1696
 5890W        W22074   0.067   8.265  11.854 -0.1007  0.1401 -0.0578
 5891W        W22075   8.153   5.849   2.247 -0.1292  0.2494 -0.1126
 5892W        W22076  17.743  15.167   1.091 -0.2096  0.2390 -0.0727
 5893W        W22077  16.152   9.295  11.778 -0.0301 -0.1030 -0.1451
 5894W        W22078  11.115   0.773  11.603 -0.4934  0.0215  0.1003
 5895W        W22079   6.499   6.215  15.439 -0.1502 -0.1087 -0.0172
 5896W        W22080   9.076  12.154  16.151  0.0920  0.0953  0.3600
 5897W        W22081   6.310   0.095   0.438 -0.1948  0.1982 -0.0599
 5898W        W22082   3.791  10.803   0.562 -0.2205  0.0806  0.2200
 5899W        W22083   5.709   2.397   5.195 -0.3149 -0.0731 -0.1884
 5900W        W22084   3.077  14.276   2.687 -0.3053  0.1174  0.4763
 5901W        W22085  13.299   3.057  11.615 -0.1830  0.2993 -0.0837
 5902W        W22086   3.541  15.021  11.340 -0.1130 -0.2057 -0.0196
 5903W        W22087   8.587   5.474   2.066  0.3572  0.4076 -0.1468
 5904W        W22088  15.958  16.920  11.694 -0.0493  0.2256 -0.1522
 5905W        W22089   4.522   3.409   0.009  0.2313  0.0385 -0.2497
 5906W        W22090   6.049   1.945  14.092 -0.0316  0.0481  0.1384
 5907W        W22091  13.744   6.072   3.318  0.0470  0.1732  0.1079
 5908W        W22092  14.804   4.496   3.928 -0.1830 -0.0102  0.0623
 5909W        W22093  17.675  13.369   2.958  0.0855  0.0312 -0.0464
 5910W        W22094   7.597   0.126  13.037  0.0778  0.0489  0.0547
 5911W        W22095  12.047   8.099  12.082  0.0450  0.1525  0.1364
 5912W        W22096  10.610   8.867  11.269 -0.5380  0.3048  0.1443
 5913W        W22097   6.867   8.354   1.371  0.1255 -0.1554 -0.4731
 5914W        W22098  15.459  11.426  15.449  0.1302 -0.1230 -0.0111
 5915W        W22099  17.467   6.359  13.715 -0.1376 -0.0836 -0.1325
 5916W        W22100  10.016  15.604   0.442  0.3710 -0.5260 -0.1039
 5917W        W22101   4.007  17.788   2.086 -0.0662 -0.3164 -0.1890
 5918W        W22102   6.065  14.365   0.628 -0.1579  0.0749 -0.1171
 5919W        W22103  11.911   9.548  15.026 -0.0193 -0.0694  0.0342
 5920W        W22104   7.802   9.539   2.711 -0.2968 -0.0306  0.0290
 5921W        W22105   0.612  11.836   2.083  0.5920  0.1294  0.0276
 5922W        W22106   2.655   8.326   5.557 -0.1565  0.2567 -0.1485
 5923W        W22107  17.936   3.494   0.170  0.0831  0.0564 -0.2702
 5924W        W22108  16.524  16.264  14.304 -0.1979  0.1201 -0.0851
 5925W        W22109  14.873   0.568  12.459 -0.1026 -0.0241  0.0708
 5926W        W22110   6.367   1.234  16.532  0.3163 -0.0156 -0.2603
 5927W        W22111  12.515   3.615   5.100  0.2475  0.1880  0.2652
 5928W        W22112   9.812   6.102   3.010 -0.1051 -0.1579 -0.0073
 5929W        W22113   3.089   2.291  14.949 -0.3461  0.1415 -0.1347
 5930W        W22114   7.295   7.909   1.382  0.2057 -0.2438  0.1353
 5931W        W22115  17.963  12.923  11.531 -0.0554  0.0840 -0.2531
 5932W        W22116   7.319   3.146  12.562 -0.0957 -0.2271 -0.3101
 5933W        W22117   3.820   2.778   5.396  0.1073 -0.0225 -0.1485
 5934W        W22118  16.580   4.743  12.380 -0.0609 -0.2495 -0.4031
 5935W        W22119  13.972   6.819   4.505  0.0252  0.0569  0.0073
 5936W        W22120   8.956   9.640  14.952  0.0996  0.3106  0.1394
 5937W        W22121  10.432   2.245  12.653  0.1767  0.4213  0.1642
 5938W        W22122  14.564   6.222  11.591  0.0973  0.0344 -0.0143
 5939W        W22123   1.189   0.924   2.070  0.2380 -0.0519 -0.0869
 5940W        W22124   6.789  11.589   1.831  0.1303  0.2480  0.0529
 5941W        W22125   2.855   6.866   4.849  0.1155  0.0443 -0.0729
 5942W        W22126  10.717  12.334  15.611  0.2226 -0.0246  0.1324
 5943W        W22127   0.810   9.467  11.685 -0.2903  0.0619 -0.0586
 5944W        W22128   2.803  10.481   4.690  0.1052  0.0841 -0.0291
 5945W        W22129   6.873   1.731   4.784  0.2128  0.0458  0.1895
 5946W        W22130   1.059   6.130  14.577 -0.2067 -0.1010  0.0737
 5947W        W22131   2.496   2.850   6.039 -0.0879 -0.0625  0.1739
 5948W        W22132   8.239   1.385   5.010  0.0698 -0.0875 -0.3058
 5949W        W22133  17.457  17.484   2.071  0.1801 -0.1894  0.0295
 5950W        W22134  13.471  10.469   2.595  0.0649 -0.0091 -0.0466
 5951W        W22135  15.533   1.035   4.775  0.0407 -0.2512 -0.1689
 5952W        W22136   3.361   1.223  13.194 -0.1388  0.1997 -0.1323
 5953W        W22137  16.086   4.097  15.673  0.2155 -0.0215 -0.2468
 5954W        W22138  17.729  13.157  11.920  0.1300 -0.0358  0.0596
 5955W        W22139   0.478  10.710  12.125 -0.0380  0.0307  0.0686
 5956W        W22140   8.862   9.171   3.747 -0.3781 -0.0151  0.1670
 5957W        W22141   8.723   2.515   1.368  0.0511  0.2047 -0.2168
 5958W        W22142   0.949  11.038   2.416 -0.2940 -0.1072  0.2581
 5959W        W22143   5.463   1.297  14.535  0.1788  0.0733 -0.2043
 5960W        W22144  15.683   5.444  16.344 -0.0850  0.0217 -0.0207
 5961W        W22145   0.863   8.014   0.693 -0.0015  0.1554  0.0348
 5962W        W22146   4.776  16.314  14.911 -0.1907  0.0224 -0.0003
 5963W        W22147   1.723  16.982  16.573 -0.0246 -0.1668 -0.1499
 5964W        W22148   2.259   3.445   5.681  0.0108 -0.1902  0.1156
 5965W        W22149  15.555   7.463  13.145  0.1000 -0.0411  0.0183
 5966W        W22150  15.245  14.760  12.378  0.0685  0.0372 -0.0731
 5967W        W22151  11.402   6.271   3.791 -0.0436 -0.3045  0.0611
 5968W        W22152  15.068  17.956   0.452  0.0137  0.0236  0.0305
 5969W        W22153  15.408   2.149  14.897 -0.0980  0.0661 -0.1887
 5970W        W22154  17.868  17.918   0.866  0.2275  0.0074  0.0855
 5971W        W22155  10.232   4.039  15.778  0.0488  0.0905  0.1728
 5972W        W22156   4.207  12.478   5.743  0.1030  0.2798  0.0930
 5973W        W22157  14.803  10.015   3.526  0.1285  0.1539  0.2502
 5974W        W22158  17.935   6.469   6.154 -0.1156  0.1977  0.2185
 5975W        W22159  12.910   6.597   2.988 -0.0422  0.3113  0.1082
 5976W        W22160  12.250  14.660  12.363  0.2765  0.2328 -0.0893
 5977W        W22161   1.558  14.793  13.085 -0.1351 -0.1013 -0.1448
 5978W        W22162  14.789  12.982   1.631  0.0835  0.0572 -0.0229
 5979W        W22163   7.777   9.046   2.952 -0.2222 -0.1154 -0.2231
 5980W        W22164  17.083   9.492   0.999 -0.1771  0.0148  0.0240
 5981W        W22165  10.500   3.641  12.510  0.3926 -0.0535  0.3412
 5982W        W22166  11.748  17.676  13.220  0.0398 -0.2074 -0.0523
 5983W        W22167  15.526   5.287   2.030 -0.0773  0.0604  0.0800
 5984W        W22168   9.616   1.831  13.769 -0.1244  0.1159 -0.2529
 5985W        W22169  12.929   8.315   0.392  0.1726  0.0563 -0.0234
 5986W        W22170  14.416   5.187   3.176  0.1461 -0.1463 -0.0990
 5987W        W22171   1.385  10.445  11.603 -0.0368 -0.1746  0.0869
 5988W        W22172  17.832  11.605  15.439  0.3519  0.3048 -0.0060
 5989W        W22173  14.914  17.957  14.879  0.2623 -0.2260 -0.0950
 5990W        W22174   3.012   0.513  11.671  0.2012 -0.1403  0.1066
 5991W        W22175   6.323   2.493   3.293 -0.0001 -0.2959 -0.0058
 5992W        W22176  14.137   8.693   1.474  0.0154 -0.2682 -0.5483
 5993W        W22177   5.804   5.212   4.559 -0.1970 -0.2227 -0.2507
 5994W        W22178   1.131  14.430  16.142  0.0971 -0.2638 -0.0357
 5995W        W22179   1.162  13.502   3.412  0.0395 -0.0117  0.2388
 5996W        W22180   7.048  12.999   0.302  0.1206 -0.0400  0.0768
 5997W        W22181   8.161   4.419  11.859 -0.0584  0.0703  0.0902
 5998W        W22182  10.659   6.095   1.050  0.0427 -0.0841 -0.0926
 5999W        W22183  15.973  12.423  13.175  0.0205 -0.2556  0.1174
 6000W        W22184   2.360  11.969   2.979  0.1790 -0.0968  0.1217
 6001W        W22185  10.603  13.825   2.450  0.1135 -0.2955  0.0347
 6002W        W22186  10.080  13.168   3.957  0.4402 -0.0174  0.1040
 6003W        W22187  14.764   9.933  12.735  0.0130 -0.0223 -0.0012
 6004W        W22188   6.578   5.638   4.103 -0.1984  0.0343  0.3197
 6005W        W22189   0.181   7.147   0.030 -0.0571  0.0458 -0.2645
 6006W        W22190  17.515   1.939   2.217  0.1567  0.1507 -0.1042
 6007W        W22191  16.986   2.956  12.986 -0.0190 -0.0783  0.1443
 6008W        W22192  16.756   7.919  11.939 -0.2028 -0.0351 -0.0641
 6009W        W22193   6.002   9.909   5.516 -0.0955 -0.4500 -0.0817
 6010W        W22194   9.829  10.482  16.323 -0.2667  0.0742 -0.0960
 6011W        W22195  12.153  16.025  15.099 -0.0052 -0.3351 -0.2156
 6012W        W22196   4.754   9.762  14.100  0.1727  0.1147 -0.1686
 6013W        W22197  13.063  17.519  10.989 -0.2361 -0.1057  0.3899
 6014W        W22198   2.574  15.649  12.887 -0.1364 -0.1458  0.2477
 6015W        W22199   8.680  10.248  12.285 -0.3563  0.1704  0.2697
 6016W        W22200   4.933  11.307  15.789 -0.1160 -0.3695  0.0158
 6017W        W22201  17.202   0.577  13.234 -0.4069  0.0042  0.4332
 6018W        W22202   5.634  10.545  12.184  0.1952  0.0384 -0.0952
 6019W        W22203   4.843  17.287   0.084 -0.0364 -0.0596  0.1538
 6020W        W22204   0.663   6.040  16.622  0.2842 -0.0980  0.2698
 6021W        W22205  15.250   1.279  13.015 -0.2425  0.2197 -0.0568
 6022W        W22206   2.276   5.324  15.958 -0.2324  0.0701 -0.1435
 6023W        W22207   0.175   4.204  16.329  0.0683  0.0318  0.0829
 6024W        W22208  17.407  11.999   0.224  0.1372  0.0741 -0.1305
 6025W        W22209  10.145   7.292   1.378 -0.1450  0.1945 -0.0720
 6026W        W22210   9.956   1.689   2.031  0.0606 -0.0958 -0.5081
 6027W        W22211   3.460   2.335   0.048  0.1377  0.1448 -0.0313
 6028W        W22212   7.458   5.504  14.491 -0.1412 -0.6006  0.0943
 6029W        W22213   6.700   3.386   5.605 -0.0484  0.0766 -0.1734
 6030W        W22214  11.379   2.929   5.512 -0.0430 -0.2096 -0.2682
 6031W        W22215  11.170  11.705  15.619  0.4813 -0.0869 -0.1627
 6032W        W22216   0.239  10.623  16.625  0.0570 -0.0929 -0.3237
 6033W        W22217  13.804  10.753  13.331  0.1115 -0.2159  0.5050
 6034W        W22218   9.679   9.466   1.775  0.1279 -0.4256 -0.0824
 6035W        W22219   9.749   2.632   1.876 -0.2415  0.0998 -0.0675
 6036W        W22220  10.308   4.407  12.972  0.1621 -0.1849 -0.1530
 6037W        W22221   3.601  11.386  12.963  0.0716  0.4430 -0.2006
 6038W        W22222   4.046   6.838  13.332  0.0807 -0.1570  0.2020
 6039W        W22223   0.480   1.582   0.163 -0.3980 -0.1299  0.0395
 6040W        W22224  10.813  15.514   4.223  0.1392  0.0026 -0.0185
 6041W        W22225  15.747   0.301  14.799 -0.0277 -0.1066  0.0706
 6042W        W22226   2.643  14.053  11.036 -0.0105  0.3567  0.0189
 6043W        W22227   4.449  12.056  14.391  0.3242  0.0491  0.3031
 6044W        W22228  11.684   1.213  14.802  0.3005  0.0678 -0.1625
 6045W        W22229  15.557  17.107   2.371 -0.1031  0.3336 -0.1282
 6046W        W22230  15.040   5.221  15.161  0.0322 -0.2010 -0.0672
 6047W        W22231  16.632   6.200   4.232 -0.0862  0.1881  0.1754
 6048W        W22232   2.409  11.414  15.488 -0.1525 -0.0211 -0.4161
 6049W        W22233   7.058   7.448   2.548 -0.0906  0.1597  0.2936
 6050W        W22234   8.717  10.001   1.631  0.0297 -0.1886 -0.1511
 6051W        W22235  13.806   6.641  15.340 -0.0544  0.1565 -0.4052
 6052W        W22236   5.945  12.979  12.563 -0.3294 -0.0646  0.2707
 6053W        W22237   5.172   9.764   0.717 -0.0824  0.0655  0.1723
 6054W        W22238  13.846   4.378  15.602  0.0220 -0.2767 -0.2317
 6055W        W22239   4.399   2.682   4.180 -0.0659  0.1029 -0.0218
 6056W        W22240  11.911  13.064  12.683  0.0388  0.3520 -0.0000
 6057W        W22241   0.134  14.706   2.161 -0.0140  0.0240 -0.0364
 6058W        W22242   8.944  16.624   3.209 -0.1419 -0.2831  0.1026
 6059W        W22243   3.229   1.761   4.294  0.1234 -0.1137 -0.2678
 6060W        W22244   7.782   9.357  14.498  0.2151 -0.1292  0.0046
 6061W        W22245  12.091   0.320   4.911 -0.2204 -0.2599  0.1295
 6062W        W22246   7.934  15.160   4.063  0.3593  0.1513  0.3716
 6063W        W22247   6.358   1.257   4.690 -0.0310  0.2249 -0.1923
 6064W        W22248   3.588  17.549   2.279  0.3163 -0.2167  0.0439
 6065W        W22249   2.193   9.609   5.685  0.0384 -0.0836  0.1444
 6066W        W22250  15.774  14.155  12.710 -0.1602 -0.2877 -0.1205
 6067W        W22251   7.513  17.219  13.484  0.3572  0.3112 -0.1239
 6068W        W22252  14.616   3.456  16.196  0.0757 -0.1794 -0.0340
 6069W        W22253   3.750  14.102  11.996 -0.1733  0.1182 -0.1056
 6070W        W22254   4.019   8.028  13.978 -0.2371 -0.1230  0.3384
 6071W        W22255  14.964   1.085  16.236 -0.0639  0.0205 -0.0603
 6072W        W22256   1.284  16.425   0.443  0.3492  0.2111 -0.0512
 6073W        W22257  10.109   2.404  15.046  0.3070 -0.1286 -0.2892
 6074W        W22258   1.828  15.176   2.483 -0.3417  0.1150  0.0729
 6075W        W22259  14.366   2.570   1.323 -0.4363 -0.2301 -0.0693
 6076W        W22260  14.607   8.597   2.226  0.1560 -0.0666  0.2675
 6077W        W22261  10.001  14.950   1.320  0.0384 -0.2051 -0.0814
 6078W        W22262  17.810   7.188  16.354  0.0444  0.0124 -0.1726
 6079W        W22263  16.624  16.712  11.208  0.3697  0.2076  0.4472
 6080W        W22264   5.284   4.430  13.940  0.1016 -0.2418 -0.1318
 6081W        W22265  16.440   5.350  11.601 -0.0469 -0.3699  0.2910
 6082W        W22266  10.912  15.502   1.138 -0.0639 -0.3897 -0.0445
 6083W        W22267   4.743   2.412  15.627  0.0633 -0.1962  0.0706
 6084W        W22268   0.376  14.120  14.482  0.0332  0.0850  0.1370
 6085W        W22269   6.110   5.085   1.218 -0.2765 -0.0896 -0.0382
 6086W        W22270   8.216   3.994   1.024 -0.2817  0.0463 -0.0577
 6087W        W22271   7.394   7.110   2.318 -0.0347  0.1138  0.4323
 6088W        W22272   8.331   6.441  15.575  0.2936 -0.0555 -0.0479
 6089W        W22273   7.118   5.761   4.160 -0.0304 -0.0331  0.1421
 6090W        W22274   6.606  10.359   2.434  0.0084 -0.1442  0.0381
 6091W        W22275   2.133   8.936  14.313 -0.1924 -0.0112  0.0457
 6092W        W22276  16.540  11.041  11.898  0.3028 -0.1622 -0.1435
 6093W        W22277  13.916   2.862   0.089 -0.2032 -0.0415  0.1063
 6094W        W22278  12.247  17.328  16.256  0.4754 -0.0213  0.3166
 6095W        W22279   4.135  11.074   4.836 -0.2671  0.0922  0.0371
 6096W        W22280  12.978   0.561  12.509  0.1530 -0.0536  0.2336
 6097W        W22281   1.965  14.250   5.176 -0.1113 -0.1931  0.0808
 6098W        W22282   9.216   7.466  11.968  0.1409 -0.0265  0.0486
 6099W        W22283   9.484  17.562  14.379  0.1025  0.2532  0.0018
 6100W        W22284   6.956  17.593  13.453  0.1180  0.0606  0.4331
 6101W        W22285   6.051  17.479  16.407  0.0341 -0.3295  0.2822
 6102W        W22286   6.591   7.716   3.142  0.0189  0.1282  0.1977
 6103W        W22287   9.915  14.095   4.014  0.1023 -0.1738 -0.2329
 6104W        W22288   6.460  16.917  14.662  0.2946  0.1872 -0.2459
 6105W        W22289  12.248   8.692   1.642  0.0900 -0.0010  0.0351
 6106W        W22290   7.434   4.249  14.782  0.1164  0.1774  0.1522
 6107W        W22291   7.984   0.483   3.654 -0.0601  0.0611  0.1709
 6108W        W22292   1.486  15.957  14.615  0.3951  0.1797 -0.0851
 6109W        W22293  17.211   1.371  13.253 -0.1204 -0.1536  0.2119
 6110W        W22294   3.559   7.646   2.737 -0.2700  0.2509 -0.0379
 6111W        W22295   3.737   5.886  15.180 -0.0281 -0.2076 -0.2619
 6112W        W22296   4.484  12.127  12.052  0.0293  0.1632  0.3653
 6113W        W22297   6.854   7.015   1.477  0.0566  0.1181 -0.2258
 6114W        W22298  17.938  16.126   1.241  0.3136  0.0098  0.1175
 6115W        W22299   8.798  16.594   5.033 -0.0101  0.1490 -0.4314
 6116W        W22300   0.325  12.611  13.388  0.3079  0.0275  0.0640
 6117W        W22301  11.847   7.048   2.521 -0.1909 -0.2748  0.1572
 6118W        W22302  10.099  14.004   1.455  0.0523  0.1009  0.0528
 6119W        W22303   3.998   7.545   5.609 -0.2054  0.0514  0.2411
 6120W        W22304   7.526   6.433  15.476 -0.0529 -0.2444 -0.1683
 6121W        W22305  10.016  10.318  14.462  0.1047 -0.3080 -0.1464
 6122W        W22306  17.745  11.143   0.589  0.0108 -0.0151 -0.0284
 6123W        W22307   5.486  15.553  13.975 -0.2728  0.3808 -0.0294
 6124W        W22308  13.275  10.194   3.297 -0.0170  0.1150 -0.1977
 6125W        W22309  10.838   1.301   3.616 -0.2211  0.0793  0.1301
 6126W        W22310  10.101  13.827  11.382  0.4214 -0.0211  0.2436
 6127W        W22311  10.325   2.567  13.306  0.1063  0.1456 -0.0713
 6128W        W22312   2.298   1.812   1.344 -0.2343  0.0028  0.0523
 6129W        W22313   0.463   4.080   3.304 -0.1109  0.0546 -0.0922
 6130W        W22314  13.552  10.245   0.985 -0.1510  0.2415 -0.0847
 6131W        W22315  14.716   3.984   5.245  0.0115  0.4169  0.3376
 6132W        W22316  17.277   7.685   2.026  0.0698 -0.1067  0.1116
 6133W        W22317   0.741   9.040   4.907  0.2302 -0.1843  0.1437
 6134W        W22318  11.798   3.752   1.471 -0.1482  0.3743 -0.0464
 6135W        W22319   7.264   5.318   3.524  0.2104  0.0069 -0.1694
 6136W        W22320   2.688   9.049   2.459 -0.0448 -0.0032 -0.1087
 6137W        W22321   6.269  17.760   5.923 -0.0515  0.0235  0.0133
 6138W        W22322   1.057  16.309   0.007 -0.2114 -0.0316  0.0445
 6139W        W22323   8.646  10.689   5.406 -0.3651  0.1845  0.0594
 6140W        W22324   6.851  14.215   1.077  0.2311 -0.1875  0.2475
 6141W        W22325   5.494   6.993  16.037 -0.3535 -0.0127 -0.1822
 6142W        W22326   7.745  14.285  15.893 -0.3035  0.0064 -0.0497
 6143W        W22327   1.393  12.589  12.966  0.2318  0.1894 -0.3589
 6144W        W22328   2.038   1.150  14.146  0.1048 -0.0289  0.0848
 6145W        W22329  11.430   2.022  12.394  0.2084 -0.0243 -0.4234
 6146W        W22330  15.881  14.939  14.730  0.4637  0.1864  0.1307
 6147W        W22331  16.941   6.816  10.275 -0.3052 -0.0952  0.0349
 6148W        W22332   9.643   1.784  15.774 -0.0688  0.1009 -0.1439
 6149W        W22333   8.073   3.691   0.545  0.1314  0.1999  0.0636
 6150W        W22334   5.082  11.087   1.005  0.1364 -0.2161 -0.0373
 6151W        W22335   1.363   7.473  12.720  0.1641 -0.0892 -0.0573
 6152W        W22336  16.090  17.532   3.511  0.0822  0.0283 -0.4746
 6153W        W22337   7.728   5.549  15.751 -0.0744  0.0982  0.0557
 6154W        W22338   1.102   6.655  14.523 -0.1184 -0.0570  0.1380
 6155W        W22339  17.927  14.139  13.015 -0.0511  0.0902  0.2265
 6156W        W22340  15.194   8.433   6.210 -0.1760 -0.1207  0.1430
 6157W        W22341   3.947   5.214   6.236  0.1281 -0.0359 -0.0538
 6158W        W22342  17.584  16.513  15.187  0.1194  0.0557 -0.0303
 6159W        W22343   8.827  10.537   2.119 -0.0599 -0.4151  0.0107
 6160W        W22344  14.559   7.749  13.065  0.1036 -0.2942  0.0388
 6161W        W22345  17.457  12.130  13.297 -0.0113 -0.1031 -0.0373
 6162W        W22346   0.107   4.796   3.102  0.0108  0.2407  0.3104
 6163W        W22347   5.104  12.817   4.237  0.0307  0.0585  0.1127
 6164W        W22348   6.363   6.201   1.905  0.0211 -0.0698  0.3039
 6165W        W22349   4.879  16.573  16.455 -0.1178 -0.5049 -0.0482
 6166W        W22350   7.483  16.963   4.573 -0.1504 -0.1565  0.1398
 6167W        W22351   5.864   2.563  12.734  0.0472 -0.0088  0.0340
 6168W        W22352  11.538  16.548  15.568  0.1009 -0.2643  0.2513
 6169W        W22353  11.672  14.996  12.927 -0.0793 -0.0898 -0.1278
 6170W        W22354  16.505  17.409  13.096  0.1197 -0.1766  0.1215
 6171W        W22355   9.515  13.788   4.182 -0.2795  0.0577  0.2501
 6172W        W22356   7.822   7.488   0.920  0.1243  0.1931 -0.1308
 6173W        W22357   6.744   7.022   2.451 -0.0179 -0.2017  0.1996
 6174W        W22358   7.891   3.362   2.652 -0.2659  0.1237  0.1765
 6175W        W22359  12.294  12.323   5.839  0.0072  0.0008 -0.1986
 6176W        W22360  14.943   1.976  11.867  0.0342  0.1246  0.0097
 6177W        W22361   4.532   0.613   3.569 -0.1157 -0.0155 -0.0521
 6178W        W22362   8.480   8.240  16.011 -0.0011  0.1174 -0.2164
 6179W        W22363  17.349   3.878  11.911  0.0094  0.1376  0.0274
 6180W        W22364   6.949   4.542  12.509  0.1564 -0.0652  0.0635
 6181W        W22365   8.419   7.170  12.441  0.0486  0.1703 -0.2053
 6182W        W22366   1.083   4.501   3.927 -0.1247 -0.0118  0.0603
 6183W        W22367   5.870   6.218   2.154 -0.1708  0.0995  0.0501
 6184W        W22368  15.972  17.082   0.838 -0.0045 -0.3034  0.1650
 6185W        W22369  16.769   7.286  10.545 -0.0175 -0.0974  0.2027
 6186W        W22370  15.406  10.922   1.070 -0.2055 -0.0170 -0.1928
 6187W        W22371   2.948  13.328  15.092  0.0908 -0.1921 -0.0273
 6188W        W22372  12.537  14.313  16.281 -0.0298 -0.1079  0.0566
 6189W        W22373  16.143   5.835  16.328  0.1427 -0.0149 -0.0522
 6190W        W22374   1.338   5.567  16.240  0.0993  0.1975  0.1243
 6191W        W22375  10.245   2.898  12.002  0.0408 -0.1512 -0.0761
 6192W        W22376   4.903   3.838  15.419  0.1440  0.0570  0.2324
 6193W        W22377   7.481   4.061   2.353  0.1923  0.1378 -0.0232
 6194W        W22378  10.184  15.737  16.194 -0.0099 -0.0168  0.3321
 6195W        W22379   1.755   9.300  11.616 -0.1216  0.2883 -0.1391
 6196W        W22380   9.356   6.875   0.875  0.0341 -0.0097  0.1842
 6197W        W22381  12.589   9.661  14.594 -0.1305 -0.0759 -0.2770
 6198W        W22382   7.357   0.161  14.788  0.2474  0.1309 -0.0537
 6199W        W22383  10.745  15.847  13.659 -0.2326  0.1036 -0.1630
 6200W        W22384   5.228  16.586  15.748  0.2481  0.1041  0.1693
 6201W        W22385  16.605  14.769  15.157 -0.0937 -0.0996  0.3390
 6202W        W22386   1.619   9.093   1.983  0.1381  0.3041 -0.3257
 6203W        W22387   4.567  11.142  12.200 -0.1103 -0.2956  0.2404
 6204W        W22388   6.987   4.078  13.166  0.4536  0.0718  0.1399
 6205W        W22389   0.911   7.536  15.152 -0.2540  0.2062 -0.1574
 6206W        W22390  12.074  12.913  11.798  0.0210 -0.3177 -0.1181
 6207W        W22391  14.543   4.132   4.799  0.0668  0.2592 -0.2979
 6208W        W22392   0.933   9.827   0.129  0.1105  0.0560  0.0144
 6209W        W22393   8.844  15.556  15.713  0.1913 -0.1226  0.3263
 6210W        W22394  17.465   6.423   2.914 -0.3905 -0.1042  0.0237
 6211W        W22395   1.431   3.235   4.684  0.0359 -0.1825 -0.0398
 6212W        W22396  14.993   7.011   2.521 -0.1237  0.0975 -0.0313
 6213W        W22397   3.277   4.781   4.527 -0.0948  0.1458 -0.0861
 6214W        W22398  17.213   3.389  13.132 -0.0248  0.0434  0.0557
 6215W        W22399   1.818   6.881   3.645  0.0027 -0.1741 -0.0229
 6216W        W22400  17.605  13.873   3.223  0.0865 -0.1662 -0.0545
 6217W        W22401   0.688  16.863  12.187  0.3760 -0.2092  0.3159
 6218W        W22402   6.491  11.977  15.101  0.2887  0.0617  0.1198
 6219W        W22403  14.166  16.105  14.881  0.0281 -0.2042 -0.0645
 6220W        W22404  14.056   1.652   1.440 -0.0575  0.2013  0.0784
 6221W        W22405   8.414  15.188  14.077 -0.2867  0.2599 -0.1163
 6222W        W22406  11.493  16.050   1.089 -0.0367 -0.1104 -0.1508
 6223W        W22407  15.317  16.976  16.439  0.0163 -0.1322  0.0159
 6224W        W22408  16.288   6.811  15.040  0.0495 -0.1500  0.1145
 6225W        W22409  17.991  13.487  14.958  0.1916  0.0238 -0.1422
 6226W        W22410   6.716  13.982   2.967  0.0019  0.1122  0.1490
 6227W        W22411  12.099  17.861   4.633  0.0029  0.2072  0.0028
 6228W        W22412   7.146  14.399  16.422 -0.1155  0.0698  0.2294
 6229W        W22413  15.241   8.656   3.955 -0.1409 -0.0331  0.2738
 6230W        W22414   5.264   0.550   2.490  0.0336 -0.1141 -0.1689
 6231W        W22415   6.030   0.579   0.357 -0.0845 -0.1786  0.5540
 6232W        W22416   9.207   3.166   6.627  0.0403  0.0987  0.5120
 6233W        W22417   5.920   4.247   5.682  0.0576 -0.3036  0.0083
 6234W        W22418   2.966   8.998   5.505 -0.2609  0.1801  0.3259
 6235W        W22419  11.968  10.768   4.268  0.2854  0.0083 -0.2551
 6236W        W22420  13.473   8.373   3.701 -0.0578 -0.1043  0.2177
 6237W        W22421   3.804  13.970   6.356  0.1400 -0.0892 -0.1332
 6238W        W22422  12.513   7.945  12.171  0.0158  0.3555  0.0819
 6239W        W22423  15.153   5.098   0.144  0.1046  0.1228  0.0442
 6240W        W22424   3.709  14.033  14.155 -0.1933 -0.1872 -0.1976
 6241W        W22425   1.316  11.127  13.742  0.1514 -0.0091 -0.1759
 6242W        W22426  13.420   1.615   0.172  0.0487 -0.1842  0.1490
 6243W        W22427  14.454   1.713   2.611 -0.1913 -0.2094 -0.0317
 6244W        W22428  15.508   1.308   2.254  0.0039  0.0846  0.1295
 6245W        W22429  15.903   3.783   4.482  0.1015  0.1148  0.1901
 6246W        W22430  15.446  13.894   2.217 -0.1754  0.1674  0.1235
 6247W        W22431   1.351   3.540   1.168 -0.0190 -0.2534  0.3047
 6248W        W22432  17.265  12.476   4.579 -0.1260  0.3120  0.3204
 6249W        W22433  14.951   4.443   2.397 -0.0418 -0.0576  0.2769
 6250W        W22434   8.190  14.442  15.206 -0.2109  0.0857 -0.1315
 6251W        W22435   2.441   5.203  13.562  0.0100 -0.1502  0.1407
 6252W        W22436   0.551   2.117  11.688  0.1294 -0.0234  0.1014
 6253W        W22437   0.618  16.069   2.398 -0.0459  0.2569 -0.2397
 6254W        W22438  13.652  13.739   0.838 -0.1351 -0.0384  0.1993
 6255W        W22439  17.909  13.184   0.546  0.0056  0.2897  0.0966
 6256W        W22440   2.228  13.431   2.243  0.3459  0.1577  0.0317
 6257W        W22441   8.729   5.635   0.172  0.0657 -0.0730  0.0840
 6258W        W22442   1.964   3.757  14.860 -0.1074  0.0626 -0.2729
 6259W        W22443  16.160  10.425   0.911 -0.1464 -0.1410  0.2918
 6260W        W22444   2.711   9.151  16.148  0.3835 -0.0253 -0.3367
 6261W        W22445   9.311   0.218   2.830 -0.2056  0.2385 -0.0996
 6262W        W22446  11.048   7.545   1.413 -0.2861  0.3443 -0.2091
 6263W        W22447   7.482   0.627  16.384 -0.0328 -0.0741 -0.0296
 6264W        W22448  11.805  10.358   3.172 -0.0053 -0.0109 -0.3002
 6265W        W22449   4.650   5.921   4.664 -0.1102 -0.0321  0.0549
 6266W        W22450  13.725  12.278   4.624  0.0995 -0.1846  0.0591
 6267W        W22451   1.714   8.540   1.410  0.0162 -0.1837 -0.1632
 6268W        W22452   3.456  11.233  15.695 -0.1864 -0.1621 -0.1126
 6269W        W22453  13.351  12.730  11.882  0.1617  0.1082  0.1679
 6270W        W22454  13.522   4.865  12.511 -0.0181  0.1608  0.1101
 6271W        W22455   2.280   9.538   2.228  0.1039  0.0985 -0.1875
 6272W        W22456  12.828  13.239  12.398 -0.1952  0.0718 -0.4018
 6273W        W22457   7.148  11.409   6.090  0.2227 -0.1332 -0.0228
 6274W        W22458  18.004   9.849   1.453  0.1997  0.2545 -0.1230
 6275W        W22459  13.891   2.885  12.056  0.0680 -0.3044 -0.1692
 6276W        W22460  11.189  11.684   1.838 -0.0787 -0.0665 -0.0393
 6277W        W22461   5.394   2.357   4.280 -0.2359 -0.0199  0.1718
 6278W        W22462   0.009   2.921   2.398 -0.3119  0.0669 -0.1703
 6279W        W22463  17.604   5.017   4.232  0.0750  0.3438  0.0821
 6280W        W22464  13.031   5.140  15.082  0.0365 -0.5058  0.2681
 6281W        W22465  12.576   8.323   0.053  0.2062  0.0793 -0.0828
 6282W        W22466   1.904  15.592  12.141 -0.1013  0.1503  0.0212
 6283W        W22467  15.726  10.132  12.479 -0.0114  0.0321  0.1290
 6284W        W22468   3.049   2.181   1.628 -0.0009 -0.1361 -0.0006
 6285W        W22469   8.743  14.202  14.099  0.0706  0.0545  0.0722
 6286W        W22470   8.648   1.172   5.419  0.2373  0.0489 -0.0369
 6287W        W22471  14.533   2.603  11.426 -0.0995 -0.0374  0.1216
 6288W        W22472   8.597  10.481   1.313 -0.0641 -0.1333  0.1610
 6289W        W22473   5.775   3.673   6.450 -0.1961  0.2027 -0.0116
 6290W        W22474   9.347  14.853  14.386  0.0966 -0.0460 -0.0630
 6291W        W22475  14.622   2.544   5.200 -0.1888 -0.0848 -0.3562
 6292W        W22476  10.471   9.412   0.030 -0.2273 -0.2746 -0.0420
 6293W        W22477  13.903   5.000  11.847  0.1745 -0.2187  0.1923
 6294W        W22478   1.248  15.255   4.539  0.1343 -0.1484  0.1922
 6295W        W22479   9.165  13.591  14.690  0.2895 -0.0616 -0.2323
 6296W        W22480   1.646   5.953  11.731 -0.1171  0.0092 -0.0232
 6297W        W22481   7.918  12.846   3.466 -0.3007 -0.0075  0.0710
 6298W        W22482   0.435  16.240   1.971 -0.1252 -0.0248  0.0203
 6299W        W22483  15.930  15.929  13.239  0.0411 -0.0113 -0.1846
 6300W        W22484  13.580   4.010  13.061  0.1720  0.0050 -0.0835
 6301W        W22485  12.049  16.468   4.189 -0.0642 -0.2028  0.0370
 6302W        W22486   8.649   9.311   2.671 -0.2139  0.2291  0.0742
 6303W        W22487   9.363  14.471   3.434 -0.0017 -0.0778  0.1812
 6304W        W22488  16.745   8.356  13.676 -0.2612 -0.2643 -0.2833
 6305W        W22489  17.859   8.118  14.261  0.0106  0.1530 -0.1099
 6306W        W22490  13.865  17.132   4.071  0.0577  0.0658 -0.2475
 6307W        W22491  12.559   9.923  12.670  0.0429  0.0466 -0.1006
 6308W        W22492   7.693  12.251   0.497 -0.3500  0.2432  0.0696
 6309W        W22493   5.356   0.701  15.849 -0.0203 -0.2149  0.1025
 6310W        W22494   1.784  16.732   4.766 -0.0176  0.0474 -0.2841
 6311W        W22495   0.589   9.279   3.454 -0.0699  0.0504 -0.0257
 6312W        W22496  16.065   5.000   5.034 -0.0327 -0.0765  0.1538
 6313W        W22497  12.214   9.909  13.197 -0.1417 -0.2939  0.0928
 6314W        W22498   0.569   5.242  15.434  0.1014 -0.0805  0.0340
 6315W        W22499   8.507   7.320   3.285 -0.1081 -0.0709  0.0890
 6316W        W22500   3.075  11.675  16.033 -0.2200 -0.2481 -0.0026
 6317W        W22501  10.013  17.653  14.524 -0.0046  0.0697  0.0867
 6318W        W22502   5.317   3.948   3.394 -0.0122  0.0556 -0.0886
 6319W        W22503   3.331  14.888  11.826 -0.0800 -0.0799  0.0761
 6320W        W22504  15.403  10.074   2.967 -0.0693  0.3662 -0.1617
 6321W        W22505  13.189  17.632  12.537 -0.1669 -0.4774 -0.4897
 6322W        W22506   1.774  13.290  15.149  0.2651 -0.2353 -0.0627
 6323W        W22507   9.513  15.611  13.105  0.2125  0.1230 -0.2002
 6324W        W22508  12.184  14.134  13.345  0.2952  0.2417 -0.0826
 6325W        W22509   0.509  12.133  13.487  0.2997 -0.0359 -0.0889
 6326W        W22510   8.241   7.331  16.030  0.0260  0.4153  0.0868
 6327W        W22511   8.344  11.217   0.582  0.1550 -0.0810  0.0774
 6328W        W22512   1.168   1.570  16.647 -0.2736 -0.2616  0.2149
 6329W        W22513  12.619  14.217  14.698 -0.2183  0.0627  0.5003
 6330W        W22514  13.033   1.102  12.427  0.1713  0.0076  0.0042
 6331W        W22515   0.625   8.629   1.456 -0.0011 -0.1445  0.1948
 6332W        W22516   4.826  12.179  14.678 -0.1207 -0.1127 -0.2959
 6333W        W22517   2.881   0.722   1.652  0.0112 -0.1368  0.0184
 6334W        W22518  10.657  12.169  15.129  0.3696  0.1241 -0.1221
 6335W        W22519   1.619  17.375   0.760 -0.1728 -0.1767  0.1285
 6336W        W22520   6.809  11.637   2.824 -0.0176 -0.2865  0.0778
 6337W        W22521   7.661  16.101   2.330 -0.2854  0.1934  0.2160
 6338W        W22522  17.721   7.248   0.273  0.2472  0.3726 -0.1772
 6339W        W22523  12.953  14.757  11.598  0.0594 -0.1367 -0.0445
 6340W        W22524   1.660   2.020  15.414  0.1661  0.1630  0.1535
 6341W        W22525   3.514  16.312   4.629  0.0862 -0.0435  0.0339
 6342W        W22526  10.054   8.478   3.420  0.2356  0.3120 -0.1048
 6343W        W22527  13.306  11.601   4.016  0.2617  0.3296  0.2003
 6344W        W22528   3.860   9.941   1.430 -0.1332  0.0300  0.1674
 6345W        W22529   5.178  11.402   2.503 -0.0682 -0.0232 -0.2229
 6346W        W22530   2.575   3.632  13.536  0.0643  0.0577  0.2186
 6347W        W22531   6.239   1.517  13.400  0.1481  0.0269 -0.0285
 6348W        W22532   1.135   4.263   2.041 -0.0059 -0.0210 -0.0628
 6349W        W22533   9.390  12.627   2.375 -0.0803  0.0432 -0.0309
 6350W        W22534   8.345   4.835   2.756 -0.1540 -0.0282 -0.2265
 6351W        W22535  17.804   7.933   3.467  0.0488  0.0707 -0.0109
 6352W        W22536   0.150   3.064  13.803  0.1794 -0.2622  0.1389
 6353W        W22537   6.225  13.063   0.849 -0.0384  0.2232  0.1987
 6354W        W22538   1.412   4.260  13.650 -0.1712 -0.1133 -0.2118
 6355W        W22539  12.702   5.972   1.176 -0.2354 -0.0533 -0.1445
 6356W        W22540   3.747  10.790   4.491  0.0520  0.2572 -0.1172
 6357W        W22541  16.283  10.145   1.843 -0.0164 -0.1086  0.0322
 6358W        W22542   9.534  13.106   0.210 -0.0327  0.1208 -0.0272
 6359W        W22543   9.615   3.452  15.023  0.2316 -0.0967 -0.0358
 6360W        W22544   8.326  14.785   2.126  0.2685  0.3096 -0.2071
 6361W        W22545   8.060   8.967  12.828 -0.1828  0.1173 -0.0381
 6362W        W22546   5.618   7.095   4.340  0.2263 -0.0325  0.2335
 6363W        W22547   4.390   0.803  12.464  0.2567  0.0445 -0.1397
 6364W        W22548  15.852   2.657   6.074  0.1654  0.3698 -0.0760
 6365W        W22549  12.984  12.489   5.178 -0.2731  0.1923  0.2184
 6366W        W22550  11.003  10.709  13.556 -0.1374 -0.0843  0.2089
 6367W        W22551   0.544   4.249  14.709  0.0637 -0.0251 -0.2843
 6368W        W22552  10.715  16.696   1.799 -0.2292 -0.0350 -0.0452
 6369W        W22553   3.128  17.965   3.060 -0.2287 -0.1091  0.2048
 6370W        W22554  12.299  16.513  14.745  0.0274 -0.1012  0.0865
 6371W        W22555  11.013  16.322   1.917 -0.0679  0.0462  0.3604
 6372W        W22556  10.840   2.797   1.571  0.3183  0.3292  0.0025
 6373W        W22557  10.763  13.158  11.736 -0.1810  0.0331 -0.3310
 6374W        W22558  13.287  15.244   2.519  0.1716  0.2610 -0.0316
 6375W        W22559   3.139  15.267   0.508  0.0810 -0.1796  0.1919
 6376W        W22560  13.345  17.210   2.169  0.3167 -0.1444  0.0400
 6377W        W22561  13.198   9.728   3.086 -0.2674 -0.3341 -0.1937
 6378W        W22562  14.921   0.962  13.815  0.5589 -0.1912  0.1318
 6379W        W22563   3.234  13.112   4.305 -0.0126  0.0822 -0.2973
 6380W        W22564  13.519  15.314  13.423  0.3641  0.0312  0.1131
 6381W        W22565   7.453   9.976   3.846 -0.0194  0.0231 -0.1543
 6382W        W22566   4.632  14.259   2.945  0.2645  0.1040  0.2140
 6383W        W22567   5.351   4.102  15.896  0.0877  0.1639  0.0166
 6384W        W22568   5.355  14.042   5.147  0.0221 -0.0601  0.2262
 6385W        W22569   7.788   6.271   2.798 -0.1403 -0.1274 -0.0694
 6386W        W22570   4.889   4.116   2.425  0.2690 -0.0384 -0.2271
 6387W        W22571   4.524   1.235   5.302  0.1534  0.1071  0.0484
 6388W        W22572  16.281   2.867   0.472 -0.1154  0.1895 -0.2489
 6389W        W22573  17.153   9.116   0.626  0.0868  0.2100 -0.2639
 6390W        W22574  11.098  14.638   2.602 -0.2523  0.1634  0.1069
 6391W        W22575   0.248  16.344  11.407 -0.0908  0.2152  0.2050
 6392W        W22576  11.494  15.123  15.522  0.0801  0.2556 -0.1543
 6393W        W22577  10.871  10.778   0.483  0.1339  0.2584  0.4420
 6394W        W22578   2.253  15.301   5.509  0.0705 -0.0830 -0.3324
 6395W        W22579   3.990   6.174   1.200  0.0348  0.1378 -0.0155
 6396W        W22580  12.433  17.759  15.430 -0.1453  0.2241  0.0681
 6397W        W22581  10.242   9.381   5.673  0.1350  0.0010  0.1517
 6398W        W22582  16.898  16.581   2.933 -0.1365 -0.0828 -0.0997
 6399W        W22583  15.473   7.274   0.592 -0.1167  0.0149  0.1727
 6400W        W22584   3.620   4.796  13.941 -0.2865  0.0770 -0.2227
 6401W        W22585  17.396   5.060  15.769 -0.3076  0.2640 -0.0008
 6402W        W22586   8.068   5.036  16.477  0.3244  0.1486 -0.2670
 6403W        W22587  16.323   4.982  14.628 -0.0008  0.2254  0.1267
 6404W        W22588  17.439   7.238   1.766 -0.0305 -0.0969  0.4004
 6405W        W22589   1.282  14.431   3.260  0.1135  0.0972  0.1626
 6406W        W22590  15.309  15.120  16.370  0.0104  0.1357  0.1561
 6407W        W22591  16.961  17.855  11.348 -0.1223  0.2003  0.1486
 6408W        W22592  10.682  16.793  15.190 -0.2114  0.1489 -0.0822
 6409W        W22593  11.120  13.950   0.232 -0.1816  0.0158  0.1456
 6410W        W22594   5.706  12.336   0.961 -0.4653  0.0754 -0.0063
 6411W        W22595  12.333   9.627   0.365 -0.1475  0.1270 -0.2663
 6412W        W22596   4.690  13.225   4.547  0.1594  0.1389 -0.0817
 6413W        W22597   2.130   5.957   4.882 -0.0141 -0.1102  0.0383
 6414W        W22598   5.551   2.342  14.830  0.4049  0.1891 -0.0879
 6415W        W22599  14.039   7.863   2.440  0.0846 -0.0567 -0.2334
 6416W        W22600   2.985   5.031   0.552  0.0283 -0.0209 -0.0229
 6417W        W22601   9.741  13.979   2.994  0.0327  0.2730  0.0615
 6418W        W22602  12.698  14.037   5.266 -0.0386 -0.1794 -0.2207
 6419W        W22603  10.423   4.075  11.717  0.0880  0.0153 -0.1149
 6420W        W22604  10.990  17.986   2.312 -0.0250 -0.1356 -0.1731
 6421W        W22605  17.440  15.366   5.417 -0.2999 -0.0324 -0.4554
 6422W        W22606   2.280   7.769   0.493  0.4477  0.2717  0.0248
 6423W        W22607  15.760  13.138   3.135  0.0163  0.2846  0.1408
 6424W        W22608  11.085   2.902  11.600 -0.3880  0.3253  0.2146
 6425W        W22609   7.651   2.875  16.292 -0.1074 -0.0849 -0.1641
 6426W        W22610   7.133   2.025   4.274 -0.0595 -0.1051  0.0745
 6427W        W22611   7.354  12.772  11.356  0.1319  0.2053 -0.1608
 6428W        W22612   0.662  15.556  10.006 -0.0809  0.4425  0.0186
 6429W        W22613  11.304  16.155  14.317 -0.1697  0.1362  0.0362
 6430W        W22614   2.183   8.835   1.053 -0.0398 -0.5260 -0.3791
 6431W        W22615   4.921  13.328  15.644 -0.3484  0.3136 -0.2313
 6432W        W22616   9.354   0.481   1.945 -0.1479  0.1569 -0.0256
 6433W        W22617  10.871   4.988   0.931 -0.1665  0.1289  0.0029
 6434W        W22618  16.788   2.684  13.404 -0.0117  0.0332  0.4843
 6435W        W22619   4.531   8.630  14.542  0.1093 -0.1553 -0.0239
 6436W        W22620  16.597  17.007  13.623  0.0089  0.0752  0.3212
 6437W        W22621   0.332  13.168   1.969  0.1822  0.0042  0.0203
 6438W        W22622   2.560  13.676   3.998 -0.1176 -0.2617 -0.0298
 6439W        W22623   2.124  17.731   2.221  0.1012 -0.0761 -0.3089
 6440W        W22624   4.517   1.354  15.645  0.0614  0.0225 -0.2242
 6441W        W22625   9.223   4.504   3.151 -0.0742 -0.0904  0.5550
 6442W        W22626  16.476   9.341  12.134 -0.0505  0.0497  0.1080
 6443W        W22627  17.973   0.089  12.651 -0.2767 -0.0963 -0.1130
 6444W        W22628   8.227   4.391  13.381 -0.1320 -0.0026  0.1698
 6445W        W22629   9.304  11.931   0.822 -0.0936 -0.2644  0.0180
 6446W        W22630   6.020  11.557  13.991  0.4375 -0.1836 -0.1173
 6447W        W22631   0.552   6.516  12.258  0.0826 -0.0043  0.1966
 6448W        W22632  17.327  11.309   4.293 -0.0998  0.1962  0.0529
 6449W        W22633   0.220   5.754   4.260  0.0307 -0.0613  0.1974
 6450W        W22634   0.929   0.313   5.172 -0.1341  0.1239 -0.4006
 6451W        W22635   0.226   5.639  13.113  0.3140 -0.1096 -0.2922
 6452W        W22636   3.633   2.935   0.724 -0.6471  0.2492 -0.0958
 6453W        W22637  11.455  12.716   0.841 -0.0753  0.2231  0.2937
 6454W        W22638   2.676  16.507   2.386 -0.0092  0.2366 -0.1535
 6455W        W22639   3.912   9.704   0.891 -0.1076  0.1310 -0.0918
 6456W        W22640   7.760   7.061   4.114  0.0005  0.0237 -0.2107
 6457W        W22641  14.505  17.978   1.499  0.0999 -0.1782 -0.1840
 6458W        W22642  12.782   9.507  13.933 -0.1412 -0.2158 -0.0146
 6459W        W22643   4.328   8.569   3.005 -0.0371 -0.0633  0.0885
 6460W        W22644  16.867   0.166   2.654  0.0641  0.0417  0.0894
 6461W        W22645   4.067  12.925  11.870 -0.3406 -0.1007  0.1041
 6462W        W22646   1.832  17.517   5.194  0.0684 -0.2461 -0.1688
 6463W        W22647  12.834   1.984   4.173  0.1247 -0.0774  0.0043
 6464W        W22648   4.126   2.122  16.369 -0.0004 -0.0079  0.0030
 6465W        W22649  12.692   9.429   5.889  0.2000  0.0508  0.2723
 6466W        W22650   4.984   2.724   1.319 -0.1767  0.1689 -0.0881
 6467W        W22651  14.895  17.161  12.486 -0.0782 -0.0471 -0.0391
 6468W        W22652   6.607   1.975   0.824 -0.1144 -0.2184 -0.0607
 6469W        W22653   4.869   0.830  12.647 -0.0025 -0.1086 -0.0764
 6470W        W22654  17.865  14.219   2.462 -0.0004  0.2257 -0.0631
 6471W        W22655  16.984   0.920   4.157  0.0613 -0.1134  0.0722
 6472W        W22656  11.290   5.656  12.985 -0.0713  0.0076 -0.2184
 6473W        W22657  13.607   2.311  12.949 -0.3183  0.0875  0.0371
 6474W        W22658   4.498  13.570  15.877  0.0010  0.1529 -0.1244
 6475W        W22659  11.138   8.338  15.581 -0.1499  0.0218 -0.2383
 6476W        W22660  17.333  12.020  11.421  0.0876  0.0947 -0.0225
 6477W        W22661   5.185   8.061  15.332 -0.1559 -0.0948  0.1402
 6478W        W22662  11.325   6.601  14.308  0.1113  0.1038  0.0680
 6479W        W22663   0.817  16.398   1.599  0.0766 -0.1268  0.1146
 6480W        W22664  15.865   8.732   2.504  0.0508 -0.0125 -0.1158
 6481W        W22665   4.657  15.890  13.332  0.0844 -0.0741 -0.0795
 6482W        W22666  11.748   8.225  12.859 -0.1991  0.2865  0.4041
 6483W        W22667   7.582   1.756   4.126 -0.1890  0.0616 -0.1430
 6484W        W22668  10.781  13.374   2.361 -0.0709 -0.0843 -0.1532
 6485W        W22669  10.220  12.552   3.564  0.1217 -0.2023 -0.1451
 6486W        W22670   4.664  11.742   1.738  0.0652  0.2076 -0.0400
 6487W        W22671   9.203  10.627  16.332 -0.0006 -0.1218 -0.1429
 6488W        W22672   4.746   3.295  15.868  0.0962  0.0683  0.0333
 6489W        W22673   6.696   5.040   1.612 -0.0023 -0.0437 -0.0716
 6490W        W22674   0.428   3.233   2.202  0.0660 -0.0806  0.1388
 6491W        W22675  17.410   5.533   3.004 -0.0519  0.1888  0.0365
 6492W        W22676   6.941  16.093   4.005 -0.1273  0.1956  0.0037
 6493W        W22677  14.450  11.696  15.644  0.0711  0.3938 -0.0998
 6494W        W22678  10.422   2.804  11.495 -0.1305 -0.1025 -0.4390
 6495W        W22679   4.265   7.310  15.284  0.0368 -0.3008 -0.2083
 6496W        W22680  14.810  11.009   3.209  0.1588  0.0150  0.2332
 6497W        W22681  12.409  17.740   0.239  0.2440  0.1041 -0.2038
 6498W        W22682   8.076   6.833  14.583  0.2607 -0.1220 -0.0016
 6499W        W22683  14.954   2.442  16.019  0.0173  0.0547 -0.0489
 6500W        W22684   5.010  12.131  11.912 -0.0249  0.1638  0.0204
 6501W        W22685  13.051   2.514   3.610  0.1692  0.3875  0.0036
 6502W        W22686   3.518   2.552  11.562  0.4053  0.1379 -0.0956
 6503W        W22687   8.375  17.788   4.959  0.1364  0.1973 -0.2373
 6504W        W22688   3.668  16.344  12.779 -0.2623  0.2266 -0.1366
 6505W        W22689   8.292  14.865   1.601  0.0283 -0.1157  0.0526
 6506W        W22690   5.253   6.426  15.115  0.1390  0.2590 -0.2422
 6507W        W22691  11.510  17.298   3.099 -0.5661 -0.0535  0.0742
 6508W        W22692   6.834  11.290   5.676 -0.2057 -0.0892 -0.1093
 6509W        W22693   1.070   1.936   2.497 -0.0890 -0.2299  0.2160
 6510W        W22694   8.543  12.975  14.279 -0.1248 -0.2398 -0.3707
 6511W        W22695   3.817  13.533   1.451  0.1886  0.1378 -0.1528
 6512W        W22696   8.975   0.109  16.247 -0.1505 -0.4049 -0.0099
 6513W        W22697   0.118   2.913   0.195  0.2533  0.1057  0.0543
 6514W        W22698   5.746  14.617   0.934  0.0238  0.0733 -0.0469
 6515W        W22699   4.784   4.164  15.047 -0.1471  0.0588 -0.0505
 6516W        W22700   9.432  14.924   3.191 -0.0369 -0.1067  0.1272
 6517W        W22701  15.786   7.230   5.827 -0.1804 -0.3682  0.1261
 6518W        W22702   0.420   2.498   0.048 -0.1741 -0.0008  0.2868
 6519W        W22703  15.347   0.750   0.273 -0.1152 -0.1871  0.1886
 6520W        W22704   3.416   5.684   5.646  0.1711 -0.2361  0.1137
 6521W        W22705   1.072  10.669  13.971 -0.2323  0.1233 -0.0944
 6522W        W22706   0.329  17.011  15.647 -0.0948 -0.3529 -0.2695
 6523W        W22707  17.941   3.407  14.102 -0.0221  0.2011  0.0049
 6524W        W22708   2.904   2.547   0.846 -0.1798  0.1920  0.2889
 6525W        W22709  14.020   1.558  11.545  0.0508  0.3548  0.0454
 6526W        W22710   3.719  16.333   5.083  0.0693  0.1408  0.2626
 6527W        W22711   7.601   7.986  14.140 -0.2413  0.1725  0.0473
 6528W        W22712   8.807  12.063  12.717 -0.0355 -0.1778  0.1146
 6529W        W22713   3.190   0.270   5.653  0.0610  0.0783 -0.3224
 6530W        W22714  14.616   9.440   5.193  0.4719  0.3009  0.2986
 6531W        W22715  13.210   9.715   0.249 -0.0613 -0.1405 -0.1351
 6532W        W22716   5.797   1.017  14.247  0.1561  0.0392  0.1630
 6533W        W22717  14.904  15.659   0.585 -0.3063 -0.2030 -0.2803
 6534W        W22718   7.457   6.000  13.060  0.1087  0.1078 -0.2991
 6535W        W22719   6.719  17.528   2.269 -0.1428  0.3030  0.1423
 6536W        W22720  14.412   2.179   6.124 -0.1541 -0.1384 -0.0468
 6537W        W22721  16.977  12.561  13.727 -0.0972 -0.0217  0.0042
 6538W        W22722   5.121  11.816   5.169  0.1636  0.2769 -0.1758
 6539W        W22723  16.306   5.365  15.288 -0.0753 -0.0518  0.0760
 6540W        W22724   5.682  17.968   0.913 -0.1579 -0.1619 -0.1575
 6541W        W22725  15.002  17.172   5.987  0.0647 -0.0305  0.3596
 6542W        W22726   2.817   5.218   2.154 -0.1824 -0.1521  0.0185
 6543W        W22727   4.080   2.957   3.331 -0.0953  0.0308 -0.0159
 6544W        W22728  12.417  13.118  14.814  0.1528 -0.1722  0.1754
 6545W        W22729  11.939  11.438   4.039  0.2813  0.0782  0.0096
 6546W        W22730   8.221  10.073  15.243  0.4160 -0.0203  0.1621
 6547W        W22731  11.850  16.234   3.421  0.0799 -0.0858 -0.1583
 6548W        W22732   2.790   0.634  13.020 -0.3146 -0.2229  0.1720
 6549W        W22733   7.362  11.135  13.634 -0.2109  0.0733 -0.0772
 6550W        W22734   4.922  14.638   2.720  0.2868  0.4288 -0.3334
 6551W        W22735   6.997   0.553  13.514 -0.0358  0.0790 -0.2484
 6552W        W22736  17.551   7.379   5.950 -0.2892  0.2033  0.0008
 6553W        W22737   4.515   5.109  16.157  0.1646 -0.1311 -0.1471
 6554W        W22738  17.766  17.500   1.077  0.2338 -0.3356 -0.0926
 6555W        W22739  11.401  13.144  12.754 -0.1033  0.0582  0.1406
 6556W        W22740   2.092  13.471  14.237  0.0010 -0.2629 -0.1647
 6557W        W22741  12.305   9.818  14.094  0.0277  0.0658  0.0933
 6558W        W22742   2.207   6.280   0.706 -0.1802 -0.0055 -0.0297
 6559W        W22743  15.435  10.235   5.546  0.1808  0.0005  0.1786
 6560W        W22744  11.392  14.768   3.070 -0.5463  0.0270  0.1239
 6561W        W22745   5.972  15.657  16.371  0.0062  0.0285  0.1070
 6562W        W22746   6.053   8.934  12.930  0.0279 -0.1275  0.0024
 6563W        W22747  13.177  12.842  13.579  0.1549 -0.0575  0.3487
 6564W        W22748   7.852  11.394   0.960  0.2091 -0.3035 -0.0928
 6565W        W22749  12.356  14.609   4.539  0.1210  0.0967  0.5149
 6566W        W22750  14.700  11.734  14.904 -0.0190  0.0093 -0.2813
 6567W        W22751  11.898   7.135   1.991 -0.1309 -0.3889 -0.1215
 6568W        W22752  16.973  11.763  14.933  0.0463  0.2604 -0.2167
 6569W        W22753  15.859   7.539   1.577  0.1607 -0.1329  0.1391
 6570W        W22754   7.907   1.775   4.924 -0.2900 -0.0477 -0.0997
 6571W        W22755   9.773   1.064   4.831 -0.3506 -0.0207  0.2365
 6572W        W22756   2.052   1.428   2.468  0.1308  0.2380  0.0133
 6573W        W22757   8.848  15.573   3.986 -0.0379 -0.1285  0.0250
 6574W        W22758   6.654   9.526   4.269  0.1440 -0.1788 -0.1683
 6575W        W22759   3.089  10.198  11.827  0.0018 -0.3301 -0.0963
 6576W        W22760   0.812   7.330   3.043  0.2132 -0.0897 -0.0056
 6577W        W22761  15.862  10.592   4.342  0.2738  0.0813 -0.1430
 6578W        W22762   3.129   2.135   4.706  0.0101  0.0039  0.0097
 6579W        W22763   0.653  11.022   1.101  0.1025  0.0396  0.4486
 6580W        W22764   5.272   6.478  13.362  0.0131 -0.1893 -0.3968
 6581W        W22765   1.145   4.629  13.896  0.1907  0.2038 -0.4662
 6582W        W22766   9.736   9.257   1.215 -0.1039  0.0523 -0.0987
 6583W        W22767  16.280  11.826  14.190 -0.3509 -0.0459 -0.0292
 6584W        W22768   3.651   3.895   1.746 -0.0332 -0.4806 -0.1283
 6585W        W22769   1.282  15.914  15.081 -0.2742  0.1221 -0.0414
 6586W        W22770   1.235   7.189   3.308  0.0496 -0.0172  0.1631
 6587W        W22771   7.874   6.790   0.929  0.0462 -0.2110 -0.3143
 6588W        W22772  10.653   4.501  12.332  0.3446 -0.5168 -0.3365
 6589W        W22773   6.465  15.906  11.771  0.0471  0.4035 -0.1641
 6590W        W22774  12.907  16.498   5.301 -0.0895 -0.1953  0.2678
 6591W        W22775  12.452   0.267  14.915  0.2106  0.0905 -0.0518
 6592W        W22776   8.854   0.738   1.774  0.0042 -0.0101  0.2788
 6593W        W22777  15.215   8.246  16.131  0.0301  0.3521  0.0081
 6594W        W22778  16.133  11.872  15.103  0.0454  0.0533  0.1397
 6595W        W22779  11.258   6.083   2.359  0.3710  0.5910 -0.0702
 6596W        W22780  12.986   3.486   4.271 -0.0868  0.1448 -0.0368
 6597W        W22781   4.437  17.229   3.476 -0.1618  0.1827 -0.0829
 6598W        W22782   0.094   0.130   6.062 -0.0282  0.3451  0.0038
 6599W        W22783  16.351  12.251   6.043 -0.1801 -0.0791 -0.2366
 6600W        W22784  17.023   7.583  15.975  0.0184 -0.4313 -0.1190
 6601W        W22785   3.552   7.238  15.566 -0.0977  0.1179 -0.1818
 6602W        W22786   4.481  17.462   1.159 -0.3686  0.4602 -0.1926
 6603W        W22787  10.888   8.049  11.548 -0.1125 -0.1335 -0.1236
 6604W        W22788   9.091  14.232  11.722  0.1970 -0.3110  0.2984
 6605W        W22789   1.732  11.726  14.269  0.0472 -0.2089 -0.2024
 6606W        W22790   1.439   2.305  11.690  0.0312 -0.1589  0.1184
 6607W        W22791   2.219   7.682  15.309  0.1458 -0.1930  0.0914
 6608W        W22792  15.755  14.396  11.755  0.0633 -0.0830  0.2530
 6609W        W22793  13.082   6.759   1.388  0.2576 -0.0418  0.0121
 6610W        W22794   4.118  10.314  13.936  0.0139 -0.1941 -0.0713
 6611W        W22795  12.121   2.998  16.659  0.0062 -0.0067  0.3583
 6612W        W22796  14.028   9.470   3.333  0.1253  0.2700 -0.1034
 6613W        W22797  14.767  12.808  10.620 -0.0980 -0.0089  0.1470
 6614W        W22798   0.109   8.482  13.227  0.0674  0.0232  0.3763
 6615W        W22799  10.122   2.993  14.146 -0.1311  0.0051  0.0697
 6616W        W22800   5.442  11.414  15.951  0.0572  0.1449  0.0316
 6617W        W22801   1.287  17.049  15.456  0.1981 -0.2342  0.2123
 6618W        W22802  16.078   9.309  16.219 -0.0607  0.1393 -0.3113
 6619W        W22803   5.196  11.193   2.095  0.0501 -0.1681  0.0338
 6620W        W22804   8.599  14.698  15.937  0.0464 -0.0583 -0.0488
 6621W        W22805  11.437   8.438  15.975 -0.4780 -0.3411 -0.0372
 6622W        W22806   6.424   0.921   4.259 -0.1158 -0.0991 -0.0162
 6623W        W22807   9.770  12.061  12.997 -0.0707 -0.1451  0.0841
 6624W        W22808   0.730   0.080   3.806 -0.2041 -0.4706  0.2874
 6625W        W22809   0.346  15.620  10.394 -0.0610  0.0338 -0.1470
 6626W        W22810  16.790   8.745  16.512 -0.0607 -0.1206 -0.2004
 6627W        W22811   7.570  10.784   1.481  0.0031 -0.2583 -0.0232
 6628W        W22812   6.691   1.553  14.598 -0.0089 -0.0457  0.1590
 6629W        W22813   0.440   1.004   1.153 -0.0309  0.2901 -0.1289
 6630W        W22814  12.817   7.100   2.209 -0.1988 -0.0156 -0.1744
 6631W        W22815  11.031  16.135   3.403  0.0204  0.2004  0.0272
 6632W        W22816  12.873   7.976   1.368  0.1395  0.3016  0.2347
 6633W        W22817   6.639  10.971   3.425  0.0249 -0.0070 -0.2397
 6634W        W22818   7.679  16.505   4.418 -0.4238 -0.2148 -0.2394
 6635W        W22819   5.625  13.398   4.658 -0.3598 -0.2067 -0.2462
 6636W        W22820  14.069  17.002   0.525 -0.1558  0.3898  0.1581
 6637W        W22821  16.670  11.221  12.807  0.0786  0.0783 -0.2921
 6638W        W22822   0.011   8.559   5.431  0.1648 -0.0259 -0.2184
 6639W        W22823  16.238   0.049  14.796 -0.4087 -0.2871 -0.2162
 6640W        W22824   2.354   5.695   3.994 -0.1511  0.0599 -0.0479
 6641W        W22825  17.252   2.213  13.968 -0.1472  0.1580  0.0167
 6642W        W22826  15.057   3.722  10.543 -0.0585 -0.0516  0.1413
 6643W        W22827   3.747   0.437  13.361 -0.0192 -0.1007  0.0916
 6644W        W22828   9.882  16.463  12.371 -0.0207 -0.3684  0.1032
 6645W        W22829   8.956  10.093  15.626 -0.2276 -0.3236  0.1795
 6646W        W22830  10.902   0.888  14.903 -0.0327  0.2433 -0.2160
 6647W        W22831  12.990   4.053  15.696 -0.0727  0.0342 -0.3712
 6648W        W22832  13.361   5.740  13.471 -0.0392  0.2473  0.0544
 6649W        W22833  11.877   6.566  15.559 -0.1257 -0.0822 -0.0477
 6650W        W22834   4.840  17.290   3.884 -0.2116 -0.0655  0.0773
 6651W        W22835   1.708  14.112  12.501 -0.0405  0.3534  0.3776
 6652W        W22836   8.258   3.468   4.250 -0.0404  0.1863  0.1477
 6653W        W22837   3.076  14.364   3.761  0.0255  0.1311 -0.0872
 6654W        W22838   1.266  14.622  15.676  0.0177 -0.2797  0.1337
 6655W        W22839  14.527   1.353  12.435  0.3276 -0.2460 -0.0345
 6656W        W22840  15.084  15.373  15.465  0.0351 -0.0297  0.1679
 6657W        W22841   9.899   1.879   1.032  0.0112 -0.0078 -0.0188
 6658W        W22842  13.780  12.677   5.798  0.1542 -0.0000  0.1966
 6659W        W22843  14.334   3.832   3.520 -0.2967  0.0319 -0.0901
 6660W        W22844  13.960   9.864  12.999 -0.1842 -0.1784  0.1934
 6661W        W22845   9.038  17.695   4.703 -0.0509 -0.0238 -0.0382
 6662W        W22846  17.050   9.563  12.325  0.1265  0.3427  0.0627
 6663W        W22847  14.068  16.185  13.542  0.0500  0.1089  0.1110
 6664W        W22848  16.631   4.544   5.669  0.0338  0.3424 -0.0840
 6665W        W22849  15.540  10.517   2.897 -0.0936 -0.0717  0.0907
 6666W        W22850  15.582  11.465  11.629 -0.0906  0.2262  0.0234
 6667W        W22851  14.539  13.402   3.738  0.0152 -0.0698 -0.2164
 6668W        W22852   5.631  11.641   5.921  0.1144  0.2185  0.0329
 6669W        W22853   4.824   1.232   0.248 -0.1236  0.0391 -0.0599
 6670W        W22854  13.186   6.077  16.492 -0.0514 -0.0944  0.0240
 6671W        W22855   3.080   7.020  15.668 -0.1074  0.0940  0.0671
 6672W        W22856   5.275   7.087  12.301  0.1494 -0.0544  0.2267
 6673W        W22857  17.066   4.698  13.022 -0.2856 -0.2903  0.0168
 6674W        W22858   3.096   2.510  12.201  0.3416  0.0378  0.0052
 6675W        W22859  10.173   8.686   0.315 -0.0880  0.3796 -0.1061
 6676W        W22860  16.086  15.096  16.609  0.0708 -0.0461 -0.0734
 6677W        W22861  16.235   4.519  15.504 -0.0446  0.0426 -0.0512
 6678W        W22862   5.496  13.598   0.973  0.0316  0.2735  0.1702
 6679W        W22863  17.156   3.355   5.837 -0.0368  0.3750  0.0867
 6680W        W22864   4.786  15.870  10.963  0.1871  0.0595  0.3830
 6681W        W22865   6.229  10.947  12.363 -0.4899  0.0259  0.0468
 6682W        W22866   2.874   2.920  14.907  0.0607  0.1004 -0.0700
 6683W        W22867   3.137  14.814   6.128  0.3242  0.0699  0.0195
 6684W        W22868  17.326   0.422  14.851 -0.1345  0.1442 -0.3800
 6685W        W22869  13.620   7.014   0.216 -0.1355  0.1683  0.1491
 6686W        W22870  13.708  12.565  11.542  0.1791 -0.1985  0.0898
 6687W        W22871  17.287  10.984  15.198  0.1740  0.1528  0.2747
 6688W        W22872  15.822   3.152  12.832 -0.1372 -0.1873  0.1078
 6689W        W22873   9.470  17.794   5.075 -0.1352  0.1295  0.0049
 6690W        W22874   5.623   9.808  13.836  0.1187 -0.1790 -0.2008
 6691W        W22875   2.208  16.401   2.831 -0.3344 -0.2524  0.1023
 6692W        W22876  12.146   2.059  16.571  0.2000 -0.1778  0.0834
 6693W        W22877   4.797   5.179   6.425  0.1073  0.1912 -0.1337
 6694W        W22878  16.089  15.908   2.392 -0.2428  0.4043  0.2381
 6695W        W22879  10.678  13.643   2.931 -0.0325  0.0267 -0.0966
 6696W        W22880   1.858   3.516   2.220 -0.0510 -0.4182  0.0526
 6697W        W22881  17.660   9.164   3.916 -0.1456 -0.0070  0.1605
 6698W        W22882   1.635   0.302  15.410 -0.1677 -0.1421  0.1255
 6699W        W22883  11.723  17.582   1.759 -0.0496  0.1273  0.0228
 6700W        W22884   4.926  13.380   0.646 -0.3404  0.3064 -0.1918
 6701W        W22885   6.665   3.606  12.918  0.1013 -0.0960  0.0386
 6702W        W22886  17.746   4.663  15.606  0.0143  0.0350 -0.2007
 6703W        W22887   7.693   2.127   1.461  0.0304  0.2367  0.2059
 6704W        W22888  12.261   1.331  15.359 -0.0594  0.0217  0.0531
 6705W        W22889   2.259   8.914  15.260 -0.0711 -0.0670  0.0700
 6706W        W22890   2.846   9.487  12.313  0.1533  0.2487  0.0818
 6707W        W22891   8.647   9.190  11.796 -0.0228 -0.0293  0.2315
 6708W        W22892   4.604   3.106   4.331 -0.2204 -0.2746 -0.0286
 6709W        W22893  10.169   2.604  16.008 -0.2061 -0.1145  0.3309
 6710W        W22894  17.740   9.752   3.041  0.0452 -0.0772  0.0442
 6711W        W22895   3.639  10.241  11.786  0.0149  0.0757 -0.0919
 6712W        W22896   1.272   8.670   3.716  0.0147  0.0138  0.0982
 6713W        W22897  12.436   8.286   0.598 -0.1625 -0.1948 -0.1291
 6714W        W22898  11.255   1.205  16.330  0.1877 -0.0163 -0.0380
 6715W        W22899   6.730  14.737  13.753 -0.3267  0.0364  0.0220
 6716W        W22900  13.353  17.285   0.171 -0.0727  0.2423  0.1964
 6717W        W22901   0.415   0.046   5.050  0.1954 -0.4137  0.0316
 6718W        W22902   8.470  11.153  12.517 -0.0014  0.1857 -0.2993
 6719W        W22903  15.112   3.130  16.484  0.0090 -0.3025  0.1191
 6720W        W22904  14.685  11.570  13.120  0.0219  0.1681 -0.3913
 6721W        W22905   1.040   5.286  12.306 -0.2351 -0.1887  0.1494
 6722W        W22906  17.864  15.522   0.184 -0.0280 -0.0832  0.0129
 6723W        W22907   1.357  17.481  16.174 -0.1387 -0.2469 -0.0598
 6724W        W22908   2.297  11.210   1.807 -0.1388  0.0711  0.5614
 6725W        W22909  15.785   8.599   0.311  0.2334 -0.0480 -0.2115
 6726W        W22910   8.005   4.945   3.371  0.2117  0.2408  0.0489
 6727W        W22911  16.361   3.876   3.663  0.2297  0.2898  0.0843
 6728W        W22912   5.874  12.372  14.624 -0.0246  0.4091  0.3649
 6729W        W22913  15.128  15.731   2.058  0.0464  0.0432  0.0342
 6730W        W22914   7.120   0.082   3.966  0.0997 -0.0265 -0.0657
 6731W        W22915   3.303   6.693  11.518 -0.2288  0.1692 -0.1637
 6732W        W22916  14.118   9.214   2.024 -0.1873  0.0883  0.2588
 6733W        W22917  14.410   3.915  14.234 -0.0061  0.0724  0.0740
 6734W        W22918  13.841   5.908  12.199  0.0989  0.3737 -0.1105
 6735W        W22919   1.374   9.115   0.544 -0.3100 -0.2710  0.0436
 6736W        W22920   8.436  14.396   3.320  0.1383 -0.1863  0.0270
 6737W        W22921   0.759  12.737   1.736 -0.0933  0.3279  0.0986
 6738W        W22922   9.289   0.378  11.977  0.1685  0.0469  0.0101
 6739W        W22923   4.325   6.114   6.046 -0.0012  0.0281  0.0587
 6740W        W22924  14.502   2.784  12.890  0.1431 -0.1230  0.3313
 6741W        W22925   0.901   7.518   3.500 -0.1164  0.0409 -0.0507
 6742W        W22926  15.545   2.983   0.587  0.1377 -0.1521  0.1822
 6743W        W22927  10.904   1.346   4.967  0.1998  0.1752 -0.0667
 6744W        W22928  15.691   6.774   1.449 -0.2534 -0.2960  0.2772
 6745W        W22929   2.694   3.748   2.496  0.1145  0.0318  0.2305
 6746W        W22930   8.839  13.806  16.041 -0.1033  0.0401  0.0859
 6747W        W22931  17.120   6.769   3.777 -0.0367 -0.1715 -0.1414
 6748W        W22932  16.361   5.073  12.708 -0.1153  0.0646 -0.0641
 6749W        W22933   3.016   4.090  12.418 -0.1529 -0.2393  0.0781
 6750W        W22934   8.569  11.201  13.984 -0.0922  0.2765  0.0096
 6751W        W22935  14.925  10.118   4.615  0.4508 -0.1079 -0.0588
 6752W        W22936   1.711  16.286   2.689  0.1922 -0.1456 -0.1826
 6753W        W22937  10.633   4.566  11.539  0.2640 -0.1989 -0.1803
 6754W        W22938   1.009   2.773  13.732 -0.1262 -0.1460 -0.0709
 6755W        W22939   6.718   5.430  13.141  0.0934 -0.0192 -0.2693
 6756W        W22940  15.156   0.027   4.458 -0.0722 -0.1531  0.1454
 6757W        W22941  12.562  16.707  10.507  0.2740  0.0849 -0.3216
 6758W        W22942   6.971   8.945   3.630  0.0174 -0.0738  0.0809
 6759W        W22943   2.411   2.293  16.489 -0.1075  0.2097  0.0029
 6760W        W22944   2.044   2.240   1.381  0.0773  0.1459 -0.1850
 6761W        W22945   6.948  11.392   1.170 -0.0976 -0.0655 -0.0535
 6762W        W22946  13.722   3.242   4.537 -0.2299 -0.2984  0.0492
 6763W        W22947  15.188  13.357  13.843 -0.2269  0.1233 -0.1366
 6764W        W22948  11.743  12.415   2.225 -0.1042 -0.0647  0.1020
 6765W        W22949   3.328  15.049  15.762  0.0833 -0.2348  0.0570
 6766W        W22950  14.731   6.820  13.729 -0.1501  0.3157 -0.0822
 6767W        W22951   5.599  12.957   4.393  0.1030  0.0374  0.3068
 6768W        W22952  14.654  13.864   1.049 -0.0476 -0.2329  0.0824
 6769W        W22953   6.829   5.196   3.878 -0.4399 -0.0533  0.1090
 6770W        W22954   9.054   2.186   4.125 -0.1532  0.2887 -0.1870
 6771W        W22955   1.919   4.314   1.217 -0.0083 -0.2991 -0.1103
 6772W        W22956  14.529   1.727  12.077 -0.0631  0.0398 -0.1503
 6773W        W22957   5.109   2.025  11.611 -0.0610  0.0990 -0.3849
 6774W        W22958  14.460   3.204   3.708 -0.0505 -0.1746 -0.1344
 6775W        W22959   3.684   9.558  13.853 -0.0453  0.0799  0.0395
 6776W        W22960  17.921   0.651  14.769 -0.1024  0.0653 -0.3539
 6777W        W22961   0.911   3.815   5.074  0.2152  0.2429  0.0460
 6778W        W22962   6.377   9.941   2.550 -0.1742 -0.1938 -0.5217
 6779W        W22963   2.874  16.209  12.280 -0.3467  0.0990 -0.0515
 6780W        W22964  12.041  11.743   3.646 -0.1757 -0.1105  0.1207
 6781W        W22965   6.248  10.685  13.102 -0.1825  0.2769  0.0293
 6782W        W22966   6.473   8.598  15.494 -0.0358 -0.3112  0.0558
 6783W        W22967  13.622   9.221  16.532  0.4058 -0.2378 -0.1005
 6784W        W22968  17.841   1.828   0.955  0.0771  0.0617  0.1690
 6785W        W22969  13.665   3.698  14.074  0.0650  0.1603  0.1370
 6786W        W22970  14.794  14.499   2.773 -0.1738 -0.3538  0.0045
 6787W        W22971  17.274   1.588  11.567 -0.0742  0.3137  0.0821
 6788W        W22972  14.089   0.752   2.534 -0.0475 -0.1240  0.1147
 6789W        W22973  13.059   0.161   5.826 -0.0554 -0.1013  0.3378
 6790W        W22974  15.286  15.934   1.022 -0.5136  0.1844  0.1892
 6791W        W22975   6.586  16.639  15.031 -0.0387 -0.2899 -0.2258
 6792W        W22976  10.914   1.165   3.097 -0.2936 -0.1262 -0.0292
 6793W        W22977   7.603   7.550   0.454 -0.0824  0.1228  0.1728
 6794W        W22978  14.260  17.173   2.582  0.0395  0.0492  0.3617
 6795W        W22979  17.163   0.729   6.286 -0.2300  0.0731  0.0197
 6796W        W22980   3.767   9.569  16.451 -0.0414  0.0703  0.3181
 6797W        W22981   7.260   8.821  11.775  0.2120 -0.1752  0.1445
 6798W        W22982   4.397   5.275   3.264 -0.2777  0.2957 -0.3369
 6799W        W22983   2.801  12.087  13.537 -0.3185  0.2857 -0.0727
 6800W        W22984   8.340   4.531   3.305  0.3329  0.1882 -0.2883
 6801W        W22985  10.916   5.139   1.519 -0.0135 -0.2191  0.2451
 6802W        W22986  14.715  12.011  11.527 -0.2532 -0.0271  0.0216
 6803W        W22987  11.322  12.909   6.374 -0.0551  0.2558  0.1141
 6804W        W22988  12.725   1.304   1.410  0.1273  0.1352 -0.0164
 6805W        W22989   7.289  12.711   4.274  0.1306  0.0042 -0.2028
 6806W        W22990  12.475   0.197   1.513  0.0918 -0.1562 -0.1523
 6807W        W22991   2.577  12.871  13.900  0.0815 -0.0684  0.0086
 6808W        W22992   9.506   2.497  11.715  0.1426 -0.4227  0.2270
 6809W        W22993  11.206  11.281   5.560  0.2621 -0.1545 -0.0617
 6810W        W22994   6.447   5.750   3.397  0.0083  0.1595 -0.0805
 6811W        W22995   7.276   9.977   2.920  0.1879  0.0283 -0.0069
 6812W        W22996   8.128  14.850   4.526 -0.1994 -0.0450  0.1414
 6813W        W22997   5.830  11.714  12.203 -0.0084 -0.1760 -0.5783
 6814W        W22998  15.540  11.426   5.641  0.0189 -0.1387  0.2565
 6815W        W22999   6.743   7.841  13.991 -0.0424 -0.3369 -0.0992
 6816W        W23000   5.458  13.489   5.133 -0.2697  0.0915 -0.2292
 6817W        W23001  16.664   9.133   1.056 -0.1568 -0.1318 -0.3412
 6818W        W23002   3.074  15.109  16.293  0.0286  0.1228  0.1691
 6819W        W23003   9.815   8.078   4.753  0.0336 -0.0617  0.1535
 6820W        W23004   3.608  15.857   4.783  0.0046 -0.1696  0.0863
 6821W        W23005   8.257   9.709   5.422 -0.0175  0.1919  0.0575
 6822W        W23006   0.641   9.021   2.844 -0.3730 -0.0806  0.0070
 6823W        W23007   4.942   7.670  13.482 -0.1508 -0.0049 -0.2807
 6824W        W23008  10.169  12.661   5.224  0.1407 -0.1885 -0.0446
 6825W        W23009   5.393   8.527   1.961  0.1950  0.0679 -0.1446
 6826W        W23010   9.666  10.772   4.716  0.1321 -0.0639  0.1574
 6827W        W23011   9.956   9.377  14.690 -0.0390  0.0055  0.5047
 6828W        W23012   1.624   4.042  14.030  0.0677  0.0064 -0.1179
 6829W        W23013   8.025  15.174  11.293  0.3012  0.0699  0.0575
 6830W        W23014   3.429   2.263   3.072  0.1277 -0.1081  0.2961
 6831W        W23015  14.851   8.950   5.050  0.0152 -0.3359  0.1024
 6832W        W23016  16.818  13.460  12.142  0.0907 -0.1932 -0.1017
 6833W        W23017   4.009   0.791  14.398 -0.0565 -0.0733  0.1156
 6834W        W23018  13.584   4.396   4.701  0.0503 -0.0213 -0.1413
 6835W        W23019  11.226   0.223   4.567  0.0984 -0.2104  0.1392
 6836W        W23020   4.657   1.036   3.880  0.0263 -0.0019  0.0687
 6837W        W23021  11.873   1.603  14.428  0.0050  0.2319  0.3025
 6838W        W23022  13.770   1.849  14.934 -0.0493 -0.0757  0.0035
 6839W        W23023  16.848  13.210  12.612 -0.0775  0.2747  0.1646
 6840W        W23024   0.570   1.293   3.039  0.0612  0.2281  0.0932
 6841W        W23025  12.621  16.458  12.561 -0.1083 -0.0357  0.0290
 6842W        W23026   2.436   2.065  13.728 -0.0668 -0.3086 -0.0136
 6843W        W23027  10.793  15.100  12.348  0.1980  0.3907 -0.1115
 6844W        W23028  17.423   1.382   2.505  0.0152  0.1469 -0.0299
 6845W        W23029  14.855   8.943  16.623  0.2415  0.2151  0.2142
 6846W        W23030   7.963   9.035   3.531 -0.1431  0.0717 -0.2673
 6847W        W23031   6.730  17.052   0.309  0.1881 -0.0551 -0.0524
 6848W        W23032   2.513   7.135   6.377 -0.1870 -0.1462 -0.0658
 6849W        W23033   5.626  12.188   1.877  0.1485 -0.1434  0.2338
 6850W        W23034   3.552   8.254  15.479  0.0504 -0.3740 -0.2272
 6851W        W23035   5.742   4.321  12.035 -0.1645  0.0655 -0.2596
 6852W        W23036  15.203  13.836   0.339  0.1813 -0.1614  0.0581
 6853W        W23037   2.043   8.444  15.271 -0.2471 -0.1098  0.0685
 6854W        W23038   8.835  17.771   5.133  0.3440 -0.4384  0.1989
 6855W        W23039  11.620  12.769  16.699  0.3961 -0.1440  0.0424
 6856W        W23040  16.535  17.889   0.128  0.4910  0.0220  0.0143
 6857W        W23041  17.138   0.952   2.288 -0.0787 -0.2758 -0.0458
 6858W        W23042   8.450   0.961  16.036  0.2873  0.2193 -0.2612
 6859W        W23043   8.311  14.527   1.250 -0.0114 -0.1940 -0.0501
 6860W        W23044  13.421   3.528   2.324 -0.6075  0.0570  0.0088
 6861W        W23045  17.264   2.219   4.059  0.2574 -0.1918 -0.0808
 6862W        W23046   1.242  16.310  13.072  0.1546  0.3518 -0.2016
 6863W        W23047   5.608   4.698   4.286  0.4741  0.2233  0.2926
 6864W        W23048  12.566   1.840   4.542 -0.3951 -0.0561 -0.4558
 6865W        W23049   1.714   7.229   3.302  0.1535 -0.2249 -0.4263
 6866W        W23050   4.577  17.703   1.915 -0.0561 -0.0632 -0.1969
 6867W        W23051   8.260  12.685   2.211  0.2273 -0.2079  0.0550
 6868W        W23052   3.996   4.003  16.100  0.0715 -0.0852 -0.1437
 6869W        W23053  13.484  15.319  11.802  0.0187 -0.0317  0.2860
 6870W        W23054  14.641  16.595  13.275 -0.3592  0.1028 -0.2660
 6871W        W23055  16.546   6.055  16.152  0.3128  0.0835  0.4340
 6872W        W23056  13.449  11.346  11.913  0.2707  0.2416  0.0532
 6873W        W23057  14.809   9.267   5.721  0.2350 -0.0152  0.0138
 6874W        W23058  12.123   9.926  15.991  0.0287  0.0181 -0.2534
 6875W        W23059  12.140   7.787  14.349  0.1377 -0.0515 -0.3054
 6876W        W23060  10.523   8.471  16.197 -0.1744 -0.0281 -0.0772
 6877W        W23061  11.993   5.843   4.388 -0.2836  0.0035  0.0291
 6878W        W23062   4.005   1.648   1.384 -0.2335 -0.4149 -0.0450
 6879W        W23063   0.257  16.323   2.542 -0.3639 -0.0836  0.1003
 6880W        W23064   0.913  12.869   5.720 -0.1335 -0.0159 -0.1677
 6881W        W23065   2.922  17.248  14.186 -0.1259  0.2321 -0.0211
 6882W        W23066   0.177  15.541   1.899  0.0453 -0.0405  0.0699
 6883W        W23067  12.361  16.964  11.838  0.1570  0.0306  0.1388
 6884W        W23068   2.656  16.584  12.528  0.3051  0.0390 -0.0432
 6885W        W23069   1.302  17.406  14.990  0.2848 -0.1424 -0.1806
 6886W        W23070   8.868   7.899  15.891  0.1012  0.0631  0.1622
 6887W        W23071  17.207   4.853  12.267 -0.0548  0.2499  0.1674
 6888W        W23072   6.956  16.622  11.941 -0.1151  0.0252 -0.2376
 6889W        W23073   8.051   5.214   2.920  0.0697  0.2066  0.1188
 6890W        W23074   2.278  17.733   4.293 -0.2120  0.1564  0.0802
 6891W        W23075  11.349   7.001   3.265 -0.0450 -0.2074  0.0173
 6892W        W23076   0.579   5.215  13.503  0.1794 -0.3071  0.0001
 6893W        W23077   2.268   0.555   3.770  0.1857  0.0736  0.0723
 6894W        W23078  14.324   4.465  12.332 -0.1086 -0.1664 -0.2680
 6895W        W23079   5.210   8.504  13.894 -0.1226  0.2582 -0.3686
 6896W        W23080   6.282   6.930  15.691  0.0937  0.2636  0.0674
 6897W        W23081   3.254   7.735   0.353  0.3775 -0.0073  0.0155
 6898W        W23082  13.489   3.050   1.586  0.0183  0.1413 -0.1157
 6899W        W23083  10.348   2.971   4.324 -0.0234 -0.1650 -0.1074
 6900W        W23084   7.585  13.113   1.905  0.1328 -0.2827 -0.0465
 6901W        W23085   1.449   8.956  13.051 -0.0290 -0.0278  0.0352
 6902W        W23086  16.902  10.292  14.987  0.0633  0.0308  0.0862
 6903W        W23087  14.614   7.543  15.015 -0.2245 -0.1959  0.1170
 6904W        W23088   4.217   4.098   6.139 -0.1044  0.1529 -0.0775
 6905W        W23089   6.187   4.550  12.105 -0.1938  0.0320  0.2469
 6906W        W23090   4.601  12.666  15.671  0.1732 -0.0969 -0.0213
 6907W        W23091  14.612  17.606   5.251  0.0635  0.0360 -0.2507
 6908W        W23092   3.375   6.092  12.969 -0.1335  0.0101  0.0098
 6909W        W23093   1.470   9.637   3.294 -0.0250 -0.0122 -0.2295
 6910W        W23094   5.069  14.034  14.933  0.0142  0.0270  0.1100
 6911W        W23095  11.685  11.017  16.029  0.0229 -0.1576 -0.1928
 6912W        W23096  13.905  12.543   1.151 -0.2303 -0.1176  0.2545
 6913W        W23097  11.587   9.357   1.277  0.2793  0.2806  0.0751
 6914W        W23098  13.318  10.419   0.534 -0.2033 -0.0048  0.1565
 6915W        W23099   0.829   1.351   3.927  0.0537 -0.1304  0.1266
 6916W        W23100  17.683   7.266   3.942 -0.1897  0.4183  0.0456
 6917W        W23101  11.897  15.725  15.416  0.4921 -0.2267 -0.0340
 6918W        W23102   7.922   9.445   4.246 -0.1388 -0.0142  0.0362
 6919W        W23103  14.950   7.102  15.699 -0.4701 -0.1015 -0.3304
 6920W        W23104   1.201   6.264   4.869  0.0635 -0.2278  0.1779
 6921W        W23105  11.927  17.348  12.890  0.0198 -0.2023 -0.0164
 6922W        W23106   9.087  14.610   0.362 -0.0407  0.0877  0.0608
 6923W        W23107   2.810   8.993  13.228 -0.3046  0.3360  0.0471
 6924W        W23108   7.665  17.443   3.378 -0.0640  0.3010 -0.0282
 6925W        W23109   6.533   6.342   5.560 -0.0809  0.0290 -0.1434
 6926W        W23110  11.741  15.897  12.349 -0.2436  0.1000 -0.3016
 6927W        W23111  12.072  16.832   0.498 -0.3163 -0.1071 -0.2427
 6928W        W23112  17.593  17.891   0.387 -0.0311  0.0224  0.1895
 6929W        W23113   5.459   3.256   4.900  0.0394 -0.2164 -0.3471
 6930W        W23114   8.651  15.628   4.577  0.1058 -0.1906  0.0073
 6931W        W23115   2.252   0.182  15.569 -0.2052 -0.0466 -0.0202
 6932W        W23116   7.439  14.842  14.215 -0.0965 -0.0782 -0.2525
 6933W        W23117  10.017   9.681   6.464 -0.0054  0.0217  0.1524
 6934W        W23118   9.716   2.239   2.871 -0.1421  0.0829 -0.1906
 6935W        W23119  10.330  13.144   1.515 -0.0881 -0.1430 -0.0204
 6936W        W23120  14.451   5.632  16.318 -0.3194 -0.1530  0.3394
 6937W        W23121   2.260  16.559   5.200  0.1500  0.1138 -0.0327
 6938W        W23122   1.616   0.493   0.865  0.1052 -0.1682 -0.0118
 6939W        W23123  13.026   7.596   3.358  0.2901 -0.0565  0.0358
 6940W        W23124  14.312  13.472   2.715 -0.2720  0.1088 -0.1247
 6941W        W23125   5.919   2.958  12.329  0.0505 -0.4872  0.0821
 6942W        W23126   0.520  13.135   1.465 -0.0296  0.3190  0.1710
 6943W        W23127  17.225  14.260  15.900 -0.1221 -0.2467 -0.1809
 6944W        W23128  16.832   2.527   0.006 -0.1256 -0.0207  0.1226
 6945W        W23129  13.159   7.071  15.003 -0.1888  0.1155  0.1927
 6946W        W23130  15.450   4.291   2.148 -0.0153  0.0152  0.0850
 6947W        W23131   7.292   7.182  15.797 -0.1716 -0.1485  0.0517
 6948W        W23132   1.801  14.036   1.766 -0.2389  0.0928  0.0464
 6949W        W23133  11.968  11.981  11.512  0.1600 -0.0905 -0.3961
 6950W        W23134   3.328  10.877  13.603 -0.1851 -0.1564  0.0693
 6951W        W23135   3.973  17.925  12.524 -0.3558 -0.0143 -0.2051
 6952W        W23136  16.712   2.952   0.220 -0.1266  0.3358 -0.0715
 6953W        W23137   7.288  12.947  15.452  0.2189  0.0675 -0.0983
 6954W        W23138  13.782   6.183  12.606 -0.1497 -0.0404  0.1930
 6955W        W23139  12.682  12.090   2.214  0.0474 -0.1615  0.3079
 6956W        W23140  13.484   2.211   5.333  0.0343  0.0765 -0.1293
 6957W        W23141   4.112  12.646  15.619  0.1280  0.1584 -0.3986
 6958W        W23142  10.741   3.964   4.508  0.2418  0.0799 -0.1122
 6959W        W23143  12.267  17.720   3.403 -0.3483 -0.1604  0.4406
 6960W        W23144  12.938  17.054   5.018  0.1503  0.0329 -0.3168
 6961W        W23145  11.667  14.254  15.195  0.1867 -0.0164 -0.0250
 6962W        W23146   6.258   5.457   3.755  0.1246 -0.0685 -0.4048
 6963W        W23147   8.476   8.831   3.718  0.0500 -0.2220 -0.2623
 6964W        W23148  12.126   2.589  11.550 -0.0414 -0.0655  0.2509
 6965W        W23149   5.548  10.625  13.782 -0.1719  0.0066  0.0998
 6966W        W23150   0.069  11.528  14.150  0.0946 -0.0051  0.3703
 6967W        W23151   9.057  11.583   5.186  0.0708  0.2023  0.0770
 6968W        W23152   3.555  11.562  14.343  0.1234 -0.2153  0.3186
 6969W        W23153  13.849   0.425   2.097  0.0654 -0.1106  0.0534
 6970W        W23154   6.239  15.036   0.249  0.0703 -0.4021  0.0302
 6971W        W23155  12.697   3.834  11.716 -0.0283  0.0249 -0.0236
 6972W        W23156  11.997  17.255  13.405 -0.2081  0.1149 -0.1666
 6973W        W23157   9.362   3.862   2.475 -0.0975 -0.1262 -0.2246
 6974W        W23158  10.175   0.264   0.067 -0.0471 -0.1073  0.2041
 6975W        W23159   1.290  14.739  14.004  0.0931 -0.3279  0.1851
 6976W        W23160  14.263   8.924   2.452  0.2560  0.3162  0.0797
 6977W        W23161   0.094   0.497  15.847  0.0966  0.0978  0.2012
 6978W        W23162   8.986  11.905  15.663 -0.3128 -0.1986  0.0470
 6979W        W23163  10.051  17.766   4.561 -0.0543  0.0737 -0.0631
 6980W        W23164   7.424   2.454   0.425 -0.0452  0.2937 -0.1974
 6981W        W23165  11.726   0.858  13.751  0.3115 -0.1132  0.0365
 6982W        W23166  10.453   9.322  14.118 -0.0966  0.1434 -0.0712
 6983W        W23167  13.464   6.750  13.833 -0.2290  0.0639 -0.0679
 6984W        W23168  15.724   7.632  15.948 -0.2625  0.0560  0.1455
 6985W        W23169   0.597  12.474   2.815  0.1860  0.4848  0.0339
 6986W        W23170   1.690   0.312  13.905  0.1439 -0.0779 -0.1084
 6987W        W23171   1.013   8.873  13.271  0.0518  0.0675 -0.2672
 6988W        W23172   0.367   6.883   2.788 -0.1496  0.2119 -0.0934
 6989W        W23173  16.467  11.562   3.726  0.1062  0.0862 -0.0551
 6990W        W23174   3.076   4.737   1.496  0.3505  0.1649 -0.0868
 6991W        W23175   8.803   1.361  16.114 -0.0096  0.0787 -0.2114
 6992W        W23176   6.086  15.146  11.597 -0.1470 -0.0096  0.1792
 6993W        W23177   4.614  12.306   3.537 -0.5474 -0.2053  0.0966
 6994W        W23178  16.736   3.884   4.029 -0.0911  0.2107 -0.0298
 6995W        W23179   8.232  17.332   2.396 -0.0865 -0.1425 -0.0350
 6996W        W23180  15.479  15.853  11.410 -0.2187 -0.0847  0.0670
 6997W        W23181   3.041  13.572   4.825 -0.0684  0.1607  0.0206
 6998W        W23182  17.058  13.096   5.270 -0.2925 -0.0213 -0.1047
 6999W        W23183   4.563   5.752   2.749  0.1680  0.0244  0.2174
 7000W        W23184  13.768  12.059  16.385  0.0698  0.0868  0.2657
 7001W        W23185  12.991   0.932  12.858 -0.0858  0.0382  0.2178
 7002W        W23186  16.370  14.751   1.362  0.3599 -0.1593  0.0355
 7003W        W23187  15.890  17.378  12.037  0.0127  0.1624 -0.0207
 7004W        W23188   9.017  17.443  14.165  0.1837 -0.0306 -0.0610
 7005W        W23189   6.555  11.203  14.670 -0.1023 -0.1784  0.1089
 7006W        W23190  11.549  10.491  12.097  0.0918 -0.3614  0.2204
 7007W        W23191   0.333   6.306   0.187 -0.2349 -0.0217  0.2440
 7008W        W23192  11.876   2.229   3.571 -0.0515 -0.2045 -0.2680
 7009W        W23193  10.262  12.796  15.774 -0.0894 -0.0249 -0.0519
 7010W        W23194   4.801  16.414   3.384 -0.0733  0.2808  0.0320
 7011W        W23195  11.075   5.966   4.803 -0.0486  0.0333 -0.1627
 7012W        W23196  11.603  11.585  14.526  0.0800 -0.0002 -0.1602
 7013W        W23197  16.612   7.604   0.032 -0.1525 -0.2418  0.2405
 7014W        W23198   7.043   3.569   4.585 -0.1743  0.2302 -0.3546
 7015W        W23199   3.833   2.480  12.884 -0.0844  0.2090 -0.1902
 7016W        W23200  12.999   4.950   1.619  0.2710  0.0978 -0.1144
 7017W        W23201  11.003  10.387  12.181 -0.1525  0.1502  0.3524
 7018W        W23202  10.648  15.368   5.514 -0.0213  0.0589 -0.0506
 7019W        W23203   4.045   7.048   0.815  0.1786  0.1055  0.1577
 7020W        W23204  14.350   2.513   3.286 -0.2263  0.0419 -0.1521
 7021W        W23205   1.347   0.642  13.294  0.0585 -0.1366  0.0347
 7022W        W23206   7.569   0.230   5.233  0.0773 -0.3415  0.0054
 7023W        W23207   3.881  15.861  14.076  0.1623  0.3827  0.0294
 7024W        W23208  17.559   3.025  11.339 -0.4353  0.0745  0.1067
 7025W        W23209   2.338  13.154   4.533  0.0813 -0.1076  0.2098
 7026W        W23210  12.774  17.680   3.249  0.0922 -0.0772 -0.0297
 7027W        W23211   1.632  17.381  12.303  0.0940 -0.0841  0.0114
 7028W        W23212   5.942   4.423   4.035  0.0464 -0.0670 -0.1445
 7029W        W23213  17.052  10.444   0.618  0.1111 -0.2781 -0.1761
 7030W        W23214   0.077  13.652  14.177 -0.2136  0.1104  0.1273
 7031W        W23215  12.787   8.095   3.305  0.2118  0.1821  0.0668
 7032W        W23216  13.651   5.256  13.441  0.0640 -0.2138 -0.0307
 7033W        W23217   2.844   0.173   1.774  0.1262  0.1196  0.1102
 7034W        W23218   3.168   1.732   1.601  0.1655 -0.1336  0.2099
 7035W        W23219  12.259  15.876   0.562 -0.0766 -0.2925 -0.1353
 7036W        W23220   3.162  13.785   1.423 -0.3000  0.2138  0.0912
 7037W        W23221   5.959   6.255   1.595 -0.3150 -0.0419  0.2116
 7038W        W23222  12.064   3.091   3.951  0.0450  0.1766  0.0412
 7039W        W23223   2.647   9.721  14.097 -0.1978 -0.3746 -0.0144
 7040W        W23224   6.504   5.226  16.095 -0.2183 -0.0160  0.2835
 7041W        W23225   1.969   8.104   2.929  0.2161  0.0026  0.1825
 7042W        W23226  10.273   6.412   3.211  0.1166  0.3909 -0.0301
 7043W        W23227  14.481   0.410   1.886 -0.4633  0.3943 -0.0363
 7044W        W23228   7.777   8.547  15.368 -0.0289 -0.0266  0.3070
 7045W        W23229  11.994  13.593   1.785  0.0733  0.3372 -0.3302
 7046W        W23230   1.451   2.423   5.510 -0.1884  0.0719 -0.4012
 7047W        W23231   9.779   3.931  14.888  0.1609 -0.0079  0.1671
 7048W        W23232  11.032   7.868  12.864  0.0214 -0.2900 -0.0996
 7049W        W23233  12.425   7.188  11.696  0.1481 -0.3357 -0.1188
 7050W        W23234  11.659  11.971  16.084 -0.2707  0.0379  0.1435
 7051W        W23235  14.196  15.279  13.767 -0.0481  0.1797 -0.0445
 7052W        W23236   2.956  10.989  14.865  0.0881  0.1378  0.2625
 7053W        W23237   1.275   8.857  12.491  0.0573 -0.0036 -0.0289
 7054W        W23238   8.947   1.499   2.309  0.3064 -0.1886  0.0722
 7055W        W23239   0.031  14.974   3.411 -0.0147  0.0018  0.0876
 7056W        W23240   5.337   3.295  15.861 -0.0269 -0.0206  0.0578
 7057W        W23241   1.894  11.807  12.390 -0.2750 -0.0437  0.1633
 7058W        W23242  12.564  12.797  15.754 -0.1874 -0.0353 -0.1713
 7059W        W23243   8.503   9.388   0.866  0.2732 -0.1732 -0.0687
 7060W        W23244   3.671   6.042  13.948  0.1892 -0.1188  0.0934
 7061W        W23245   2.787  11.404  12.378 -0.0994  0.1824  0.0990
 7062W        W23246   2.086  13.970  10.212  0.3186 -0.2066 -0.2173
 7063W        W23247   4.269   1.454  10.927 -0.4498 -0.0729  0.3861
 7064W        W23248   2.352   9.117   1.930  0.2952  0.2661 -0.0124
 7065W        W23249   7.186  11.101   1.622  0.1472  0.2873  0.0894
 7066W        W23250   4.043   6.729   5.020  0.0681 -0.0360 -0.0103
 7067W        W23251   1.616   5.924  16.200 -0.2540 -0.1362  0.1836
 7068W        W23252  12.401   6.095  15.965 -0.0493  0.1189 -0.2068
 7069W        W23253  16.925   7.160   0.177 -0.0230  0.1509 -0.1432
 7070W        W23254  10.966   3.510  12.301  0.0812 -0.0029  0.1497
 7071W        W23255   4.573   4.832  12.908 -0.0232 -0.2864  0.1362
 7072W        W23256  12.232   7.711   0.059 -0.0266 -0.0126  0.1202
 7073W        W23257   9.219   6.039   1.002  0.2601  0.1798 -0.0532
 7074W        W23258  11.435   6.339   4.644 -0.2490 -0.1170  0.0552
 7075W        W23259   5.244  12.499  10.549 -0.0033  0.2816 -0.0744
 7076W        W23260   0.941   9.610  14.691  0.1945 -0.1027  0.1229
 7077W        W23261   5.217  13.397  12.386 -0.1917  0.0323 -0.2908
 7078W        W23262  10.794   8.344  14.463  0.2017 -0.2533 -0.0264
 7079W        W23263   0.728   1.341   5.202  0.3668  0.1799  0.1749
 7080W        W23264   4.279  13.273   3.564 -0.1717  0.0253 -0.0034
 7081W        W23265   3.399  12.117   0.599  0.0861  0.0573 -0.2574
 7082W        W23266   9.387   4.012  15.674  0.1662  0.0394  0.3305
 7083W        W23267   7.220  15.461   2.882  0.1980  0.2004 -0.2109
 7084W        W23268  10.288   8.978  12.514  0.0514 -0.1484  0.0662
 7085W        W23269  12.011  11.396   5.931  0.1054 -0.0357 -0.1075
 7086W        W23270   3.366   1.129   1.967 -0.2120 -0.0396  0.3552
 7087W        W23271  15.626   5.861   1.918  0.0751 -0.3110 -0.2809
 7088W        W23272  10.287  15.331  14.823 -0.2652 -0.3141  0.0016
 7089W        W23273   7.659   3.378   4.316  0.3476 -0.0561  0.0659
 7090W        W23274   0.431  15.830  15.211  0.1511 -0.1268  0.0783
 7091W        W23275  13.991  10.742   3.222  0.1004  0.3739 -0.1557
 7092W        W23276   0.886   1.445   0.391 -0.0556  0.0537 -0.0327
 7093W        W23277   7.658  13.735   1.392  0.3108 -0.1335 -0.0420
 7094W        W23278   0.827  11.054   2.859  0.0786  0.0107 -0.4573
 7095W        W23279  11.410  11.884  12.215  0.0189 -0.1447  0.0564
 7096W        W23280   3.690  14.312   5.007 -0.2871 -0.2716  0.0550
 7097W        W23281  12.150   1.949   5.233 -0.1263  0.1227 -0.1798
 7098W        W23282  15.292   8.322  11.561  0.0459  0.1591  0.0052
 7099W        W23283  12.028  11.877  12.144 -0.0623 -0.1331  0.2860
 7100W        W23284   4.704   6.419  12.494 -0.0660  0.2041  0.0325
 7101W        W23285  12.544  10.106   2.641 -0.2784 -0.2787  0.0447
 7102W        W23286   9.259   1.094   3.244  0.0170  0.1186 -0.1722
 7103W        W23287  11.949  16.778   5.208 -0.2151 -0.1067 -0.0650
 7104W        W23288   1.775  15.023  11.089  0.2688 -0.3522  0.3134
 7105W        W23289  16.743  10.680  13.424  0.1346 -0.1189  0.1348
 7106W        W23290   0.349  17.286  14.707 -0.0508 -0.2177 -0.1807
 7107W        W23291   8.900   1.661   1.798  0.0700  0.0189 -0.0313
 7108W        W23292  14.597   4.368  12.698 -0.2758  0.0820  0.1052
 7109W        W23293   2.687   2.269  12.757 -0.0199 -0.0160  0.5358
 7110W        W23294  15.525   5.542   4.895 -0.0723  0.1541 -0.1278
 7111W        W23295  15.756   7.769   4.640 -0.0752 -0.0768  0.0070
 7112W        W23296  10.892   1.742   2.007  0.0691 -0.0036  0.0208
 7113W        W23297   5.689  12.539   3.143  0.2853  0.0198  0.1483
 7114W        W23298  17.885  15.481   2.511  0.1112  0.2315  0.2018
 7115W        W23299   4.629   7.121  15.540 -0.0139 -0.1530  0.1333
 7116W        W23300   0.175   7.075   4.090  0.2738 -0.1984  0.0096
 7117W        W23301   2.591  12.448   3.050 -0.1644 -0.2285  0.0084
 7118W        W23302   1.722   0.195  12.833 -0.1547  0.2719  0.0624
 7119W        W23303  11.242   8.912   1.509 -0.1174 -0.0086 -0.1745
 7120W        W23304   8.213   2.622  14.097 -0.3669 -0.2675  0.0890
 7121W        W23305   5.047   9.989   3.588  0.1153  0.0286 -0.1451
 7122W        W23306  17.012  11.509  15.736 -0.0183 -0.3455  0.0889
 7123W        W23307  12.272  10.163   3.071  0.1093 -0.3309  0.1174
 7124W        W23308  10.621  13.893  14.714 -0.5403 -0.1623  0.0875
 7125W        W23309  10.259  17.977  12.857 -0.0966  0.0568  0.1957
 7126W        W23310  14.416   4.931   0.615 -0.0537 -0.1375  0.2874
 7127W        W23311   2.728   7.767  15.800  0.1586 -0.0183 -0.1323
 7128W        W23312   6.528  13.906  11.430  0.1705  0.0540  0.1088
 7129W        W23313   6.370   0.768   1.880 -0.0698  0.4531 -0.0434
 7130W        W23314   6.039  17.057  11.817  0.1985 -0.0210 -0.1649
 7131W        W23315  17.462  12.990  14.481 -0.3513 -0.0036  0.1671
 7132W        W23316   1.249   4.414  14.608 -0.1155 -0.0638 -0.5127
 7133W        W23317   4.613   0.608  11.822  0.0809  0.0925  0.1410
 7134W        W23318  15.151   0.132  15.536 -0.1976 -0.0229  0.3092
 7135W        W23319   1.674  12.476  16.234 -0.0090 -0.0486  0.0960
 7136W        W23320   1.358   1.868  14.905  0.3186  0.0357 -0.0016
 7137W        W23321  16.299   1.183   5.436  0.2995 -0.0054  0.1585
 7138W        W23322   6.198   4.277  13.738 -0.1454  0.0134 -0.0660
 7139W        W23323   5.735  16.509  13.650 -0.0378 -0.2461 -0.0213
 7140W        W23324  11.830  13.774  14.457 -0.0400  0.0449  0.0421
 7141W        W23325  10.597   0.548   0.117 -0.1939 -0.2900 -0.0992
 7142W        W23326  14.649  10.196  15.982 -0.0445  0.4307 -0.2126
 7143W        W23327  10.797  16.881  12.165 -0.2200  0.4466  0.0489
 7144W        W23328   9.731   6.041  12.348  0.0651  0.1893 -0.0133
 7145W        W23329   4.178   0.063   0.148 -0.0181 -0.0148 -0.2570
 7146W        W23330  17.483   2.617  12.601 -0.1914  0.1245  0.0050
 7147W        W23331   1.626   1.783   3.729 -0.1440  0.0934  0.1481
 7148W        W23332   6.344   2.154   0.282 -0.2380 -0.0488 -0.2795
 7149W        W23333   4.642   2.953   1.621 -0.0708 -0.0894 -0.3183
 7150W        W23334   3.103  15.934   5.547 -0.0515  0.1856 -0.0038
 7151W        W23335   0.183  16.159  12.713 -0.1409  0.3007  0.3072
 7152W        W23336  16.616   2.409   4.053  0.3050 -0.0396  0.2234
 7153W        W23337  10.961   1.979  11.547  0.3298  0.1764  0.0614
 7154W        W23338   8.527  12.280   3.150 -0.0213 -0.0740  0.0696
 7155W        W23339   5.725   1.550   0.361 -0.0677 -0.1489  0.2044
 7156W        W23340   6.318   6.622   0.863 -0.0842 -0.3156  0.1475
 7157W        W23341   4.381   7.803   1.213  0.1944 -0.1771  0.0412
 7158W        W23342   4.198  16.285   0.287  0.0281 -0.0362  0.0390
 7159W        W23343   8.510  14.551   2.727 -0.2340  0.1763 -0.2534
 7160W        W23344   5.407  12.658  14.515  0.1744 -0.1426 -0.1356
 7161W        W23345   7.831   1.263   2.334 -0.1475 -0.0246  0.0096
 7162W        W23346  11.503   3.516  16.374 -0.0828 -0.0514  0.6122
 7163W        W23347   2.591  10.725   3.278 -0.1792  0.1454  0.2944
 7164W        W23348   5.549   8.468  14.461 -0.2688 -0.0898  0.0648
 7165W        W23349  13.260  14.621  16.696 -0.1401  0.1076  0.1420
 7166W        W23350  14.071   6.403  11.751  0.1158  0.0363  0.0420
 7167W        W23351   7.305  14.238  15.723  0.2848  0.0292  0.0063
 7168W        W23352  15.561  17.022  15.524 -0.1279 -0.0915  0.0653
 7169W        W23353  17.771  13.599   0.223 -0.3297  0.2273  0.2839
 7170W        W23354  11.116   1.372   1.676 -0.1719 -0.2191  0.0516
 7171W        W23355   2.849  14.790  12.859  0.0916  0.4174 -0.1468
 7172W        W23356   4.629  15.116   2.575  0.2302  0.0276 -0.2672
 7173W        W23357   4.498  15.876   5.000 -0.0278 -0.3419 -0.1631
 7174W        W23358   7.578   5.619  12.789 -0.2503  0.1375 -0.0980
 7175W        W23359   4.083   4.010  14.033 -0.0433  0.2444  0.0341
 7176W        W23360  12.776   1.021   4.225  0.0823 -0.3995 -0.1236
 7177W        W23361   3.306  15.207  12.249 -0.1446 -0.1934 -0.1868
 7178W        W23362   2.879   4.798   3.018  0.0963  0.0686  0.1019
 7179W        W23363  10.452   6.611   0.074  0.1538 -0.0166 -0.0109
 7180W        W23364   0.622   9.500   0.374 -0.0270 -0.0841 -0.0341
 7181W        W23365   2.073  16.271   6.245 -0.4228  0.3980 -0.2413
 7182W        W23366   9.429   8.452   3.732  0.0654  0.0525 -0.1683
 7183W        W23367  16.174  13.572  14.722 -0.4035 -0.1537 -0.0194
 7184W        W23368   0.664  16.363  15.967 -0.4232 -0.2353 -0.1102
 7185W        W23369   8.915  15.655   2.866 -0.0951  0.2035 -0.1339
 7186W        W23370   0.761  13.484   5.095  0.0237 -0.0730 -0.2714
 7187W        W23371  16.051  10.589   0.409  0.3630  0.0299 -0.0774
 7188W        W23372  13.113   0.633   0.148 -0.1623 -0.3332 -0.3289
 7189W        W23373  10.137   4.749  14.643  0.2452 -0.1754 -0.1454
 7190W        W23374  11.854   3.511  13.345  0.1586 -0.3374 -0.0597
 7191W        W23375   7.895  13.548  13.119  0.2545 -0.0834  0.0001
 7192W        W23376   7.148   2.907  16.094 -0.0709 -0.2107  0.0043
 7193W        W23377  13.060  16.240  15.783 -0.4695  0.1918  0.0173
 7194W        W23378  11.036   0.223  10.358  0.0957 -0.0025 -0.0982
 7195W        W23379   2.544  16.607   0.385 -0.1534 -0.2649  0.2257
 7196W        W23380  13.369  10.587   3.026 -0.0240  0.0593  0.0432
 7197W        W23381  10.030   8.720  16.111  0.2301 -0.1119  0.6032
 7198W        W23382   9.238   5.826   0.107 -0.0759  0.2154 -0.0896
 7199W        W23383   2.626   0.807  16.264  0.2551 -0.3036 -0.0340
 7200W        W23384   8.442  14.171   5.783  0.0098  0.0968 -0.2970
 7201W        W23385  13.659   9.498  14.906  0.3147  0.0625 -0.5061
 7202W        W23386  17.597   5.522   2.207  0.0400 -0.0892  0.3270
 7203W        W23387   6.138   8.485   4.896 -0.1787  0.1076  0.2014
 7204W        W23388  17.241   1.978   4.793 -0.3652  0.1298 -0.1190
 7205W        W23389  11.433  17.175   5.639 -0.2047 -0.0946 -0.0586
 7206W        W23390  16.627   6.402   2.546 -0.3166  0.3065  0.0583
 7207W        W23391  15.676  15.240   3.136  0.2661 -0.2256  0.0216
 7208W        W23392  10.630   3.065  16.621  0.0803 -0.0765 -0.1994
 7209W        W23393  16.235   8.161   4.894  0.2989 -0.0002  0.1511
 7210W        W23394   8.999   1.820  12.985 -0.0727  0.0299  0.2140
 7211W        W23395  17.465   4.039   3.115 -0.2489 -0.3633 -0.1424
 7212W        W23396   3.059  16.266   1.234 -0.0308 -0.1072  0.2266
 7213W        W23397  11.189  13.544  15.787 -0.0378  0.1508  0.0041
 7214W        W23398   7.445   9.223   3.322  0.1058 -0.0998 -0.5124
 7215W        W23399  13.948   4.613   5.014  0.2970  0.2149  0.0597
 7216W        W23400   8.510   4.445   4.964  0.1637 -0.2296 -0.1085
 7217W        W23401   1.348   3.728  13.708  0.1682 -0.1243  0.1005
 7218W        W23402   2.478  10.637   4.230  0.0747  0.0217  0.0366
 7219W        W23403  11.046  14.671  13.967 -0.2086  0.1377  0.0411
 7220W        W23404   9.545  13.542   2.114  0.0892 -0.1018 -0.3712
 7221W        W23405  16.187  14.443  14.816  0.0237 -0.1955 -0.3725
 7222W        W23406  14.155  16.379   6.183 -0.1913 -0.1742  0.1933
 7223W        W23407   6.800   7.091  15.523  0.2851 -0.0852 -0.2484
 7224W        W23408   5.812  15.000  14.716  0.3437  0.0284 -0.1324
 7225W        W23409   5.075   2.779  15.442  0.0345 -0.0614  0.1304
 7226W        W23410   2.086   6.079   4.256  0.0218 -0.2475 -0.2421
 7227W        W23411   8.009   4.556   5.659 -0.0439  0.0455  0.0662
 7228W        W23412  13.912   1.901   3.826  0.2151 -0.2487  0.1227
 7229W        W23413   9.832   7.021   5.867  0.0864  0.2864 -0.3771
 7230W        W23414   4.629   2.912  15.590 -0.1967 -0.1213 -0.0341
 7231W        W23415  16.256   7.881  12.479  0.1579  0.0330 -0.0230
 7232W        W23416  15.486   9.724  11.539  0.0318 -0.1245 -0.0746
 7233W        W23417  13.526   7.728  11.311 -0.0532 -0.2236  0.0830
 7234W        W23418   0.273  13.266   3.949 -0.4053 -0.1271  0.0936
 7235W        W23419  15.433   5.535  15.872 -0.2618  0.2491  0.3389
 7236W        W23420   5.301   4.734  15.648  0.1359  0.0656  0.1886
 7237W        W23421   2.298   5.209  14.029  0.0274 -0.1964  0.1642
 7238W        W23422  12.111  12.086  15.779  0.2387  0.0869 -0.1662
 7239W        W23423   9.032  10.908   1.723  0.0625 -0.0668 -0.0117
 7240W        W23424   7.008  17.581  11.513 -0.1218  0.1607 -0.1267
 7241W        W23425   6.655   4.027  13.756  0.2778  0.2231  0.0572
 7242W        W23426   7.693  12.719  12.835 -0.0951 -0.1036  0.1688
 7243W        W23427   9.663   4.167  13.790 -0.4696  0.1127 -0.1374
 7244W        W23428  13.821  15.902  16.203  0.0233  0.1544 -0.0345
 7245W        W23429  10.996  10.234  13.752 -0.0619 -0.1047 -0.2028
 7246W        W23430  14.786  10.380   1.616 -0.1432  0.1354 -0.1373
 7247W        W23431   8.517  13.325   5.663 -0.1614 -0.2854 -0.1541
 7248W        W23432   8.423   3.165  13.010 -0.0416  0.0491 -0.2432
 7249W        W23433  16.369  17.193   2.632  0.4398  0.1410  0.0553
 7250W        W23434   7.301   8.636   4.918 -0.2409  0.2005 -0.0820
 7251W        W23435   1.104  14.327  12.137  0.2106 -0.0926 -0.1976
 7252W        W23436   6.646  11.322  13.064 -0.0328 -0.1515  0.0189
 7253W        W23437   0.290   3.648   3.102 -0.0543 -0.1169  0.1775
 7254W        W23438  17.747  13.992  13.661 -0.1602 -0.0390  0.1352
 7255W        W23439   3.311   8.496  13.809  0.2085  0.2389 -0.0001
 7256W        W23440  11.933   1.539   1.893 -0.1713 -0.3433  0.2993
 7257W        W23441  11.650   1.755  13.291 -0.2544 -0.0845  0.0035
 7258W        W23442   0.557   4.086  14.246  0.0505  0.1100  0.2640
 7259W        W23443   6.260  11.237  16.391 -0.0584 -0.2281  0.1742
 7260W        W23444   4.469   7.008  11.690 -0.1580 -0.2110 -0.0346
 7261W        W23445   3.274  14.947  12.737 -0.2442  0.0983  0.0999
 7262W        W23446   8.760  13.315   2.575 -0.0773 -0.0056 -0.0819
 7263W        W23447  15.579   6.788   0.565  0.0217  0.3704  0.1346
 7264W        W23448   7.696  14.593   4.617 -0.1928 -0.0290  0.1469
 7265W        W23449   3.171  17.117   2.944 -0.0464  0.0682  0.4127
 7266W        W23450  10.543   7.987  16.129  0.1030 -0.2285 -0.0818
 7267W        W23451   3.365  16.595  13.106 -0.4201 -0.0466 -0.1554
 7268W        W23452  11.211   1.220  11.905 -0.2664 -0.2675 -0.1921
 7269W        W23453  14.448  12.936   4.385  0.2371 -0.0615 -0.1331
 7270W        W23454   1.167   0.050   1.525  0.1625 -0.0426  0.1442
 7271W        W23455   7.919   5.417   0.074 -0.1414  0.0114 -0.0405
 7272W        W23456   8.495   4.727  16.465  0.1889  0.0088  0.0986
 7273W        W23457  13.705   5.588  14.492  0.0141  0.0824 -0.2121
 7274W        W23458   0.680   0.858   2.227  0.0497  0.1273 -0.3223
 7275W        W23459   1.880   7.449   3.684 -0.0812 -0.0514  0.1204
 7276W        W23460  17.449  10.971  14.408  0.3687  0.4851 -0.1316
 7277W        W23461   1.446   8.546   5.486 -0.1994 -0.0052 -0.1281
 7278W        W23462   0.090   4.238   1.953  0.0522 -0.3527 -0.0702
 7279W        W23463   3.434  11.792  12.149  0.2659 -0.1485 -0.1908
 7280W        W23464  13.972  12.721   2.407 -0.0221  0.0696 -0.1523
 7281W        W23465  12.963   5.441   1.691 -0.1215 -0.1918  0.0591
 7282W        W23466   8.383   2.053  15.507  0.1631  0.0618  0.2119
 7283W        W23467   2.964   2.226   4.256 -0.3831  0.0765  0.1235
 7284W        W23468  12.596   8.288  12.624 -0.2888 -0.0847  0.1192
 7285W        W23469  16.033   3.304  14.792 -0.0182  0.4099 -0.0031
 7286W        W23470   4.411   9.071   3.141  0.0261 -0.0053  0.1282
 7287W        W23471   5.310   5.582   1.390  0.0620 -0.3111 -0.0761
 7288W        W23472  16.503   5.714  12.111  0.1863 -0.2066 -0.1456
 7289W        W23473   7.068  14.033  14.367  0.3010 -0.1004 -0.0076
 7290W        W23474   8.552  10.183  11.636 -0.1934  0.4419 -0.1244
 7291W        W23475  13.029   9.828  12.973  0.0038  0.1176  0.0557
 7292W        W23476   1.785  13.672   2.088 -0.2419  0.1216 -0.1679
 7293W        W23477  10.139   8.802  14.872  0.0684  0.2567  0.3651
 7294W        W23478  10.426  16.568   0.548  0.0913 -0.2711 -0.2127
 7295W        W23479   9.672   0.075   1.588  0.1461 -0.0838 -0.1818
 7296W        W23480  11.549  13.168  10.583  0.0320 -0.2751  0.0962
 7297W        W23481   8.662   6.969  14.718  0.0185 -0.0025 -0.3893
 7298W        W23482   6.702  14.717   2.469  0.0762 -0.3722  0.4088
 7299W        W23483   1.042  17.215   5.709  0.0261  0.2486  0.0241
 7300W        W23484  11.375  17.267   1.506 -0.2435  0.2760 -0.0781
 7301W        W23485   8.938  16.294  16.090 -0.1462 -0.0396 -0.1156
 7302W        W23486   2.744   1.114   0.131  0.1614  0.0952 -0.2652
 7303W        W23487   8.292   0.567   4.148  0.3305  0.2283  0.2599
 7304W        W23488  13.713   8.253   3.265 -0.0901  0.0480 -0.0682
 7305W        W23489   9.744   7.854  15.179  0.0049 -0.2525  0.0700
 7306W        W23490  10.458  17.305   3.041  0.2924  0.0854  0.0795
 7307W        W23491   4.630   3.024   1.110  0.1093  0.2312  0.0640
 7308W        W23492   1.862   5.595  14.819 -0.5868 -0.0268 -0.0765
 7309W        W23493   6.102   5.867  13.563  0.0426  0.1706  0.1404
 7310W        W23494   2.862   4.559   6.378  0.4722  0.1914  0.0015
 7311W        W23495   0.881  15.616  14.764  0.0318  0.0547 -0.0563
 7312W        W23496   4.395  11.000   1.809  0.1949  0.0546 -0.1782
 7313W        W23497  13.346   6.428   3.144  0.1346  0.1798 -0.0738
 7314W        W23498   9.992  17.759   2.292  0.1038  0.1120  0.1138
 7315W        W23499  11.539  17.834  15.873 -0.1373 -0.1117  0.1657
 7316W        W23500  11.466   0.070   2.615 -0.1870  0.0491 -0.0010
 7317W        W23501   7.234   1.193   2.294  0.0262 -0.0034  0.0854
 7318W        W23502  11.114   1.926   0.705  0.2716 -0.0785  0.1876
 7319W        W23503  13.900  10.148  16.659  0.1466 -0.4518 -0.0523
 7320W        W23504   7.529   0.168  12.271 -0.1782  0.0626  0.0064
 7321W        W23505  13.205  10.936  12.010 -0.0286  0.1141 -0.2876
 7322W        W23506   9.033   5.562   1.008 -0.0759  0.0031 -0.0049
 7323W        W23507  15.799   9.212  14.301  0.2504 -0.0636 -0.1618
 7324W        W23508  12.774  14.698   5.197 -0.1515 -0.2808  0.1321
 7325W        W23509   0.235   3.590   4.518 -0.0869  0.1447 -0.3521
 7326W        W23510   2.130  12.212  15.256  0.1604 -0.1104 -0.0301
 7327W        W23511  11.159   9.948   3.523  0.0667  0.2549 -0.0985
 7328W        W23512   7.172   4.185   5.318  0.0922 -0.1032  0.0996
 7329W        W23513  12.106   8.312  12.527 -0.0828 -0.0239 -0.2409
 7330W        W23514   7.765   5.960   4.810  0.2136  0.0086  0.1274
 7331W        W23515  12.541   6.539   4.601 -0.2118  0.1674  0.1775
 7332W        W23516   4.450  11.226   6.093  0.5706  0.0207  0.1061
 7333W        W23517   9.759   0.374  13.675  0.0626  0.1935  0.0602
 7334W        W23518   4.036  10.139  12.196 -0.0438  0.3017 -0.0597
 7335W        W23519   1.039  12.994   1.418 -0.0932 -0.1977 -0.2400
 7336W        W23520   1.248   8.279   0.437 -0.1439 -0.0454  0.2903
 7337W        W23521   5.830   2.124   0.378 -0.5243 -0.1022 -0.0105
 7338W        W23522   7.116   3.849  14.947 -0.1641 -0.0027  0.0274
 7339W        W23523  14.816  14.625   4.613 -0.1182  0.0682  0.0484
 7340W        W23524   7.404   7.519   4.463  0.0597 -0.0467 -0.1833
 7341W        W23525  15.639   7.718   5.120 -0.0540  0.0751  0.2917
 7342W        W23526  15.413   3.550   5.532  0.1410 -0.0679 -0.0534
 7343W        W23527   9.994  14.873  14.999  0.4109 -0.0855 -0.0024
 7344W        W23528   6.662   3.950   3.149  0.2028 -0.4931  0.1242
 7345W        W23529   2.424   4.848   2.934 -0.2936 -0.0488  0.0748
 7346W        W23530  15.985  13.712   4.513 -0.1250 -0.2628 -0.0090
 7347W        W23531  17.462   0.374   3.054 -0.0459 -0.0777 -0.1928
 7348W        W23532   7.227   4.317   6.059 -0.2605 -0.0031 -0.1543
 7349W        W23533   1.723  13.629   6.605 -0.2189  0.0744  0.3905
 7350W        W23534   9.820   5.722   1.656  0.0123 -0.1597  0.0352
 7351W        W23535  15.805   1.420  16.131 -0.1994  0.0447  0.1520
 7352W        W23536   0.332   9.386  13.491  0.0151 -0.1303 -0.1264
 7353W        W23537   9.189  10.502   4.792  0.3724 -0.0017 -0.0187
 7354W        W23538  14.176   8.272   2.955  0.0594  0.0502 -0.1707
 7355W        W23539  15.674  17.775   0.025 -0.0429 -0.5172 -0.0181
 7356W        W23540   8.619   7.105   5.933  0.0750 -0.1883  0.1484
 7357W        W23541  15.879   8.612  15.489  0.1465 -0.1786 -0.1051
 7358W        W23542   9.464   0.442   0.331 -0.1447  0.4562  0.1178
 7359W        W23543  15.725  13.192  13.950 -0.0292 -0.0658  0.3169
 7360W        W23544   0.004   0.129  13.143 -0.0949 -0.0123  0.0865
 7361W        W23545   0.137  12.844   4.173 -0.1541 -0.1077 -0.0445
 7362W        W23546  13.091   1.981   5.455  0.0652 -0.0971 -0.0395
 7363W        W23547   3.382   6.356  16.138  0.0114  0.2999  0.2394
 7364W        W23548   3.349  17.965   0.645 -0.3365  0.0367  0.0552
 7365W        W23549  11.963   3.888  13.728 -0.0203 -0.2072 -0.2511
 7366W        W23550  17.234   8.787   0.969  0.3297  0.1909 -0.0995
 7367W        W23551  15.026  10.174  13.625  0.1923 -0.0725  0.2576
 7368W        W23552   0.068   6.691  10.694 -0.0977 -0.1325  0.0487
 7369W        W23553  11.048  11.864   0.178 -0.2081  0.2669  0.0469
 7370W        W23554  13.127   8.441  16.428 -0.0904  0.3226 -0.3277
 7371W        W23555   2.506   2.160   2.105 -0.0790  0.0966  0.1293
 7372W        W23556  11.259   3.087  16.258  0.1058 -0.1138 -0.6435
 7373W        W23557   3.139   4.021   3.588  0.1813  0.0218 -0.0024
 7374W        W23558   6.926   0.331   3.575 -0.1627  0.0912 -0.1859
 7375W        W23559   6.395   3.312  15.487 -0.3353  0.0046  0.0934
 7376W        W23560  11.778   4.384   0.698  0.1627 -0.1697 -0.0563
 7377W        W23561  14.759  17.236  15.279  0.0382 -0.3643 -0.4538
 7378W        W23562  11.285  15.736   4.534  0.0034 -0.0071  0.1981
 7379W        W23563  14.049  13.826  11.922 -0.1237  0.0134 -0.1938
 7380W        W23564  10.088  11.738   3.085  0.0902  0.1537 -0.2346
 7381W        W23565   2.359  15.432  13.271  0.1891 -0.1159  0.3137
 7382W        W23566  12.623  12.272   4.013  0.2196  0.0474 -0.1566
 7383W        W23567   5.155   3.311  13.098 -0.2316 -0.3542  0.4375
 7384W        W23568   5.247   4.477   4.049  0.1027 -0.1310 -0.1253
 7385W        W23569   4.716  12.643  14.647  0.0909  0.0070  0.1635
 7386W        W23570   2.014   4.678  11.793 -0.0271  0.4432  0.1206
 7387W        W23571   9.635  17.076  11.799  0.0350  0.2682  0.0756
 7388W        W23572  13.196   6.247   4.182 -0.0130  0.0535 -0.1705
 7389W        W23573   5.075  16.391   2.442  0.1166  0.0447  0.0664
 7390W        W23574   9.900   3.224   3.153 -0.0060 -0.2298  0.0614
 7391W        W23575   8.512   0.271   4.486  0.0428 -0.2550 -0.0806
 7392W        W23576  10.544  15.365   0.249  0.2292  0.1877  0.1873
 7393W        W23577  12.626  16.595   3.103  0.2658 -0.1605  0.0614
 7394W        W23578   0.771   2.897   3.528  0.0840 -0.2247  0.2474
 7395W        W23579  11.747   3.346   5.305 -0.0490  0.0215 -0.0965
 7396W        W23580   9.118   2.755   4.973  0.2260  0.1015 -0.0450
 7397W        W23581  12.020  14.630  13.209 -0.0179 -0.0574  0.1929
 7398W        W23582   7.090  17.711   4.921  0.1792 -0.1143 -0.0312
 7399W        W23583   5.769   5.089   3.039  0.1037  0.2654 -0.2295
 7400W        W23584   6.715   4.421  16.690  0.0040 -0.3374 -0.2115
 7401W        W23585   6.572  14.914   5.275 -0.2509 -0.1357  0.0699
 7402W        W23586  11.923  16.035   2.963  0.0283 -0.0763 -0.0393
 7403W        W23587  12.428  13.746   0.457  0.1046  0.0489  0.3614
 7404W        W23588   7.489   4.987   2.699  0.0382 -0.1729  0.0478
 7405W        W23589  15.705   4.156   3.910 -0.0703  0.3220 -0.1842
 7406W        W23590  11.344   6.367  14.706 -0.0277 -0.0869 -0.1743
 7407W        W23591  17.762  14.254   4.822 -0.1141 -0.1337 -0.1662
 7408W        W23592  17.434  13.573   4.411 -0.0173  0.0753  0.0557
 7409W        W23593   7.155  12.945  16.454 -0.0169  0.0929  0.1080
 7410W        W23594   3.601   3.029   1.545  0.1085 -0.0208  0.0226
 7411W        W23595  14.835  15.011   5.215  0.1537  0.0058 -0.1356
 7412W        W23596   2.752  12.491   4.759  0.1124  0.2421  0.1927
 7413W        W23597   8.331  15.444   3.259 -0.2851  0.1494  0.1432
 7414W        W23598  16.420   8.447  15.852  0.0598  0.3850  0.1278
 7415W        W23599  11.313   6.833   1.103 -0.1613 -0.0702  0.1058
 7416W        W23600   9.245  14.143   4.384  0.0339  0.0785 -0.2142
 7417W        W23601  17.873   9.232  11.555  0.1735  0.1022  0.2051
 7418W        W23602   0.525   8.217  15.731 -0.1986  0.0616 -0.1534
 7419W        W23603  16.392   4.728   4.776  0.2322 -0.0235 -0.1246
 7420W        W23604   6.790   9.806  15.781  0.0006  0.0461 -0.1177
 7421W        W23605   4.694  12.017   0.642  0.1099  0.0921 -0.1817
 7422W        W23606  16.279  11.374  15.056 -0.0415  0.3154 -0.0033
 7423W        W23607  12.061  14.628   1.477 -0.1990  0.0485 -0.0607
 7424W        W23608   2.047   2.570  12.892  0.0639 -0.2407 -0.0215
 7425W        W23609   2.896   4.309   1.351 -0.2141 -0.2401 -0.1705
 7426W        W23610  13.466   8.315  13.428 -0.5032  0.4347  0.3147
 7427W        W23611  15.536   0.450   0.914  0.4221  0.0410  0.1971
 7428W        W23612   5.055  17.500   5.726 -0.0729  0.0809  0.1076
 7429W        W23613   8.759  12.687   4.749 -0.4082 -0.2091  0.0677
 7430W        W23614  10.404  15.480   4.492 -0.1320  0.0040  0.2534
 7431W        W23615   9.243   3.601   4.074 -0.2450  0.0104  0.2716
 7432W        W23616   8.639   8.100   1.847  0.1010 -0.0922 -0.1667
 7433W        W23617  11.291   7.100   1.645  0.3836 -0.0567  0.1265
 7434W        W23618  10.750  15.348  15.981 -0.0062 -0.1024  0.1015
 7435W        W23619   5.424   3.314  14.828 -0.1757  0.1002  0.1863
 7436W        W23620  13.835   8.228  14.721  0.1273 -0.1261  0.0354
 7437W        W23621  14.909   2.945   5.127  0.0683  0.4906 -0.1111
 7438W        W23622  17.839  17.448   1.629  0.0245 -0.0713 -0.1421
 7439W        W23623   7.378  12.441  13.659 -0.3343 -0.2221 -0.1206
 7440W        W23624   4.184   3.141   3.898  0.1296  0.0330 -0.4320
 7441W        W23625   9.453   8.487  14.717 -0.0811 -0.0839  0.0365
 7442W        W23626  12.965   7.746  12.609 -0.1328 -0.0489  0.0105
 7443W        W23627  12.498   5.597   5.387  0.2028  0.0445 -0.0182
 7444W        W23628   8.944   9.247   2.202 -0.1050  0.0483  0.0256
 7445W        W23629   9.003   9.535   4.643 -0.0491  0.0551  0.1085
 7446W        W23630  15.973   9.826  16.600 -0.5853 -0.1698 -0.0737
 7447W        W23631   9.736  15.348  16.210  0.1255 -0.0796  0.2157
 7448W        W23632   2.872   1.356   4.157  0.1333 -0.1643  0.1302
 7449W        W23633  11.175   3.857  11.925 -0.3210  0.0355  0.0112
 7450W        W23634   1.343   0.482   1.783 -0.0156  0.2082  0.1938
 7451W        W23635  10.360   6.969  14.080 -0.1655 -0.1490 -0.3383
 7452W        W23636  13.478   2.104   0.044  0.1228  0.0986  0.0043
 7453W        W23637   5.563  11.612   5.290 -0.0154 -0.0477  0.0082
 7454W        W23638   7.320   7.933  13.226  0.1223  0.0691 -0.1884
 7455W        W23639   8.866   8.413  14.473 -0.1870 -0.0089  0.1414
 7456W        W23640   4.721   0.454   0.815  0.2050 -0.0134 -0.0324
 7457W        W23641   9.945  14.225   4.839 -0.3203 -0.0804  0.0082
 7458W        W23642   8.582  15.994   2.125 -0.0749  0.0221 -0.1819
 7459W        W23643  16.981   2.677   4.366 -0.1084 -0.1510  0.2863
 7460W        W23644   4.955   6.113   5.633  0.1722 -0.2086 -0.0586
 7461W        W23645  10.747  16.126  13.203 -0.1128  0.1412 -0.0510
 7462W        W23646   0.303  11.097  16.050 -0.0102 -0.1212  0.1292
 7463W        W23647   1.935   7.824   4.992  0.0214 -0.1169 -0.0793
 7464W        W23648   8.753  17.761  12.590  0.0513 -0.0041 -0.1499
 7465W        W23649   0.809  15.150   2.281  0.0336 -0.0379 -0.1527
 7466W        W23650   8.305   6.524  13.076 -0.0630  0.1393 -0.0022
 7467W        W23651   3.414   9.757  12.536 -0.0630 -0.0481 -0.1943
 7468W        W23652  12.416  12.738   3.773 -0.0235  0.2263 -0.0035
 7469W        W23653   6.006  15.298   4.119 -0.3143  0.0371  0.2893
 7470W        W23654   9.472   3.432   4.504  0.0681  0.0575 -0.0593
 7471W        W23655  10.623  13.592   1.960 -0.0501 -0.2964  0.0706
 7472W        W23656   2.808   9.050  12.691 -0.0796 -0.1495  0.0943
 7473W        W23657   4.492  13.510  16.373 -0.0282 -0.3384  0.1029
 7474W        W23658   9.431   5.796  15.215  0.2829 -0.3205  0.2000
 7475W        W23659  13.352   7.062   3.833  0.2643 -0.1047 -0.3136
 7476W        W23660   2.914  12.489   0.008 -0.2617 -0.0585  0.0128
 7477W        W23661   9.324   3.685  12.487  0.0852 -0.1959 -0.1931
 7478W        W23662  13.896  16.498  15.773 -0.0026  0.2824  0.2027
 7479W        W23663  17.045  12.149  14.502 -0.1129 -0.2160  0.2757
 7480W        W23664   2.264   9.016  16.165  0.0226  0.1324 -0.0530
 7481W        W23665   3.307  17.341  13.515  0.3366  0.2473  0.0179
 7482W        W23666   1.479  11.178   2.451  0.1447  0.0484 -0.0316
 7483W        W23667   2.878   6.037  13.141  0.0098  0.3001  0.0049
 7484W        W23668  13.916   3.856   3.733 -0.2427 -0.1864  0.0402
 7485W        W23669  12.855   4.076  16.156  0.1471  0.1291  0.1957
 7486W        W23670   5.861  11.180   0.062  0.0457 -0.0788 -0.1169
 7487W        W23671   3.434   1.033  15.520  0.2308  0.0418 -0.2551
 7488W        W23672  10.459  15.542  13.207 -0.0049 -0.1208  0.1201
 7489W        W23673  13.059   6.619   3.851  0.1180 -0.0368 -0.3123
 7490W        W23674   1.822   2.296  13.231 -0.2027  0.0352  0.3229
 7491W        W23675   1.696   3.529   2.704  0.0264  0.1628 -0.5202
 7492W        W23676  15.882  11.762   2.451  0.0070 -0.1415  0.3283
 7493W        W23677  13.699   4.817   3.478  0.1024 -0.0059 -0.1736
 7494W        W23678   0.350   2.870   3.805  0.1491 -0.4882  0.0220
 7495W        W23679   1.271   0.681   4.941  0.1217 -0.2832  0.0095
 7496W        W23680   7.879  12.988   1.391 -0.3175  0.1383  0.3547
 7497W        W23681  13.804  11.265   0.743  0.1843 -0.0984 -0.1740
 7498W        W23682  17.350  14.480   1.463  0.0518  0.2852  0.0743
 7499W        W23683   3.423  15.956  13.092  0.3093 -0.1402  0.1301
 7500W        W23684  12.391  15.117  14.602 -0.0636 -0.1631  0.2255
 7501W        W23685  15.279   3.292  15.538 -0.0062 -0.0727  0.0843
 7502W        W23686   4.121   5.587   4.035  0.0676  0.0228  0.1625
 7503W        W23687  12.915  14.187   0.326 -0.0192 -0.0393 -0.3870
 7504W        W23688   7.066   2.056  13.661 -0.3166 -0.0602 -0.0100
 7505W        W23689   0.675  13.526   3.734 -0.0710  0.2038  0.1644
 7506W        W23690   4.231   8.250  13.594  0.0283  0.0472 -0.0465
 7507W        W23691   1.606   2.715  14.497 -0.0626  0.3999  0.4876
 7508W        W23692   6.520  12.551   2.816  0.0236  0.1424  0.0278
 7509W        W23693   4.213  15.888  14.488  0.2049  0.1713 -0.0297
 7510W        W23694  11.305   8.827   2.064  0.2418  0.2452  0.1687
 7511W        W23695  17.845  12.267   3.529 -0.0407  0.2336  0.2571
 7512W        W23696   9.464   7.219   4.381  0.0283  0.2456 -0.2968
 7513W        W23697   7.874   6.063  15.485  0.0014 -0.1604  0.1391
 7514W        W23698   0.642   6.535   0.617  0.3231 -0.0184 -0.1745
 7515W        W23699  11.281   4.609   0.772 -0.1534 -0.0126 -0.0572
 7516W        W23700   7.538   6.455  16.634  0.0819  0.0352 -0.0144
 7517W        W23701  11.294  14.227   3.000 -0.0432  0.1180  0.0271
 7518W        W23702   1.570  17.274   4.823 -0.0348  0.0285 -0.1235
 7519W        W23703   0.178   0.317  14.165  0.0925  0.1596 -0.0027
 7520W        W23704   5.699  17.913  16.596 -0.1982  0.0338 -0.3829
 7521W        W23705   5.065  17.398   1.955 -0.3091 -0.1209 -0.2796
 7522W        W23706  15.205   9.664  12.561 -0.0646 -0.1808 -0.0735
 7523W        W23707   9.954   2.157  15.963  0.1568 -0.1428 -0.2960
 7524W        W23708   3.845   9.630   2.434 -0.3391  0.1215 -0.2990
 7525W        W23709  12.452  14.141   0.148  0.0405  0.0466 -0.2100
 7526W        W23710   0.415  13.556  13.237  0.0125 -0.1145 -0.3248
 7527W        W23711  15.364   0.306  14.509 -0.0454  0.2035  0.0334
 7528W        W23712   0.085   8.505  15.023  0.2674 -0.1624 -0.2347
 7529W        W23713  11.699  11.926   4.046  0.2341 -0.2443  0.1380
 7530W        W23714   9.148  13.365  12.761  0.0276 -0.0835  0.1227
 7531W        W23715  16.075  14.135  15.854  0.0063 -0.0154  0.1969
 7532W        W23716  15.246   1.587   1.632  0.0674 -0.2711 -0.0752
 7533W        W23717   6.986   9.569   0.024  0.0822  0.2459  0.2291
 7534W        W23718  16.167   3.851  12.104 -0.1932 -0.3186  0.0363
 7535W        W23719   5.310  17.354  14.830 -0.2345  0.2370 -0.0097
 7536W        W23720   5.690   5.722   4.744 -0.0789 -0.4144 -0.1590
 7537W        W23721   4.819  14.247  12.610  0.1182 -0.2269 -0.2315
 7538W        W23722   6.592  13.684  15.788 -0.2201  0.0151  0.1193
 7539W        W23723   6.579  11.736   5.604 -0.1277 -0.0684 -0.1436
 7540W        W23724  15.668  11.942  14.301 -0.1681 -0.1018  0.0113
 7541W        W23725   8.472  12.378  16.398 -0.0918  0.1958  0.3994
 7542W        W23726  17.708  14.904  11.097  0.5530  0.0979  0.2297
 7543W        W23727   8.526  15.009   2.667  0.2864 -0.0905 -0.0903
 7544W        W23728   0.953  12.018  14.835 -0.0185  0.2187 -0.0116
 7545W        W23729   3.842   2.720   1.159  0.1388  0.0288  0.0359
 7546W        W23730   8.553   5.478  15.484 -0.2722 -0.2879  0.0581
 7547W        W23731   6.631  15.224  16.587 -0.1483  0.1191 -0.2100
 7548W        W23732  17.809   9.233   3.039 -0.0795 -0.1012  0.0608
 7549W        W23733  16.324   1.225  15.268  0.1080  0.2387 -0.1684
 7550W        W23734   6.774  10.164   4.180  0.0977 -0.1424  0.0330
 7551W        W23735  13.859  17.331   2.977  0.0784 -0.0585  0.1088
 7552W        W23736   3.541   4.750  12.205 -0.0787  0.0167 -0.1208
 7553W        W23737  10.939   0.661  14.413 -0.0555 -0.0052  0.2005
 7554W        W23738  12.493  13.073  11.504 -0.3617  0.0458 -0.0997
 7555W        W23739   8.281  13.306   0.727 -0.0536  0.1262  0.0856
 7556W        W23740   8.053   9.816   6.006  0.1117  0.2137 -0.2503
 7557W        W23741  17.255  17.487  10.049 -0.1631  0.0698 -0.0511
 7558W        W23742   9.075  13.542   1.087  0.2551 -0.1093 -0.1724
 7559W        W23743  17.494   6.226   3.359  0.2001 -0.1097 -0.0328
 7560W        W23744  10.873  15.269   0.569  0.0427 -0.2112 -0.1176
 7561W        W23745  15.510  14.515   5.415  0.3101 -0.2098 -0.1653
 7562W        W23746  17.721  15.080  16.682 -0.0088 -0.3822 -0.1503
 7563W        W23747  11.936   5.481   2.363 -0.0547  0.3439  0.0698
 7564W        W23748   5.197   4.611  16.154 -0.0004  0.0514 -0.0668
 7565W        W23749  11.108  16.736  15.928  0.1092 -0.1397  0.0096
 7566W        W23750  17.304  11.838   2.892 -0.1551 -0.0509 -0.2421
 7567W        W23751  15.946   2.237   5.732  0.2682  0.1444 -0.2628
 7568W        W23752  10.131   9.806  15.624 -0.0066  0.1327 -0.1326
 7569W        W23753   6.999  12.959  11.668 -0.2071 -0.0979  0.2913
 7570W        W23754   3.590  10.495  12.784  0.0237 -0.1119  0.0882
 7571W        W23755  14.616   1.898   2.203 -0.0436 -0.2529  0.3573
 7572W        W23756   4.578   7.115   3.865  0.0045  0.1194  0.0173
 7573W        W23757   4.077  15.517  12.641 -0.0276 -0.1267 -0.1975
 7574W        W23758  15.780  10.525  14.714 -0.4065  0.0252 -0.0515
 7575W        W23759   4.666   2.837  13.796 -0.1511 -0.0183  0.2410
 7576W        W23760   5.429  14.115  12.799 -0.1216 -0.1308 -0.0073
 7577W        W23761  15.444  16.630   2.214 -0.1405 -0.2021 -0.0245
 7578W        W23762  15.987  15.457  11.473  0.1768  0.1116 -0.2721
 7579W        W23763  17.236   4.107   2.570  0.0341  0.2010 -0.1033
 7580W        W23764  17.810   1.431   2.126  0.1013  0.0516  0.0453
 7581W        W23765   1.671  10.013  13.942 -0.1521  0.1270 -0.2258
 7582W        W23766  11.396   9.653   2.788  0.2277 -0.0704 -0.1838
 7583W        W23767  10.141   6.098  15.842  0.1824 -0.1188  0.2323
 7584W        W23768  12.409   0.399  12.604 -0.0113  0.2322 -0.0177
 7585W        W23769   9.766   9.815  10.743 -0.2217  0.0373 -0.0310
 7586W        W23770  10.481  11.197  11.456 -0.1744 -0.1595  0.0588
 7587W        W23771  10.590  10.759  15.320  0.2054 -0.0652  0.1063
 7588W        W23772  13.037  16.018  12.458 -0.0051  0.3570  0.0152
 7589W        W23773   0.330   4.710  14.644 -0.0630 -0.0583 -0.0229
 7590W        W23774   5.842   7.007   5.619 -0.0737 -0.1364  0.0546
 7591W        W23775  17.576   2.828   0.377  0.2070  0.1896 -0.1936
 7592W        W23776  15.811   4.016   1.887 -0.0418  0.1998  0.2438
 7593W        W23777  14.112   2.444  11.751 -0.1052  0.1806 -0.0347
 7594W        W23778   2.240   9.447  13.323 -0.2546 -0.1212  0.0248
 7595W        W23779   0.417  17.040  14.007 -0.2476 -0.0680  0.1006
 7596W        W23780  10.037   8.562  14.022  0.0243  0.0564  0.3268
 7597W        W23781  13.256   7.729   2.911 -0.0910 -0.3834 -0.3800
 7598W        W23782  17.702   1.648  11.900 -0.2090 -0.1817 -0.1754
 7599W        W23783   8.886   0.240  15.750 -0.4796  0.0206 -0.2012
 7600W        W23784  15.124   8.943  15.336 -0.1360  0.2521  0.2797
 7601W        W23785   9.780  14.544  14.644  0.0569 -0.1784  0.1326
 7602W        W23786   0.667  16.169  11.712  0.0315  0.2385 -0.3634
 7603W        W23787  15.455   0.542   2.235  0.2299  0.1592 -0.2802
 7604W        W23788   1.287  11.942  15.225 -0.1208 -0.1047 -0.0302
 7605W        W23789   0.132  14.357  16.314  0.1430 -0.2448 -0.3397
 7606W        W23790   3.772   6.120   5.716 -0.2979 -0.3631 -0.1803
 7607W        W23791  14.044   4.222   4.587  0.5504  0.2254 -0.2237
 7608W        W23792   2.707   4.347  13.983  0.1320 -0.2106 -0.1699
 7609W        W23793   6.804   0.007  11.771 -0.0460 -0.3124  0.1322
 7610W        W23794   8.683   5.336   3.992  0.0451  0.1256 -0.0377
 7611W        W23795  11.348   9.934   4.005  0.0986  0.2270 -0.3279
 7612W        W23796  16.499  14.672   0.428  0.2592 -0.0735 -0.0822
 7613W        W23797  15.185  17.283  11.524 -0.0748 -0.0900  0.0819
 7614W        W23798   8.735  11.117  11.903 -0.2905  0.1269 -0.1330
 7615W        W23799   6.790  10.612  14.210 -0.0932 -0.0040 -0.1860
 7616W        W23800  14.909   5.524   4.223 -0.2665  0.0225  0.2964
 7617W        W23801  14.396  17.565  13.255 -0.0455 -0.0306 -0.1559
 7618W        W23802   2.132  14.011  10.891 -0.0295  0.0361  0.0094
 7619W        W23803   0.717  10.422  16.341 -0.1484  0.2013  0.0285
 7620W        W23804  16.984   7.456  16.481 -0.0032  0.0690  0.1444
 7621W        W23805  16.282  15.506   6.059 -0.1895  0.0530  0.0075
 7622W        W23806  15.374   9.337   0.909  0.2534  0.1095  0.0336
 7623W        W23807  16.888   9.440  13.298  0.0139 -0.0857 -0.3136
 7624W        W23808   3.076  11.453  13.233 -0.1884 -0.0365 -0.0622
 7625W        W23809   5.094   3.646   5.416  0.0814 -0.0867  0.1603
 7626W        W23810  14.069  12.552  13.771 -0.1784 -0.0962 -0.0053
 7627W        W23811   7.749   4.553  16.312 -0.0177  0.2161  0.1882
 7628W        W23812  11.441   3.453  15.781  0.0593  0.0243 -0.0579
 7629W        W23813   9.687  10.338   0.654 -0.1277  0.0500  0.1459
 7630W        W23814   0.437   9.086  13.912  0.1350 -0.2187 -0.0275
 7631W        W23815  13.485   5.494   3.246  0.0397 -0.2238 -0.1481
 7632W        W23816   0.389  15.045   0.436 -0.2071  0.0316 -0.0112
 7633W        W23817  11.911  10.474  15.847 -0.1850  0.0676 -0.3721
 7634W        W23818  11.568   1.411  15.982  0.1137 -0.2035 -0.0896
 7635W        W23819  12.387  13.873  16.421  0.0796 -0.0960 -0.0120
 7636W        W23820  15.500  14.552   3.383 -0.0189  0.0114  0.0241
 7637W        W23821   5.011   4.109   5.733  0.0987  0.0062  0.2054
 7638W        W23822   1.101   7.213   2.335  0.0463 -0.1970  0.0131
 7639W        W23823  13.621   0.300   0.255 -0.2344  0.1870  0.3044
 7640W        W23824   3.747   2.440   0.524 -0.1609 -0.0511  0.1314
 7641W        W23825   0.714   2.295   0.782  0.1826  0.0057 -0.3775
 7642W        W23826  10.645   7.075   0.026 -0.0954  0.2435 -0.0342
 7643W        W23827   6.068   6.304   5.484  0.1224 -0.1017 -0.0136
 7644W        W23828  13.966   2.835  13.681  0.0310 -0.0193  0.0626
 7645W        W23829  16.379  14.664   3.648  0.0436 -0.3118 -0.2394
 7646W        W23830  13.805   7.060  16.277 -0.0994  0.1220 -0.2367
 7647W        W23831  12.222  12.724   1.631 -0.5035 -0.1099 -0.1690
 7648W        W23832  11.253   5.691   0.333  0.4911 -0.1013  0.1218
 7649W        W23833  14.104   9.382   2.877 -0.0845 -0.1487  0.0276
 7650W        W23834  16.104   7.573   0.169  0.0454  0.1925  0.0961
 7651W        W23835   7.272   7.036  14.895 -0.0211  0.0373  0.1143
 7652W        W23836  17.176  11.391  12.222  0.0692 -0.2077  0.0286
 7653W        W23837  16.369   1.948  13.569 -0.0704  0.0444  0.0154
 7654W        W23838  10.560  10.040  15.731  0.0700 -0.1500  0.0627
 7655W        W23839   0.200  18.002   2.470 -0.1088  0.1610  0.1483
 7656W        W23840  11.307  16.213  13.291  0.0804  0.1205 -0.1894
 7657W        W23841   5.199  10.684  15.546 -0.1481 -0.0165 -0.2112
 7658W        W23842  14.314   1.839   5.690 -0.1610 -0.0267 -0.1424
 7659W        W23843   7.766  15.870  13.555 -0.0521  0.2387 -0.0384
 7660W        W23844  11.124   8.827   6.405  0.1033  0.2618 -0.0605
 7661W        W23845   8.368  14.589   6.096  0.1894 -0.1178 -0.0154
 7662W        W23846   1.337  14.135  14.308  0.0858  0.3921 -0.0545
 7663W        W23847   8.530  10.385  13.725 -0.2032 -0.0749 -0.1884
 7664W        W23848   0.712   2.533  15.330  0.1197 -0.1154 -0.0515
 7665W        W23849   0.949   0.851  12.668 -0.4607  0.1891  0.1598
 7666W        W23850   6.742   1.456  13.282  0.0267 -0.2933 -0.1018
 7667W        W23851   6.801   8.190  15.443  0.1197 -0.0241  0.0565
 7668W        W23852   3.536  16.419  16.311 -0.0030 -0.0994  0.2128
 7669W        W23853   4.290   4.404  13.201  0.0177  0.3859 -0.0910
 7670W        W23854   7.812   1.190   0.307 -0.0459  0.2364  0.1464
 7671W        W23855   0.959  13.477  14.398 -0.0122  0.1087  0.0290
 7672W        W23856  10.939  13.347   3.423 -0.1131 -0.0464 -0.2711
 7673W        W23857  11.093   8.538   4.535  0.1629 -0.3222  0.0948
 7674W        W23858  17.472  16.594   3.023 -0.0640 -0.3954  0.1719
 7675W        W23859   1.800   6.845  13.875 -0.3546 -0.2762  0.0455
 7676W        W23860  12.454   5.817  15.389  0.2333  0.1797 -0.1099
 7677W        W23861   2.207  12.703  13.265  0.0477  0.0312  0.0171
 7678W        W23862   0.113  11.020   3.465  0.0532  0.0433 -0.0003
 7679W        W23863  11.564  15.245  14.029 -0.0423 -0.0423  0.0561
 7680W        W23864  16.857  16.504   1.176  0.0382 -0.0344 -0.1105
 7681W        W23865  17.545  15.209   4.952  0.1354 -0.2583  0.0361
 7682W        W23866  15.719  12.206  12.749 -0.1069 -0.1465 -0.1669
 7683W        W23867   7.966   3.783   4.527 -0.1770 -0.0302  0.1616
 7684W        W23868   3.189  15.357  13.543  0.2082 -0.0262 -0.1530
 7685W        W23869  12.627   2.057  16.419 -0.1372 -0.2491  0.0806
 7686W        W23870   0.776  12.677  13.576  0.1663 -0.0698  0.1206
 7687W        W23871  16.132   4.340   2.022  0.1476 -0.0139  0.2060
 7688W        W23872  14.410  16.494  16.545 -0.0622  0.1839 -0.1702
 7689W        W23873   6.216   8.730   4.084 -0.1117 -0.3790 -0.0158
 7690W        W23874  10.784   3.757   2.471  0.1644 -0.3050  0.2789
 7691W        W23875   2.772  14.926   5.192  0.4301 -0.1691 -0.1312
 7692W        W23876  11.569   9.926  13.822  0.0848  0.1666  0.3281
 7693W        W23877   2.447   4.676  15.382 -0.1890 -0.0217 -0.0769
 7694W        W23878   7.356   6.195   4.414 -0.4079  0.4447 -0.1583
 7695W        W23879  10.921   6.477   4.680 -0.3074  0.0058 -0.2523
 7696W        W23880   3.137   0.418   2.357 -0.1817  0.2437 -0.1248
 7697W        W23881   8.818  15.375  16.547  0.1479  0.0327 -0.1740
 7698W        W23882   6.931   7.848   0.496  0.0679  0.0195 -0.2898
 7699W        W23883  17.765  14.385  15.905  0.0931  0.1819 -0.1622
 7700W        W23884   5.720  13.186  15.761 -0.2088  0.1992  0.2127
 7701W        W23885  11.119   6.448   2.700  0.0103 -0.0133 -0.2671
 7702W        W23886  15.701   3.314  15.805  0.2295  0.0579  0.0633
 7703W        W23887  11.959   4.371  12.349 -0.1232  0.0418 -0.1014
 7704W        W23888   6.264   0.724  14.938  0.1635 -0.0276  0.1613
 7705W        W23889   0.572   3.492  12.315 -0.0242  0.0841 -0.3501
 7706W        W23890  13.479   1.330  12.383  0.0878  0.2109 -0.0468
 7707W        W23891  15.715   8.269   3.407  0.1608  0.0224 -0.2223
 7708W        W23892   3.628   6.414   4.977 -0.1091 -0.0376  0.0187
 7709W        W23893   5.238   4.417   2.077 -0.0817 -0.2237 -0.1449
 7710W        W23894   3.484  16.612  14.522  0.2556 -0.0352 -0.0168
 7711W        W23895  17.166   4.208   5.216 -0.1858 -0.2119  0.1263
 7712W        W23896  12.061  14.922  11.929  0.0816  0.1434 -0.0485
 7713W        W23897  14.382  13.436   6.038  0.0327 -0.0011 -0.0402
 7714W        W23898  17.870  16.614   2.601  0.0964  0.0851  0.3367
 7715W        W23899  16.965   5.656  14.251  0.2338  0.1333 -0.1521
 7716W        W23900  15.501  11.596   3.191 -0.1688 -0.0703  0.2208
 7717W        W23901   5.658  10.752  15.349 -0.0192 -0.0797  0.1840
 7718W        W23902   0.590   7.679   6.032 -0.0624  0.1470  0.1199
 7719W        W23903  11.977   5.745  11.798 -0.1749 -0.0501 -0.0574
 7720W        W23904   8.587   9.814   3.893 -0.2418  0.1159 -0.0251
 7721W        W23905   0.040   3.213  15.658 -0.3366  0.2142  0.3237
 7722W        W23906  17.704   5.709  15.171 -0.0064 -0.4220 -0.0226
 7723W        W23907  12.629   3.390  12.888 -0.1627  0.2050 -0.0449
 7724W        W23908   9.208  12.511  15.815 -0.2978 -0.0678  0.0765
 7725W        W23909   7.253   2.346   3.240  0.0470 -0.0179  0.2664
 7726W        W23910  16.680  14.281   5.286  0.1647  0.3916  0.1859
 7727W        W23911   1.762   7.524  15.415  0.0395  0.1976  0.1502
 7728W        W23912  14.131  14.514   6.505 -0.1480 -0.1016 -0.0347
 7729W        W23913  13.353   6.446  14.329  0.1039  0.0877 -0.0994
 7730W        W23914  10.671  11.552  16.634  0.3422 -0.1375 -0.1667
 7731W        W23915  17.259   1.547   3.381 -0.0512 -0.1770  0.1460
 7732W        W23916   3.187   6.116   1.701 -0.3950  0.0671  0.0113
 7733W        W23917  12.393  12.860   0.873  0.0182 -0.1656  0.1123
 7734W        W23918  13.476   7.287   3.359  0.0802  0.2129  0.0258
 7735W        W23919  14.908   1.096  12.554 -0.1361 -0.0332 -0.1444
 7736W        W23920  13.202   6.178   1.985  0.1312  0.0482  0.0620
 7737W        W23921  10.410   0.152   1.076 -0.0224 -0.0075  0.1858
 7738W        W23922  13.878   1.027  14.634 -0.0179 -0.1876 -0.3168
 7739W        W23923   0.053  10.642   1.569 -0.1299 -0.1571 -0.0640
 7740W        W23924   3.218  17.994  16.093 -0.1809  0.3245 -0.0504
 7741W        W23925  15.027  15.907   2.652 -0.1009 -0.1163 -0.0026
 7742W        W23926  15.108  12.109  13.583 -0.0773  0.2464  0.0914
 7743W        W23927   8.366  13.906  14.359  0.0791  0.3127 -0.0405
 7744W        W23928  14.490   6.862  12.413  0.1726 -0.1897 -0.3221
 7745W        W23929  12.293   7.575  11.954 -0.2249  0.1328  0.0564
 7746W        W23930   3.297  10.924  11.307  0.0864 -0.1097 -0.0490
 7747W        W23931  12.996   4.035   1.172  0.1221 -0.0528  0.2668
 7748W        W23932  16.708   6.159  12.436  0.1041  0.2885 -0.2119
 7749W        W23933   8.084  13.585  15.518 -0.2247 -0.0250 -0.5031
 7750W        W23934   4.802   0.791   2.703 -0.0208  0.2652  0.1681
 7751W        W23935  17.499  10.488  15.720  0.1332  0.0088  0.0661
 7752W        W23936  16.800  17.327  10.183  0.0328  0.0997  0.1944
 7753W        W23937   3.806   0.494   0.437 -0.2074 -0.4257  0.2306
 7754W        W23938   6.718   5.648   5.069 -0.0251 -0.1751 -0.1057
 7755W        W23939  12.585  12.877   2.038  0.1690  0.0966 -0.3297
 7756W        W23940  12.204  10.595   5.090  0.1087  0.3362  0.0198
 7757W        W23941   1.246   3.084   1.743  0.0721 -0.1007 -0.1280
 7758W        W23942   1.853  10.869   1.813  0.5003  0.4068 -0.1673
 7759W        W23943   1.661  16.138  16.098  0.0712  0.1398 -0.3744
 7760W        W23944  16.109   5.116   0.333 -0.0877  0.1740  0.2481
 7761W        W23945  17.214  15.374  11.722  0.0687 -0.1961  0.0310
 7762W        W23946   7.469  17.226  12.783  0.1739  0.1221  0.0587
 7763W        W23947   6.763   3.100  12.636 -0.1907 -0.1681  0.0869
 7764W        W23948  10.035   4.384  14.933 -0.1198 -0.3005  0.0618
 7765W        W23949  10.404   8.223   2.787  0.1420  0.1159 -0.2349
 7766W        W23950  15.023   0.363   4.878 -0.2954  0.2021 -0.1873
 7767W        W23951  14.364  12.545  12.827  0.2350  0.0458  0.0673
 7768W        W23952   8.780  13.834  12.476 -0.0421  0.2349  0.0706
 7769W        W23953   5.952   2.368   1.819 -0.1368 -0.3922 -0.0249
 7770W        W23954   1.466   3.903   3.978 -0.0283  0.0566  0.2283
 7771W        W23955  15.129  12.384   5.179  0.2699  0.0086  0.0280
 7772W        W23956   8.412  11.546  14.749  0.1481  0.0080  0.2712
 7773W        W23957   9.387   7.275   5.950 -0.1748  0.1091  0.1608
 7774W        W23958  13.576  10.725  15.059  0.3251  0.0633  0.1919
 7775W        W23959  12.142  12.565  15.909  0.0930 -0.1523  0.0594
 7776W        W23960  12.874  14.093  14.244 -0.1580  0.0039  0.0928
 7777W        W23961  15.843  10.302   0.098 -0.0037  0.2433  0.0666
 7778W        W23962  10.110  13.644   1.885  0.0324  0.0779  0.0383
 7779W        W23963  13.017   0.112   0.249  0.0295  0.1932  0.2185
 7780W        W23964   3.425  10.135   4.058  0.2102 -0.3492 -0.1475
 7781W        W23965   3.523   4.931   0.935  0.1133  0.1264 -0.0186
 7782W        W23966   0.358  16.996  16.602  0.4803 -0.3985 -0.4465
 7783W        W23967   1.086   6.224  13.226  0.3115  0.0208 -0.2504
 7784W        W23968  10.589  12.445  11.801 -0.0284 -0.1955  0.3576
 7785W        W23969   0.912   4.636   4.383  0.1464 -0.0451 -0.0088
 7786W        W23970   3.285   8.324  12.546  0.3332  0.1503  0.0986
 7787W        W23971   2.448   7.351   4.743 -0.1834 -0.0284 -0.2543
 7788W        W23972  17.941  12.738   3.104  0.0231  0.0661  0.2030
 7789W        W23973   4.667   3.906   5.486 -0.0409  0.0503 -0.0782
 7790W        W23974   0.143   3.955  11.771  0.1654 -0.0596  0.0351
 7791W        W23975  15.154   9.428   1.412 -0.1717  0.0731 -0.2263
 7792W        W23976  13.966   1.133  12.425  0.2446 -0.0165  0.2849
 7793W        W23977  17.822   6.686  15.097 -0.2537 -0.1181  0.1072
 7794W        W23978  12.275   1.112   0.301  0.0431 -0.0939 -0.1349
 7795W        W23979  13.766  17.637  12.583  0.2139 -0.1225  0.0209
 7796W        W23980  10.521  12.033   0.218 -0.1233 -0.1813 -0.0573
 7797W        W23981  11.148   6.939   4.805  0.0511 -0.2114  0.0069
 7798W        W23982  12.126   4.574   4.030  0.0628 -0.0032 -0.1537
 7799W        W23983   0.784   7.246  10.431  0.4029  0.2034  0.1012
 7800W        W23984  10.288   5.584   5.991 -0.1763 -0.2621  0.2196
 7801W        W23985   6.588  10.669   1.097  0.2023  0.0362 -0.0389
 7802W        W23986  14.881   1.269   5.212  0.0479 -0.1834 -0.0883
 7803W        W23987   9.017  13.752   2.346  0.1217  0.2842 -0.0052
 7804W        W23988   6.147   6.189  14.545  0.2951 -0.0283  0.0047
 7805W        W23989  10.255   9.804  16.524 -0.0268  0.0708  0.1969
 7806W        W23990   0.426   0.752   3.775 -0.1473 -0.1924  0.2563
 7807W        W23991   8.233  14.882  14.833  0.2854 -0.3435  0.0142
 7808W        W23992  10.193   8.406  16.553 -0.0301  0.1976 -0.0470
 7809W        W23993  13.569   5.106  11.445 -0.2407 -0.2330 -0.0881
 7810W        W23994   5.991  14.774  12.564  0.2850 -0.3079 -0.2551
 7811W        W23995   8.483  16.457   2.942  0.1467 -0.0386  0.0257
 7812W        W23996   2.257   7.175   3.689  0.0650  0.1399 -0.1739
 7813W        W23997  12.554   1.986  14.155 -0.0519  0.0584 -0.0857
 7814W        W23998   1.196  15.668  13.769  0.0340  0.0859 -0.2381
 7815W        W23999  11.498   1.293  13.762  0.0323 -0.0413 -0.0412
 7816W        W24000  16.199  15.867  16.154 -0.2698  0.1458  0.0940
 7817W        W24001  13.438  16.606   4.453  0.0498 -0.2914 -0.1867
 7818W        W24002   8.614   4.345   0.958  0.0506  0.1867  0.1325
 7819W        W24003  15.850   1.855  13.614  0.2725 -0.0861 -0.3092
 7820W        W24004   3.108  14.105  11.244  0.2785 -0.2257 -0.0766
 7821W        W24005   3.334   2.529  12.637 -0.1605  0.1679 -0.0383
 7822W        W24006   4.146  10.229  14.957 -0.1686  0.0030 -0.0004
 7823W        W24007   0.409   1.032  13.539  0.1628 -0.0195  0.1841
 7824W        W24008  12.600   5.771   3.047 -0.1488 -0.2182  0.0126
 7825W        W24009   7.822  11.872   0.106  0.0058  0.0396 -0.1793
 7826W        W24010   8.913   0.739  11.916  0.0590 -0.0231 -0.1603
 7827W        W24011   9.699  12.485   3.772  0.3088  0.0218 -0.3659
 7828W        W24012   4.552  12.499  13.065 -0.3217 -0.0551 -0.0195
 7829W        W24013   1.697  10.283   0.883  0.1043 -0.1267 -0.5051
 7830W        W24014  11.359  11.351  12.080  0.1135  0.4008 -0.1918
 7831W        W24015   7.338   9.491   2.883  0.0753  0.0382  0.0607
 7832W        W24016   9.869   1.696   1.525 -0.0781  0.1632 -0.3877
 7833W        W24017   3.814  16.541  12.301 -0.0583  0.1260  0.1084
 7834W        W24018  16.681  10.228   3.534  0.2389  0.0925  0.0083
 7835W        W24019   5.022  15.143   1.028  0.0333  0.0219 -0.3423
 7836W        W24020   1.752  13.292  15.638 -0.1856 -0.0829 -0.0931
 7837W        W24021  13.262  11.081   4.985  0.0642  0.0888  0.1926
 7838W        W24022   9.522   0.728  11.706 -0.1819  0.3597 -0.2257
 7839W        W24023   0.339  15.801  11.321  0.0939 -0.2596  0.1904
 7840W        W24024   2.231   9.112  11.402  0.1116 -0.1306  0.0844
 7841W        W24025   0.237   5.487   5.490 -0.2201 -0.2645 -0.1741
 7842W        W24026   3.168   2.076   6.566 -0.1003 -0.0684 -0.0824
 7843W        W24027  12.321  10.295   4.140  0.2238 -0.0516  0.0431
 7844W        W24028   4.524  17.718   0.343  0.1649 -0.0134 -0.1822
 7845W        W24029   0.082  17.588  15.011 -0.0515 -0.0175 -0.1892
 7846W        W24030  12.898  17.565  12.951  0.3418  0.0587 -0.0461
 7847W        W24031   9.528  12.534   1.576 -0.0794  0.3926  0.3606
 7848W        W24032  17.343  12.767  13.393 -0.1338 -0.1115  0.1229
 7849W        W24033   2.363  17.156  11.821 -0.0574  0.1991  0.2416
 7850W        W24034   1.350   0.668  14.129  0.0968  0.1671  0.0402
 7851W        W24035  12.846  15.835  16.509  0.0124  0.2641 -0.1435
 7852W        W24036  17.128  16.793  10.995  0.1592  0.0872  0.0415
 7853W        W24037   7.084  12.861  13.819  0.0342 -0.3310 -0.4601
 7854W        W24038  15.697  16.393  11.404  0.1227  0.1156  0.1335
 7855W        W24039  12.072  12.806   2.109 -0.1134 -0.0049  0.1720
 7856W        W24040  11.806   5.865   5.768 -0.0017  0.0483  0.2047
 7857W        W24041  16.923   8.698  11.921 -0.2605 -0.0074  0.0996
 7858W        W24042   1.496  16.265  12.092 -0.1702 -0.0947  0.0400
 7859W        W24043  13.358   1.175   1.994 -0.1013 -0.0167  0.4703
 7860W        W24044   1.887   1.453   1.623 -0.4124 -0.1454  0.2975
 7861W        W24045  10.410  17.352   0.077 -0.0867 -0.1264 -0.3261
 7862W        W24046   3.102  16.527  13.947 -0.2527 -0.0575 -0.0825
 7863W        W24047   7.707   6.880   5.167 -0.1456 -0.0177 -0.1525
 7864W        W24048   2.801   3.104   4.078  0.1811  0.1091  0.2913
 7865W        W24049   7.145   0.948   5.835  0.1026 -0.0662 -0.0729
 7866W        W24050   4.204  10.513   1.853  0.3669 -0.0803  0.1855
 7867W        W24051   0.572   8.218   5.872  0.2558  0.1263 -0.0919
 7868W        W24052   9.183  17.505  15.151 -0.0182  0.0848  0.0718
 7869W        W24053   6.331  10.922  14.265 -0.1947  0.3286  0.1834
 7870W        W24054   2.510   4.981   1.717 -0.1429 -0.0704  0.0028
 7871W        W24055   7.218   2.199  14.121 -0.2388  0.1684  0.1325
 7872W        W24056   7.749   9.962   3.085 -0.1638  0.1725 -0.0572
 7873W        W24057  13.717   3.410  14.576  0.1827  0.4718  0.3915
 7874W        W24058   9.757  15.463   1.732  0.0703  0.0383  0.0272
 7875W        W24059  10.814   7.267  15.394  0.1901 -0.0576 -0.1284
 7876W        W24060  17.742   3.396   3.283 -0.1412 -0.0759  0.0913
 7877W        W24061   6.158   4.082   3.059  0.3879  0.3887 -0.2608
 7878W        W24062   4.914  17.785   2.790  0.1628 -0.0385  0.0054
 7879W        W24063   7.176  10.449  13.286 -0.0593 -0.1598 -0.0754
 7880W        W24064  17.617  11.586  12.239 -0.0191  0.0645  0.0525
 7881W        W24065   6.108  15.647  15.421  0.0823 -0.1641  0.0844
 7882W        W24066  10.987   0.851   2.713  0.2120  0.3952  0.2887
 7883W        W24067   9.006  10.139   3.055  0.3167 -0.1279 -0.0672
 7884W        W24068   6.442  17.606   0.983 -0.1181  0.0038  0.0444
 7885W        W24069   4.592  13.047   5.088  0.0876  0.2690 -0.2030
 7886W        W24070  13.446   0.086  15.431 -0.0528 -0.0922  0.0673
 7887W        W24071   0.569   6.466  14.620 -0.1622  0.1206  0.2923
 7888W        W24072   7.884  17.929   3.406 -0.0971 -0.3557 -0.1626
 7889W        W24073   2.703  14.462   5.071  0.0683  0.0050  0.1792
 7890W        W24074  10.295   7.927   4.528 -0.2242 -0.0436  0.2549
 7891W        W24075   5.822  13.216  13.465  0.0470  0.3413 -0.1662
 7892W        W24076  16.187   5.248  13.266  0.0330  0.0283 -0.0109
 7893W        W24077  17.156   9.660   6.171  0.1165  0.0220  0.1841
 7894W        W24078   7.158  17.746   1.295  0.3594  0.0638  0.1970
 7895W        W24079   7.828   7.521   5.545  0.3926  0.4251  0.0769
 7896W        W24080  12.090   6.916  14.654  0.0572  0.3798 -0.1487
 7897W        W24081  10.928   5.000   4.756  0.0028 -0.1527 -0.1102
 7898W        W24082   3.604   1.387   1.634  0.0463 -0.0616 -0.0932
 7899W        W24083  15.516  10.057  16.515 -0.0643 -0.1772 -0.3463
 7900W        W24084   8.475   2.099   1.573  0.2609 -0.0078 -0.3641
 7901W        W24085   5.195  14.457   4.815 -0.0265 -0.1573 -0.2317
 7902W        W24086   8.007  12.626  16.350  0.1460 -0.0873  0.0555
 7903W        W24087  10.133   6.463   2.637 -0.0346 -0.1644 -0.1631
 7904W        W24088  14.758   2.970  16.163 -0.0366 -0.1594  0.1459
 7905W        W24089  11.466   6.952  16.509  0.0553 -0.2025 -0.0486
 7906W        W24090   3.180   2.497   5.749 -0.0437 -0.1777 -0.1466
 7907W        W24091   0.595  10.797   0.283 -0.0907  0.0691  0.2497
 7908W        W24092  13.013  15.012  12.412  0.1017  0.0441 -0.1029
 7909W        W24093  14.605   8.686  12.981 -0.3750 -0.0003  0.1379
 7910W        W24094  15.583  13.164   5.799  0.0028  0.0315  0.1700
 7911W        W24095  14.927   7.065   3.193  0.3200  0.3360 -0.1501
 7912W        W24096  14.340  12.099   1.972 -0.3462  0.0589 -0.1454
 7913W        W24097   9.907   6.195   5.529 -0.1828 -0.3072  0.1536
 7914W        W24098   7.480  10.089   0.853 -0.0812  0.0660  0.3213
 7915W        W24099  15.313  17.478  16.576  0.2242  0.2389 -0.4244
 7916W        W24100  11.973   4.893  13.686 -0.1682  0.0252 -0.1022
 7917W        W24101   4.658   4.381   2.799  0.0742 -0.0015  0.0610
 7918W        W24102   4.146  13.981   4.802  0.1158  0.1285 -0.1305
 7919W        W24103   9.409   3.707  14.598  0.1510 -0.2262  0.1087
 7920W        W24104   5.756   2.714   4.251 -0.1428 -0.2290 -0.0989
 7921W        W24105  15.001  15.769  15.749  0.2453 -0.1966  0.2456
 7922W        W24106   9.752   7.347  13.071 -0.2046 -0.0530  0.1305
 7923W        W24107   9.503  11.261  11.714  0.1058 -0.1456  0.0360
 7924W        W24108   5.360  14.852   1.291 -0.2972 -0.3377  0.0874
 7925W        W24109   1.514   7.110  13.085 -0.2777  0.0453  0.0871
 7926W        W24110  11.709   8.914   2.415  0.2440 -0.2430 -0.0499
 7927W        W24111  15.344   5.944  16.130  0.3964 -0.2317  0.2252
 7928W        W24112  15.689  15.690   1.162  0.2045 -0.1455  0.0172
 7929W        W24113   4.281  11.326   5.339  0.0044 -0.3648 -0.2059
 7930W        W24114   5.886   3.546   1.774 -0.0373  0.1903  0.2891
 7931W        W24115   5.979  17.833  14.330  0.0191  0.0331  0.0464
 7932W        W24116   1.445  11.068   1.041 -0.1906 -0.3052  0.2195
 7933W        W24117   1.571   8.666   0.277  0.0749  0.3103  0.0981
 7934W        W24118  10.257  15.180   0.758 -0.1571 -0.2069 -0.2331
 7935W        W24119  15.663  13.681  11.573 -0.4054  0.2740  0.1090
 7936W        W24120  15.428  17.802  16.194  0.2787  0.1961 -0.0670
 7937W        W24121   1.324  16.463  15.711 -0.3602 -0.0076  0.2037
 7938W        W24122   9.885  14.450  15.270 -0.2109 -0.2975 -0.0118
 7939W        W24123   6.380   9.752  13.100 -0.1390 -0.1826 -0.0177
 7940W        W24124  13.142   4.388   0.305 -0.2342  0.1451  0.1875
 7941W        W24125   2.285  14.892  16.464  0.3148  0.0536  0.0713
 7942W        W24126  15.577   4.832   1.879 -0.1035  0.2049  0.1423
 7943W        W24127   2.220  10.969  12.663  0.1226  0.1017  0.1162
 7944W        W24128  16.831   3.276  11.750  0.0055  0.0053 -0.0625
 7945W        W24129   9.378  12.492  16.394 -0.0933 -0.2850 -0.0046
 7946W        W24130  13.224  16.973   3.525 -0.3245 -0.1866  0.2129
 7947W        W24131  10.899   1.956   5.683 -0.3091 -0.5004 -0.1205
 7948W        W24132  11.341   0.961   2.255  0.0022 -0.0480 -0.0950
 7949W        W24133   2.718  11.461   0.223 -0.0285  0.0969  0.0334
 7950W        W24134  10.583  12.235  14.370  0.0501 -0.0178  0.2983
 7951W        W24135  15.273   1.415  15.399 -0.2101  0.1798  0.5895
 7952W        W24136   1.564   8.002  12.513  0.0422  0.0361  0.1376
 7953W        W24137  17.321  17.054   3.771 -0.0070 -0.4530 -0.2332
 7954W        W24138   4.362   5.391   6.602  0.2770  0.1568 -0.3962
 7955W        W24139  17.544   2.297   3.595 -0.0494  0.1444 -0.1838
 7956W        W24140   3.320  14.518  13.407  0.0661 -0.1040 -0.0605
 7957W        W24141  10.453   3.522   6.071  0.0642 -0.4513 -0.0049
 7958W        W24142   0.104   3.646  12.394  0.0679 -0.3161 -0.0445
 7959W        W24143   0.697  15.380  10.893 -0.1737  0.1368 -0.0402
 7960W        W24144  16.089   0.127  13.769  0.0617 -0.3802  0.0218
 7961W        W24145  13.878   0.540  11.258 -0.0628 -0.1037  0.0109
 7962W        W24146   7.458   9.071   1.901 -0.1724  0.0541  0.1174
 7963W        W24147   3.396  12.256   0.077  0.2397  0.3678  0.0329
 7964W        W24148   5.520   3.316   1.378 -0.0707  0.1411  0.1721
 7965W        W24149   5.507   5.535   2.714 -0.2520  0.0920  0.0572
 7966W        W24150   9.647   7.142   0.176 -0.0323 -0.1563 -0.4508
 7967W        W24151  10.179  16.577   1.807 -0.1042  0.1745 -0.2962
 7968W        W24152   2.757   4.831   2.555 -0.0165 -0.2334 -0.1823
 7969W        W24153   5.110   8.709  13.389 -0.0343  0.0121 -0.1231
 7970W        W24154   4.203  17.855  14.032 -0.1006 -0.0305 -0.3960
 7971W        W24155   4.820  13.724   2.873 -0.1131 -0.0335  0.1616
 7972W        W24156  16.181  14.174   4.556  0.0377  0.0239 -0.0829
 7973W        W24157  12.056  10.546   1.054 -0.1186 -0.0213 -0.1638
 7974W        W24158  16.754  13.444  16.096  0.2954  0.3666  0.0102
 7975W        W24159  14.586   4.843   1.835 -0.3352  0.1007  0.0612
 7976W        W24160   2.930   1.665  12.260  0.1206  0.2828 -0.1440
 7977W        W24161   2.688  13.017  14.850  0.0178  0.0416 -0.1941
 7978W        W24162   6.644   2.055   4.468 -0.1062  0.2125  0.1740
 7979W        W24163   4.259   7.625   4.990 -0.0182 -0.0125  0.1180
 7980W        W24164   0.710  10.628   3.149  0.1103  0.3086  0.0496
 7981W        W24165  10.586  17.205   0.564 -0.0171  0.1011  0.1900
 7982W        W24166  14.125  13.731   3.862 -0.1884  0.3759  0.1776
 7983W        W24167   2.254   6.741   3.409  0.0162 -0.1462  0.1649
 7984W        W24168  14.801  13.283   2.834  0.1243 -0.1047 -0.1102
 7985W        W24169   2.782   9.468  15.781 -0.1258  0.1327 -0.1652
 7986W        W24170  11.449  17.054  12.334  0.1815 -0.2200 -0.0338
 7987W        W24171   6.414  15.886  12.874 -0.4508 -0.2283 -0.0757
 7988W        W24172   1.430  10.790   1.455 -0.3390  0.0803 -0.0240
 7989W        W24173  11.868  16.481  11.901 -0.2239 -0.5827  0.0337
 7990W        W24174   5.446   4.568  14.400 -0.0804  0.1966  0.2459
 7991W        W24175   4.076   0.653   2.646 -0.5071 -0.1291  0.0991
 7992W        W24176   5.546  17.545  11.485 -0.1509  0.4031  0.1126
 7993W        W24177  13.920  12.585  14.312  0.2283 -0.2007  0.1537
 7994W        W24178   8.180   7.218  15.284  0.3991  0.1707  0.1148
 7995W        W24179  13.085   4.285  11.696  0.2785  0.4006 -0.4478
 7996W        W24180  10.732   6.004  15.232 -0.3006  0.1994 -0.0552
 7997W        W24181   1.599  10.333  13.067 -0.2894  0.0906  0.0909
 7998W        W24182   5.550   0.623   3.483  0.0587 -0.1257  0.2363
 7999W        W24183   4.433   7.611   4.485  0.1077 -0.0856  0.0609
 8000W        W24184   8.761  12.764  13.902 -0.3840 -0.1377 -0.1864
 8001W        W24185   3.717  13.536   4.163 -0.0833 -0.0162  0.1688
 8002W        W24186  14.262  17.035   3.099  0.1770  0.5712 -0.0338
 8003W        W24187  14.751  12.816  11.947  0.1105  0.0666  0.0029
 8004W        W24188   3.600   3.737  15.205  0.2089 -0.0627  0.4572
 8005W        W24189   7.640   6.415   1.130 -0.0790 -0.0168 -0.2174
 8006W        W24190  16.116  12.594   0.433 -0.0609 -0.1973 -0.2271
 8007W        W24191   5.023   8.229   5.367 -0.2342  0.6089 -0.3498
 8008W        W24192   0.614   7.899   4.668  0.3195  0.2640  0.2138
 8009W        W24193   1.947  11.895   4.218  0.1420 -0.2187 -0.0531
 8010W        W24194   5.197  11.107  13.885  0.0143 -0.1858 -0.2528
 8011W        W24195   0.246  17.266   1.285 -0.1738  0.2270  0.0082
 8012W        W24196  17.242  14.780  16.660  0.1579  0.0872  0.0194
 8013W        W24197   3.561   4.523  14.432  0.0729 -0.0721  0.0093
 8014W        W24198   4.332   8.397   0.161 -0.1480  0.0312  0.1726
 8015W        W24199  16.815   1.376   4.239 -0.1489 -0.1278 -0.0086
 8016W        W24200  17.107   2.334  15.252 -0.1187  0.1097  0.1152
 8017W        W24201   9.640   0.429  14.126  0.1656 -0.3140  0.0772
 8018W        W24202  17.740   7.761   1.029 -0.1463  0.3283 -0.0754
 8019W        W24203   7.324  16.684   2.196 -0.0462 -0.2589  0.2003
 8020W        W24204  14.141  10.628  16.621 -0.0408  0.2161  0.2974
 8021W        W24205   9.316  13.569  16.381  0.0856 -0.2877  0.0886
 8022W        W24206   8.134  10.728  13.369  0.2576 -0.1915 -0.0170
 8023W        W24207   7.951   9.764  12.406  0.0024  0.1674 -0.1303
 8024W        W24208  17.717   5.112   6.144 -0.1228 -0.1262  0.0305
 8025W        W24209   6.528  16.243   2.956 -0.0421  0.3697 -0.2443
 8026W        W24210   8.182   0.052   5.800  0.1534 -0.1705  0.1160
 8027W        W24211   4.430  17.055   2.990  0.0067  0.0793  0.1111
 8028W        W24212   7.845   7.729  12.414  0.1003  0.2061  0.1261
 8029W        W24213   8.348  12.070   5.388 -0.0631 -0.3100  0.0745
 8030W        W24214   0.676   7.892   3.776 -0.0723  0.0809  0.2878
 8031W        W24215   0.290  15.099   2.456  0.1707  0.0557  0.0461
 8032W        W24216  16.665  11.025   3.842 -0.1376  0.0263  0.3522
 8033W        W24217  17.691   8.040   2.098 -0.1538  0.2887  0.0388
 8034W        W24218  17.603   2.638  13.852 -0.0812 -0.0130 -0.0602
 8035W        W24219  10.323  11.972   5.453 -0.1448  0.0825 -0.3898
 8036W        W24220   3.890   6.892  14.445  0.0496  0.2489 -0.0491
 8037W        W24221   5.421  14.447  16.629 -0.0948  0.2939 -0.0595
 8038W        W24222  17.592  13.223  13.505  0.3637  0.1243 -0.0983
 8039W        W24223   7.695  12.500   3.918  0.2554  0.2019 -0.3633
 8040W        W24224   8.108   6.187  13.483 -0.0877  0.0863 -0.0152
 8041W        W24225  12.953  13.023   4.517  0.1049  0.0077  0.2842
 8042W        W24226   0.431   4.646  16.312 -0.0152 -0.1600 -0.1938
 8043W        W24227  16.398   0.277   0.426  0.2075  0.0074  0.1035
 8044W        W24228  15.828  10.405   4.833  0.2376  0.0491 -0.0449
 8045W        W24229  17.410  16.302   2.566 -0.2077  0.3216  0.1235
 8046W        W24230   4.442   4.323   5.209  0.3257  0.0604 -0.2049
 8047W        W24231  14.368  15.656   4.335  0.0069  0.0249 -0.1782
 8048W        W24232  10.513   5.530   3.880 -0.0668  0.1085 -0.2329
 8049W        W24233   0.503   3.123  15.416 -0.0197  0.1103 -0.1622
 8050W        W24234   3.535   3.713   2.187  0.0967  0.1808 -0.1495
 8051W        W24235   7.555  12.608  12.275 -0.0588  0.0024  0.0922
 8052W        W24236  11.481   2.457   5.303  0.1076 -0.2602  0.0903
 8053W        W24237  11.326   4.800  15.667  0.0681  0.0450 -0.3040
 8054W        W24238   6.421  12.598   5.551  0.0905 -0.0890  0.1054
 8055W        W24239   5.482  12.114  14.606  0.2439 -0.1301 -0.0493
 8056W        W24240  11.505   5.684   2.612  0.1126 -0.0819  0.3693
 8057W        W24241  10.805  14.677  14.433  0.1699  0.1920  0.0957
 8058W        W24242  14.993   6.839  11.653 -0.2683  0.1721  0.5640
 8059W        W24243  17.656   9.122  16.498  0.0777  0.1438 -0.0373
 8060W        W24244  10.869   2.783   1.062  0.2125 -0.0980  0.0851
 8061W        W24245   2.386   6.694  12.777  0.0866 -0.1756  0.1416
 8062W        W24246   9.949  15.551   5.200 -0.3521 -0.1328 -0.3172
 8063W        W24247  13.669  12.111  15.189  0.2720 -0.3264 -0.1348
 8064W        W24248   0.245   2.170  12.470 -0.0802  0.0753 -0.1880
 8065W        W24249   0.531   2.037   2.156  0.1703  0.1044  0.0375
 8066W        W24250  16.912  15.084  16.444  0.1290 -0.2185  0.0916
 8067W        W24251   9.912   0.047   4.973  0.2440 -0.0979 -0.0758
 8068W        W24252   2.147  11.065   0.916  0.0148 -0.0195 -0.2087
 8069W        W24253  15.271   9.967  15.349 -0.1515 -0.3067  0.1129
 8070W        W24254  12.651  16.328  13.930  0.0125 -0.0944 -0.1074
 8071W        W24255  12.211   4.094   0.745  0.2439 -0.1916 -0.0268
 8072W        W24256  14.833   9.274  13.624  0.0012 -0.1955  0.0192
 8073W        W24257  10.378   2.917  12.507 -0.3666 -0.3087  0.2449
 8074W        W24258  13.793  14.985   5.312 -0.2458  0.1074  0.0865
 8075W        W24259   9.016   3.435  15.057 -0.0968 -0.1558 -0.1434
 8076W        W24260  17.423   2.261   0.647  0.1566  0.1892 -0.0417
 8077W        W24261   4.611  11.318   4.938 -0.1375  0.0161  0.1443
 8078W        W24262  13.800   6.479  13.473 -0.0016  0.0619 -0.4756
 8079W        W24263  13.557   2.540   0.408  0.2403  0.0246  0.3099
 8080W        W24264   0.388  10.152   0.962 -0.2019 -0.0192 -0.2171
 8081W        W24265   7.593  12.569  14.115 -0.0450 -0.0346 -0.0987
 8082W        W24266   3.802   8.959   1.348 -0.1925  0.1433 -0.0160
 8083W        W24267  17.169   8.517   1.431  0.2804  0.1748  0.1775
 8084W        W24268   3.552  12.332   4.543 -0.1595  0.0558 -0.0041
 8085W        W24269   4.659  14.459   3.723 -0.0302 -0.0018  0.0309
 8086W        W24270   6.399  17.902  12.514 -0.3371  0.0986  0.2469
 8087W        W24271  10.234  11.058   1.076 -0.3585 -0.3242  0.0695
 8088W        W24272  16.670   0.477   0.885 -0.0348  0.0956 -0.1700
 8089W        W24273   7.017   3.789   5.037 -0.1380 -0.3346 -0.0659
 8090W        W24274  15.112   0.513   1.138  0.1447 -0.3142  0.2508
 8091W        W24275  11.378   4.137  13.486  0.0063 -0.2554  0.0332
 8092W        W24276   5.979   0.529   4.597 -0.1108 -0.0429 -0.1262
 8093W        W24277  12.866   6.063   5.387  0.1047 -0.0972 -0.1116
 8094W        W24278  14.742   8.197   0.983  0.1772 -0.0838 -0.0959
 8095W        W24279  15.389   0.002   2.303 -0.4071  0.3049  0.0896
 8096W        W24280   2.199  14.098  12.594 -0.2894 -0.4512  0.2704
 8097W        W24281  10.340   8.598  12.164 -0.1610 -0.2583 -0.0988
 8098W        W24282   1.026  14.412   1.915  0.1083  0.0700  0.0866
 8099W        W24283   7.046   6.819  12.236 -0.2033 -0.1525  0.1596
 8100W        W24284   0.897   5.610  12.734 -0.5045 -0.0781  0.1788
 8101W        W24285   0.597   0.808  11.406  0.1550 -0.0964 -0.2229
 8102W        W24286   4.888   1.098  15.358 -0.3069 -0.3048  0.0577
 8103W        W24287  10.496  13.039   0.045  0.1264 -0.0380 -0.0341
 8104W        W24288  10.269   6.255  14.936 -0.1346  0.0145 -0.1703
 8105W        W24289  11.808   3.251  15.597  0.3660  0.0008 -0.0255
 8106W        W24290   1.954   7.961   4.311 -0.0505  0.0006  0.1206
 8107W        W24291   5.529  13.312   5.880  0.2178  0.2560  0.1374
 8108W        W24292   1.974   9.321   3.542 -0.2909  0.0386  0.0840
 8109W        W24293   2.915   5.671   4.841 -0.0738  0.3006 -0.1201
 8110W        W24294  11.666   1.088  14.230  0.3436  0.0713 -0.2884
 8111W        W24295  10.337   4.738  12.632 -0.1964 -0.1188  0.2205
 8112W        W24296   6.257   8.112  15.542 -0.1386 -0.1685  0.1223
 8113W        W24297   9.592   8.867  14.186  0.2329  0.0204  0.0987
 8114W        W24298  16.004   5.948   4.712  0.1774 -0.1131 -0.2933
 8115W        W24299   7.823  17.025  13.131 -0.1300 -0.0658  0.1136
 8116W        W24300   6.473  11.817  12.828 -0.2850  0.0867  0.3702
 8117W        W24301   8.182  16.693  13.319 -0.0615 -0.1116 -0.0725
 8118W        W24302  11.569  16.681  14.082  0.0482 -0.2599 -0.0041
 8119W        W24303  13.784  14.528  15.224 -0.0150  0.1409 -0.1106
 8120W        W24304   7.542   8.103   1.928 -0.2563 -0.1105 -0.1306
 8121W        W24305  12.948  15.505   5.521  0.0779 -0.1091  0.1592
 8122W        W24306   5.743  13.398  12.369 -0.1864 -0.2457 -0.0227
 8123W        W24307   4.947   2.699  14.528  0.1282  0.1842  0.0493
 8124W        W24308   1.512  17.718  11.374 -0.2335  0.3317 -0.1281
 8125W        W24309   2.855   1.819   3.826  0.1798  0.1375 -0.3633
 8126W        W24310   2.707   8.688  15.981 -0.3222 -0.3563  0.0697
 8127W        W24311  14.402  14.082  11.457  0.0799  0.0929  0.3376
 8128W        W24312  12.021   9.732   5.318  0.0935  0.0042 -0.1472
 8129W        W24313  11.878   6.096  12.281 -0.1637 -0.1391  0.0243
 8130W        W24314   1.079   8.767   0.177 -0.4491 -0.2005 -0.4612
 8131W        W24315   4.292  17.312   1.619  0.0473 -0.0792  0.0097
 8132W        W24316   1.141  12.466   1.488  0.1041 -0.0305  0.1628
 8133W        W24317   5.641   7.367  14.196  0.2593 -0.1081  0.2707
 8134W        W24318  10.393   0.797  14.560  0.1294  0.1416 -0.1785
 8135W        W24319  11.565  11.082  16.495  0.2277 -0.1927 -0.3101
 8136W        W24320   0.362   3.175   4.229 -0.0529 -0.1199  0.1439
 8137W        W24321   8.453  15.546  12.243  0.0685  0.0134 -0.2035
 8138W        W24322   6.193   6.323  12.214  0.0020  0.2370 -0.0269
 8139W        W24323  13.486  17.762   3.506  0.0330 -0.0619 -0.0370
 8140W        W24324   5.662   4.170   6.509 -0.1153 -0.1666 -0.1795
 8141W        W24325   9.082   5.013   4.495 -0.2191  0.1318  0.1644
 8142W        W24326  10.413  14.498   5.178  0.2784  0.0562 -0.0094
 8143W        W24327  14.977  14.681   0.519 -0.0756 -0.1276 -0.2427
 8144W        W24328   0.574   9.681  11.211 -0.1206 -0.1316  0.0593
 8145W        W24329   4.077   5.737  14.020  0.0599  0.0445  0.1829
 8146W        W24330   6.220  13.291  15.540  0.0363  0.3690 -0.0394
 8147W        W24331  16.970   6.925   5.842  0.1149 -0.1399  0.1745
 8148W        W24332   6.744   8.350   1.896  0.1500 -0.0032 -0.1633
 8149W        W24333   8.807  10.271   2.560  0.1552 -0.0300  0.1144
 8150W        W24334  16.355   2.084  11.307 -0.1841  0.0851 -0.0133
 8151W        W24335   1.995  12.972   5.418 -0.0924 -0.3123 -0.0511
 8152W        W24336   0.533   3.446   0.184  0.1726 -0.1714  0.1068
 8153W        W24337   0.630   8.671  16.619  0.0317 -0.1663  0.0801
 8154W        W24338   5.779   3.940  13.281 -0.0621 -0.0205  0.1615
 8155W        W24339  12.803   9.901   5.025 -0.2430 -0.0300  0.0222
 8156W        W24340   7.164   0.621  14.961  0.1192  0.0616  0.3379
 8157W        W24341  15.504   5.662  15.378  0.0152 -0.0723 -0.1880
 8158W        W24342  15.364   1.114  13.748  0.2332  0.1715 -0.0717
 8159W        W24343   3.883   7.559   3.653  0.2711 -0.1058  0.1730
 8160W        W24344  15.476   8.647  16.328  0.0518  0.0781  0.1343
 8161W        W24345   1.689   6.140  12.206 -0.0836  0.1581 -0.0375
 8162W        W24346   4.033   5.393  13.310  0.2009  0.1273 -0.2230
 8163W        W24347   8.889  11.824  11.879 -0.2470  0.6252  0.2748
 8164W        W24348   3.392   2.549  10.545 -0.0737 -0.0337  0.0793
 8165W        W24349   5.198  14.905   4.342 -0.2509  0.2334  0.0604
 8166W        W24350   2.265   5.927   0.184  0.0549  0.1840  0.2132
 8167W        W24351   3.420   2.215  15.311  0.0735 -0.0726 -0.0670
 8168W        W24352   9.561  14.953  16.493  0.0899 -0.3721 -0.1739
 8169W        W24353   6.278   7.295   3.363 -0.1054  0.1624  0.0578
 8170W        W24354  15.524   2.592   2.649 -0.0668 -0.2754 -0.0433
 8171W        W24355   4.251   1.258   4.501 -0.3968  0.1697 -0.2500
 8172W        W24356   6.637  15.451  15.230  0.0883 -0.0146  0.1540
 8173W        W24357  13.859  17.129   5.123  0.1151 -0.2191  0.0625
 8174W        W24358   9.715   2.967  10.783  0.2346 -0.1613 -0.1052
 8175W        W24359   8.472  17.528   3.837  0.0672  0.0789  0.1378
 8176W        W24360  11.001  14.859  14.869 -0.2165  0.0794 -0.2302
 8177W        W24361  12.045   1.641   0.276 -0.0744 -0.0142  0.2671
 8178W        W24362   4.015   6.927  11.991 -0.0826  0.1382 -0.1809
 8179W        W24363  13.280   5.558  14.779 -0.0598 -0.4164 -0.0962
 8180W        W24364   1.386  12.199   1.805  0.0740 -0.2466  0.0547
 8181W        W24365   3.178   9.587  14.353 -0.2838 -0.3081  0.0229
 8182W        W24366  12.898   1.517   3.747 -0.1014 -0.2065  0.0252
 8183W        W24367   6.817  13.700   0.804 -0.1903  0.1625 -0.1434
 8184W        W24368  10.678  17.151   1.120 -0.2786  0.2782  0.0854
 8185W        W24369  16.092  17.960   4.498  0.2232 -0.0305  0.2943
 8186W        W24370  12.644  15.513  15.974  0.0676 -0.1325 -0.0981
 8187W        W24371   6.336   3.440  11.490  0.0384 -0.0717 -0.0738
 8188W        W24372  13.996   1.597  16.184  0.0366  0.1262  0.2289
 8189W        W24373  10.618   4.665   4.627 -0.0450  0.0732  0.0347
 8190W        W24374   9.166  11.654  16.063  0.0717 -0.2437  0.1547
 8191W        W24375  17.635  14.756   2.303  0.1813 -0.1212  0.1982
 8192W        W24376   6.504  12.107   2.520 -0.0755 -0.1775 -0.4506
 8193W        W24377   4.037   0.051   4.462 -0.1683  0.1346  0.2362
 8194W        W24378   2.653   0.599  13.544  0.6658  0.0191  0.1246
 8195W        W24379   8.637   9.820   2.845 -0.0061  0.1011  0.0872
 8196W        W24380  16.240  16.070   4.798  0.1038 -0.0235  0.3653
 8197W        W24381   3.932   7.988  16.280 -0.0649  0.2046  0.1979
 8198W        W24382   6.526  14.317   1.474 -0.0707  0.0979 -0.1977
 8199W        W24383   9.941   8.823  16.573  0.0691  0.2174 -0.1608
 8200W        W24384   1.002   2.681  12.313  0.1741 -0.1964  0.1447
 8201W        W24385  16.155  12.108   3.921 -0.0789  0.0515  0.2751
 8202W        W24386  15.289   8.938   1.183  0.1059 -0.0105  0.0524
 8203W        W24387   7.552  16.169   0.853  0.0348 -0.0783 -0.1449
 8204W        W24388  10.980  10.817   3.171  0.1250 -0.2187 -0.3738
 8205W        W24389   1.336  12.977  12.663 -0.3499 -0.1801  0.4072
 8206W        W24390   3.027   6.808   0.785 -0.2110 -0.3666 -0.0340
 8207W        W24391   4.082  10.021  16.146 -0.3032  0.3892  0.0742
 8208W        W24392  13.175   7.455   2.289  0.1501  0.0595  0.0469
 8209W        W24393  11.604   8.889  10.270  0.3357  0.0381 -0.1130
 8210W        W24394  10.773   6.421   2.322  0.1470 -0.1294 -0.1861
 8211W        W24395   9.407   1.548  13.005  0.2953 -0.0420 -0.0087
 8212W        W24396  16.533  13.421   1.990  0.3334  0.1640  0.1432
 8213W        W24397   0.393   0.527  13.398  0.0864  0.0515 -0.3038
 8214W        W24398   9.856  12.856  14.540 -0.0021 -0.0822  0.3559
 8215W        W24399  17.545   6.445  11.822 -0.0852 -0.1771  0.1239
 8216W        W24400   9.941   9.456  12.341  0.0165 -0.0006 -0.0193
 8217W        W24401   1.883   0.610   0.147 -0.1681  0.0911  0.0756
 8218W        W24402   6.309  11.368   1.726 -0.0101  0.0043  0.2809
 8219W        W24403   4.175   3.847   4.464  0.0860  0.0809  0.2564
 8220W        W24404  11.402   7.888   3.375  0.0547  0.0594 -0.0724
 8221W        W24405   5.404   6.665   1.086 -0.3696 -0.0728 -0.0489
 8222W        W24406   4.671   1.718   5.494  0.0657 -0.1743 -0.1129
 8223W        W24407   7.250   5.021   0.302 -0.2708  0.0779  0.0128
 8224W        W24408   0.854  17.932  12.972 -0.3083  0.1778 -0.0825
 8225W        W24409   5.312   2.853   4.530  0.2421  0.1904  0.1112
 8226W        W24410  16.991  10.343  12.136  0.1562 -0.0324  0.2864
 8227W        W24411   5.126   2.854   0.576 -0.3201 -0.0309 -0.3494
 8228W        W24412   5.732  10.871  14.712 -0.0530  0.2801 -0.2418
 8229W        W24413  17.180  10.389   1.380 -0.1172  0.1725 -0.1701
 8230W        W24414  14.300  15.164   5.331 -0.2372  0.1854 -0.1115
 8231W        W24415  14.529  11.503  16.460  0.1090  0.0709 -0.1912
 8232W        W24416  14.151  17.185  15.893 -0.3369  0.0884 -0.0238
 8233W        W24417   5.616  15.274   0.071  0.0706  0.3187  0.0661
 8234W        W24418   2.773   6.713   3.388  0.1391  0.0330 -0.0647
 8235W        W24419  11.808   1.260  13.317  0.0135 -0.3592 -0.1559
 8236W        W24420   6.435   2.846   2.456  0.4378  0.0361  0.1652
 8237W        W24421  13.381  14.915  14.234  0.0276  0.0571 -0.0842
 8238W        W24422  13.574  12.223  13.042 -0.0323  0.0621 -0.2437
 8239W        W24423   1.180  12.333  14.294  0.1064  0.2004 -0.0149
 8240W        W24424   8.022  16.657  12.076  0.0807  0.2456 -0.0005
 8241W        W24425  14.998   3.363   4.833  0.0985 -0.1368 -0.0890
 8242W        W24426   2.177   4.152   1.614  0.0982  0.0353 -0.1763
 8243W        W24427  11.260  11.122   1.223  0.0847 -0.1846  0.2215
 8244W        W24428  11.630   2.094  13.881  0.0663 -0.2474  0.2342
 8245W        W24429   5.083  14.907  12.172 -0.2207 -0.0939 -0.0731
 8246W        W24430  15.183   8.688  11.880  0.0667  0.1347 -0.0206
 8247W        W24431  10.242  10.714  11.449  0.2169  0.3110 -0.1335
 8248W        W24432   4.412  10.658  14.403 -0.1027  0.4333 -0.0478
 8249W        W24433  10.569   9.809  13.824 -0.1031 -0.2490  0.2612
 8250W        W24434  13.485  15.287   1.164 -0.3253 -0.3175  0.2064
 8251W        W24435   4.850  15.554   3.402  0.1402  0.0970 -0.1763
 8252W        W24436   4.252  11.664   4.809  0.2544  0.1340 -0.3879
 8253W        W24437   6.927  10.372  12.746  0.0197 -0.0957  0.0856
 8254W        W24438   2.398   8.253  12.871  0.1145 -0.0398  0.0194
 8255W        W24439  11.941  10.816  13.035 -0.2587 -0.0249 -0.4411
 8256W        W24440   2.762  15.275   0.101 -0.0100  0.0927  0.0996
 8257W        W24441  12.176   6.568   3.268  0.0727 -0.0874  0.2667
 8258W        W24442  14.712  12.424   1.725 -0.1023 -0.3971  0.1662
 8259W        W24443   9.236   7.244   4.905  0.3040  0.0120 -0.0361
 8260W        W24444  14.262   1.933   4.201 -0.0818  0.0185 -0.0606
 8261W        W24445  17.742  16.296   3.568 -0.1002  0.0253  0.1407
 8262W        W24446   5.531  14.551  16.115  0.1836  0.0259 -0.0413
 8263W        W24447  14.400  14.707   5.147 -0.2394  0.2178  0.0619
 8264W        W24448   8.110  16.265   2.629 -0.0147 -0.3075 -0.0862
 8265W        W24449  16.104  14.496   3.012  0.1474  0.0821  0.0467
 8266W        W24450   3.351   9.215   4.711 -0.0325 -0.1369  0.0438
 8267W        W24451   8.186  12.754   4.670 -0.0276 -0.0526 -0.1328
 8268W        W24452  11.872  13.266  14.883  0.1035  0.3796 -0.0050
 8269W        W24453  17.895   3.801   2.000  0.0906 -0.1689 -0.0332
 8270W        W24454  15.675  17.266  13.794  0.0676  0.1326  0.0963
 8271W        W24455   2.435   6.381   1.123  0.0470 -0.0547  0.1304
 8272W        W24456  12.862   7.015  11.884  0.1306  0.2104 -0.0943
 8273W        W24457   4.023   9.182  14.551 -0.0493 -0.4488 -0.2594
 8274W        W24458   8.728  10.825   2.493 -0.0465 -0.1455  0.0251
 8275W        W24459   3.715   9.549   4.916 -0.1747 -0.1380  0.1553
 8276W        W24460  14.824  15.192   3.450  0.0599  0.0196 -0.2708
 8277W        W24461  17.048   9.734   3.568  0.0100 -0.0925  0.2710
 8278W        W24462   6.139  10.367  11.653 -0.0210 -0.0630  0.3917
 8279W        W24463   5.371   3.936  12.421  0.1542  0.0339 -0.1361
 8280W        W24464   4.335   2.529   5.372 -0.2338 -0.0989 -0.2222
 8281W        W24465  11.432   1.134   2.712 -0.3451 -0.2317 -0.0914
 8282W        W24466  15.983  13.151  12.234  0.2414 -0.2144 -0.2369
 8283W        W24467   1.898  17.388   1.790  0.1505  0.0681 -0.1768
 8284W        W24468   7.122   5.097   1.233  0.2074 -0.2481 -0.0448
 8285W        W24469   2.377   6.983  13.613  0.1579 -0.4005 -0.0308
 8286W        W24470  10.505  16.978  12.754  0.3904 -0.0962  0.0873
 8287W        W24471   2.457   9.930  14.518 -0.3184  0.1162  0.0843
 8288W        W24472  14.000  10.241   4.211 -0.1403 -0.2612 -0.0605
 8289W        W24473   1.234  11.153  13.236 -0.1974  0.0466  0.0198
 8290W        W24474   4.355  14.096  15.864 -0.1701  0.0620 -0.2526
 8291W        W24475   9.300  10.546   2.482  0.1937  0.0840 -0.1029
 8292W        W24476   8.598   7.356  12.818 -0.0008 -0.1877 -0.1706
 8293W        W24477   3.336  17.105   1.159 -0.0632  0.1692 -0.1760
 8294W        W24478  12.421  12.340   2.929 -0.3216 -0.1581  0.3842
 8295W        W24479   7.152   3.992   2.938  0.0770 -0.2988  0.1659
 8296W        W24480   2.454   3.959  12.282 -0.1257  0.1660 -0.1679
 8297W        W24481  12.405  17.070  13.697  0.1320  0.1320  0.0171
 8298W        W24482   7.900   1.615  16.177  0.1311  0.0552 -0.0389
 8299W        W24483   6.233  12.422  15.031 -0.0583 -0.2917  0.2258
 8300W        W24484   6.048  10.026   3.576 -0.1687  0.2539 -0.1327
 8301W        W24485  17.291  11.535  15.266 -0.0463  0.1605  0.1370
 8302W        W24486   7.840  13.381   1.006  0.2388  0.1831 -0.1911
 8303W        W24487  14.600   7.531  13.944  0.1575  0.1158 -0.2140
 8304W        W24488   4.221  13.428  11.967 -0.0806 -0.2040 -0.2993
 8305W        W24489   5.367  14.606  14.938 -0.2252  0.0775 -0.0198
 8306W        W24490   9.574   5.840  12.792  0.0901  0.0032 -0.2557
 8307W        W24491   7.532   8.716   5.910  0.2732 -0.2037  0.1279
 8308W        W24492  17.630   9.452  14.153  0.3831 -0.1072  0.4601
 8309W        W24493   0.043   8.372  15.541 -0.0925 -0.2968  0.0308
 8310W        W24494   3.999   4.799   0.684  0.0432 -0.1015  0.1445
 8311W        W24495  11.699   9.712   4.334  0.4261 -0.0510 -0.1664
 8312W        W24496   9.819   8.025   4.188 -0.0428  0.0786  0.0230
 8313W        W24497   8.779   4.670   2.974 -0.0907  0.1136 -0.1043
 8314W        W24498   8.546   1.705   5.316 -0.2491  0.0628 -0.2909
 8315W        W24499   6.123   6.251   0.388  0.3081  0.2897 -0.0722
 8316W        W24500   0.361  13.483   4.770  0.2980  0.0583  0.1546
 8317W        W24501   2.185   6.301   1.543 -0.0770 -0.1311  0.0558
 8318W        W24502  12.248   0.518  13.258 -0.1801  0.4139  0.0453
 8319W        W24503   3.632   7.376  14.541  0.2355  0.2714  0.0564
 8320W        W24504   3.352  16.302   1.656  0.0503  0.0550  0.1472
 8321W        W24505   5.386  13.439   1.616  0.0126 -0.0340  0.0278
 8322W        W24506   6.254   2.498   2.734  0.1355  0.2241 -0.0214
 8323W        W24507   3.267   7.164  15.197  0.1742  0.0550 -0.0956
 8324W        W24508  17.016  17.379  11.077  0.2666 -0.2382 -0.0274
 8325W        W24509   9.616  10.506   3.495 -0.0290  0.0899  0.0801
 8326W        W24510  15.612   8.022   0.970 -0.0420  0.1427  0.1820
 8327W        W24511  16.068  13.637   0.424  0.0829  0.1791 -0.2304
 8328W        W24512   5.185  16.535  15.121  0.0075  0.1056  0.2306
 8329W        W24513  10.160   2.339   5.440 -0.0923  0.1723  0.0008
 8330W        W24514   7.732   0.587  12.258  0.0443  0.0275  0.2947
 8331W        W24515   3.763  15.831  16.543 -0.3075  0.3782 -0.1395
 8332W        W24516   7.743   0.936   1.582  0.2318 -0.1921 -0.3528
 8333W        W24517   8.025  10.695  14.570 -0.1448 -0.0304 -0.1229
 8334W        W24518   6.531  15.160  13.496 -0.1412 -0.0351  0.1175
 8335W        W24519  16.516   7.519   3.762  0.1515  0.0852 -0.1091
 8336W        W24520   8.530   5.277  16.433 -0.2199 -0.1562 -0.1827
 8337W        W24521  14.452   8.423   4.554  0.2386 -0.2881 -0.2416
 8338W        W24522   1.662   1.099  13.313 -0.1519  0.1423 -0.0967
 8339W        W24523   2.473   5.653   5.674  0.0714  0.0171  0.1239
 8340W        W24524   9.621  13.596  12.584 -0.0344 -0.0384 -0.0738
 8341W        W24525  13.193  12.693   2.472  0.1060 -0.1002 -0.1863
 8342W        W24526  14.178   9.557  11.998 -0.0761 -0.1176  0.2884
 8343W        W24527   2.043  14.508  12.273 -0.1414  0.0875 -0.2642
 8344W        W24528  11.618   2.439  14.741 -0.1681 -0.0496 -0.3772
 8345W        W24529   7.423  13.522  13.422 -0.0453  0.4333  0.0774
 8346W        W24530  10.798  14.230  13.638  0.1676 -0.1663  0.2003
 8347W        W24531   1.553   8.392  15.248  0.0451  0.0003 -0.1316
 8348W        W24532  14.037  14.772  14.773 -0.1260 -0.2449 -0.0298
 8349W        W24533   1.118  16.484  12.575 -0.1089 -0.0014 -0.0421
 8350W        W24534   8.900  12.963  12.958  0.1953  0.0537 -0.1047
 8351W        W24535   6.838   2.550  14.836 -0.0331 -0.1304  0.4561
 8352W        W24536  13.652   8.366   2.169  0.1050 -0.2218 -0.2242
 8353W        W24537   4.523   3.723  14.961 -0.1195 -0.1009  0.2351
 8354W        W24538   5.828   3.389   2.898  0.0983 -0.1036  0.0047
 8355W        W24539  10.178  17.743  11.904  0.0269 -0.0531  0.0102
 8356W        W24540   2.964  10.920   2.043  0.0741 -0.1038 -0.0003
 8357W        W24541   5.372   0.848  14.444  0.2729 -0.0220 -0.1155
 8358W        W24542  17.864   9.561   2.576 -0.0164 -0.1797 -0.1062
 8359W        W24543   3.978   3.398   3.411  0.3229 -0.2243  0.1835
 8360W        W24544  14.393   6.071   5.401  0.0604 -0.1213 -0.0617
 8361W        W24545  14.745  10.264  14.020 -0.0734  0.0057  0.1207
 8362W        W24546   5.524   9.045  11.952  0.0939 -0.2504 -0.0917
 8363W        W24547   4.212  15.576  13.344  0.0091 -0.0202 -0.0443
 8364W        W24548   7.594   0.799  11.803  0.0356  0.0428 -0.0735
 8365W        W24549  12.877   7.102   1.103 -0.1169 -0.2653  0.3354
 8366W        W24550  12.665   1.419  12.165 -0.0740 -0.2468 -0.1876
 8367W        W24551  13.019   0.940  11.951  0.1108 -0.2205  0.0693
 8368W        W24552  10.381   9.743   5.971  0.3239 -0.0450 -0.2323
 8369W        W24553  16.057   4.816  13.040  0.2077  0.0210  0.2905
 8370W        W24554  17.563   2.666  12.072  0.1265 -0.0617 -0.1195
 8371W        W24555  16.154  12.945   1.368  0.1088  0.2209 -0.0518
 8372W        W24556   3.808  17.367   5.145  0.1542 -0.0157  0.2420
 8373W        W24557   7.030   0.356  11.998 -0.1144 -0.2005  0.1272
 8374W        W24558   2.269   4.978   0.583 -0.2684 -0.3634 -0.1594
 8375W        W24559  12.189   3.981  15.945 -0.0126 -0.1925 -0.3909
 8376W        W24560   6.251   8.202   3.198 -0.0498 -0.1022 -0.2863
 8377W        W24561   6.472   4.409  13.346  0.2371 -0.0244 -0.2460
 8378W        W24562  12.342  11.198  15.673  0.1505  0.0049  0.0955
 8379W        W24563  11.088  17.654  13.602 -0.1536 -0.0273  0.0420
 8380W        W24564   3.742  16.771  15.813 -0.1692 -0.0394 -0.0858
 8381W        W24565  12.891  13.371  15.758  0.2173 -0.1502  0.1379
 8382W        W24566  10.238  13.833  12.920  0.1204 -0.3151  0.1717
 8383W        W24567  12.538   2.270   3.020 -0.1147 -0.2613  0.3712
 8384W        W24568   5.036  13.378  11.894  0.0830  0.1619 -0.0803
 8385W        W24569  10.021  10.519   4.456 -0.0910 -0.0548  0.0753
 8386W        W24570  14.108  14.105   0.958 -0.2032  0.1031 -0.2730
 8387W        W24571   0.417   8.851  14.943 -0.1054 -0.3653 -0.2007
 8388W        W24572   8.086   1.981   4.517  0.2355  0.2435 -0.1056
 8389W        W24573  13.752   7.209   2.323  0.0545  0.3694  0.1205
 8390W        W24574  17.219   5.339   4.403 -0.1133  0.2579 -0.3219
 8391W        W24575  10.342  16.675   3.723  0.0757  0.0514 -0.1564
 8392W        W24576  15.625   2.831   1.219  0.0085  0.0104 -0.1570
 8393W        W24577  11.732  12.425  16.166 -0.2519 -0.1464 -0.3931
 8394W        W24578   7.233  14.156   3.069 -0.0639  0.0157 -0.0910
 8395W        W24579   8.918   3.051  12.876  0.0074  0.3132 -0.0263
 8396W        W24580   3.938  11.857  16.100  0.0509  0.1664  0.0918
 8397W        W24581   0.399   2.703  11.685  0.0422 -0.0015 -0.0789
 8398W        W24582  10.923   3.090   2.924  0.3782  0.0094 -0.0124
 8399W        W24583   6.377  13.357   4.175 -0.0260  0.0285 -0.0258
 8400W        W24584   1.095   4.013   3.697 -0.0405  0.2791 -0.0272
 8401W        W24585   1.339  17.866  12.742 -0.0322 -0.0642  0.1781
 8402W        W24586   3.726  15.460   5.157  0.1592  0.2521  0.0293
 8403W        W24587  11.691   5.549   4.950  0.1305  0.0207  0.2899
 8404W        W24588  14.840  16.459   0.951 -0.1449 -0.1609  0.1879
 8405W        W24589   0.211  16.261   0.867 -0.2140 -0.2684 -0.0576
 8406W        W24590   6.331  14.768  14.907 -0.0954  0.0936  0.2033
 8407W        W24591   2.329   1.788   3.825 -0.2364  0.1403  0.0437
 8408W        W24592  15.962   9.636   3.759  0.0467  0.2861  0.1355
 8409W        W24593   8.395  13.055  11.737  0.4257 -0.1012  0.1958
 8410W        W24594   6.424   1.578   1.077  0.0919  0.3794 -0.3074
 8411W        W24595   1.686  13.783  14.895 -0.0841 -0.0410  0.0824
 8412W        W24596  13.235   7.539  15.069  0.0920  0.0503  0.1029
 8413W        W24597  17.994   6.608  16.417 -0.1620  0.1339  0.1064
 8414W        W24598   5.009   4.249  11.518  0.3617 -0.1319 -0.0988
 8415W        W24599  15.657   4.888   2.911 -0.1028  0.2105  0.0384
 8416W        W24600  10.934  13.854  13.931 -0.1477 -0.0193  0.2864
 8417W        W24601  15.132   8.154  14.689  0.1637  0.2693 -0.0176
 8418W        W24602  16.626   9.898   5.345  0.1467 -0.0314 -0.1938
 8419W        W24603  12.091  15.467  16.484 -0.2011 -0.2461 -0.2099
 8420W        W24604   2.295  18.003  14.579  0.1075 -0.0683 -0.0278
 8421W        W24605   7.314  14.774   1.394  0.2388  0.0813  0.2949
 8422W        W24606   7.774  14.820   2.316 -0.3127  0.0152  0.3615
 8423W        W24607   2.216  16.246   0.178  0.2109 -0.1100 -0.1624
 8424W        W24608   4.634   0.044  12.063  0.0199  0.1474  0.0263
 8425W        W24609   2.432   6.171  11.827 -0.0309  0.1116  0.3408
 8426W        W24610   7.751   6.096  13.886  0.3683  0.1050  0.1222
 8427W        W24611  13.129   3.947   1.663  0.0699 -0.1563  0.5563
 8428W        W24612  13.095  13.957   2.459 -0.1370 -0.0011  0.1702
 8429W        W24613   4.256  16.849   1.314  0.0378 -0.1327  0.5254
 8430W        W24614   7.921  13.051   2.372  0.1860  0.0535 -0.1141
 8431W        W24615  11.081  17.739  15.381  0.3681 -0.2091  0.2249
 8432W        W24616   4.110   9.270  16.252  0.1429  0.1928  0.1062
 8433W        W24617   9.830   6.692  13.296  0.0521  0.3131  0.0373
 8434W        W24618  15.684  16.724   5.144  0.4318 -0.0657 -0.2449
 8435W        W24619  10.743   6.247   5.072 -0.2663  0.0510 -0.1060
 8436W        W24620  10.173  16.508   3.282  0.3525 -0.1768 -0.0068
 8437W        W24621  16.954   6.912   1.333 -0.0085  0.0148  0.2805
 8438W        W24622   9.581  12.298   4.815  0.0346  0.2165 -0.2150
 8439W        W24623   5.832  13.280  12.957  0.2958 -0.0309  0.0624
 8440W        W24624  15.174  13.318   5.456 -0.4069  0.2678  0.2464
 8441W        W24625   1.198  15.824   1.649  0.1826 -0.1746 -0.0363
 8442W        W24626   1.766   5.726  16.681 -0.2381  0.0780 -0.0586
 8443W        W24627   9.550  12.916  13.658 -0.1957 -0.2633  0.2010
 8444W        W24628   5.552  12.958  12.197 -0.0844 -0.1681  0.0350
 8445W        W24629   6.357   8.395   1.549 -0.0691  0.0409 -0.2576
 8446W        W24630  14.432  12.829  16.345  0.0769 -0.2625  0.4244
 8447W        W24631  11.546  10.919  15.303 -0.0151 -0.1323 -0.1391
 8448W        W24632  10.972   9.868  15.254  0.0088  0.0708 -0.1027
 8449W        W24633   9.031   0.997   0.567 -0.1090  0.0086  0.1746
 8450W        W24634   2.721  12.769  13.072  0.1762  0.2409  0.0259
 8451W        W24635  14.309  13.137  12.309 -0.0953 -0.1112 -0.0851
 8452W        W24636   2.601   8.428  11.438  0.2492  0.0900  0.0946
 8453W        W24637   7.398   2.552   4.659  0.0491  0.5271 -0.2428
 8454W        W24638  11.425   9.085   3.508  0.2431 -0.2827 -0.0074
 8455W        W24639   4.981  17.414  14.005 -0.1375  0.0671 -0.0323
 8456W        W24640  14.624   3.200  16.646 -0.2151 -0.3865  0.0051
 8457W        W24641   4.229  10.549   1.359 -0.0924 -0.0465 -0.1802
 8458W        W24642   3.753  14.767   3.680  0.0113  0.0226  0.3675
 8459W        W24643  14.644   4.853   5.567 -0.6818  0.0469 -0.0598
 8460W        W24644  17.478  15.527   2.216 -0.1020  0.1245  0.0070
 8461W        W24645  13.665  10.658   0.752 -0.1776 -0.3745  0.3619
 8462W        W24646   4.815  13.299  15.156  0.1620 -0.0058  0.2046
 8463W        W24647  16.471   5.728   4.740 -0.3193 -0.1551  0.2002
 8464W        W24648  17.089   8.056   2.810  0.0002 -0.0821 -0.2944
 8465W        W24649   4.938   8.430   5.939  0.0556 -0.2146 -0.2863
 8466W        W24650  17.801  14.657   1.243 -0.0366  0.0482 -0.3242
 8467W        W24651  13.802  13.899   4.277  0.0481 -0.2763 -0.0033
 8468W        W24652   0.401   0.555   4.320  0.1616 -0.2799  0.0172
 8469W        W24653   9.917  13.422   4.363  0.1176 -0.0251 -0.1572
 8470W        W24654  17.995   1.030  15.097  0.1705  0.1877  0.1219
 8471W        W24655  16.017  10.600   2.704  0.0700 -0.1801 -0.1130
 8472W        W24656  15.360   9.251  14.604  0.1831  0.3323  0.1926
 8473W        W24657   8.994   9.197   0.928 -0.2026 -0.0874  0.0525
 8474W        W24658   7.454  15.192  15.732 -0.0509  0.0331 -0.2828
 8475W        W24659  10.779   7.261   5.768 -0.2133  0.4114 -0.0492
 8476W        W24660   5.601  10.272  14.164 -0.1413  0.1389  0.2280
 8477W        W24661   2.997   9.171  16.655  0.0271 -0.3482 -0.0335
 8478W        W24662  15.017   6.296  14.976 -0.1294 -0.2471  0.0558
 8479W        W24663   7.504  17.739   2.554 -0.2409  0.1274  0.1298
 8480W        W24664   3.024   6.776  16.201 -0.1013  0.2744 -0.1077
 8481W        W24665   4.312   7.863  12.811  0.0332  0.0864  0.2115
 8482W        W24666  11.777   4.104   1.847 -0.0359  0.2057 -0.3845
 8483W        W24667   8.054   2.676  11.858 -0.1312  0.0615  0.1794
 8484W        W24668  14.749   2.936   2.476 -0.3608  0.2666  0.0625
 8485W        W24669   2.420   9.937   1.266  0.1087  0.2651 -0.1315
 8486W        W24670   4.386   0.074   2.831  0.1161  0.4328 -0.0789
 8487W        W24671   9.529   2.329   4.326 -0.1628  0.2451 -0.0670
 8488W        W24672   4.064   7.571   0.896  0.1342 -0.0173  0.0417
 8489W        W24673  12.292  13.401  12.413 -0.1845  0.2379 -0.6449
 8490W        W24674  12.755  15.240   0.662  0.0606  0.0709 -0.4527
 8491W        W24675  11.755   2.745   4.188 -0.0822  0.0315 -0.1009
 8492W        W24676   3.780   8.015   0.850  0.1781  0.0703 -0.3020
 8493W        W24677  13.623   9.887  15.229 -0.3574  0.2430 -0.1215
 8494W        W24678  13.054   4.927  14.428 -0.2087  0.2452  0.4609
 8495W        W24679  13.493   7.940   5.980 -0.0889  0.0357  0.0890
 8496W        W24680   7.369   5.157   4.697 -0.0278  0.0804 -0.3643
 8497W        W24681   5.740   0.845   3.046  0.2981 -0.0879 -0.1953
 8498W        W24682  15.002   4.824  16.015  0.0878  0.2985  0.5121
 8499W        W24683  16.378   5.372  14.232  0.2025  0.0392  0.0766
 8500W        W24684  17.977  10.313   1.258  0.2884  0.0833  0.0305
 8501W        W24685  10.370   1.626   3.555 -0.1000  0.2609 -0.1320
 8502W        W24686   0.453  12.782  11.594  0.0563  0.1781  0.3008
 8503W        W24687   6.183  13.682  14.786 -0.1153 -0.1500 -0.1094
 8504W        W24688   5.478   8.840   1.539 -0.0604 -0.0310 -0.0804
 8505W        W24689   6.037   0.609  12.786  0.0842  0.1446 -0.2161
 8506W        W24690   3.486  17.884   4.594  0.0098 -0.0890  0.2566
 8507W        W24691   6.300   2.489   5.196  0.1545 -0.0497 -0.0106
 8508W        W24692  12.836   0.840   1.134  0.2004 -0.0676 -0.4175
 8509W        W24693  11.142   7.471   3.765 -0.2315 -0.0738 -0.1532
 8510W        W24694  11.044   4.840  11.579 -0.0035 -0.0114 -0.2558
 8511W        W24695   2.836  17.876  16.415 -0.1981 -0.0236  0.1153
 8512W        W24696  16.274  12.417  10.575 -0.2358 -0.0893  0.0981
 8513W        W24697  10.606  16.269   2.511 -0.2406  0.1255 -0.2840
 8514W        W24698   3.458   8.040  16.639  0.1589 -0.0012 -0.0363
 8515W        W24699  13.507   9.603   3.851 -0.0400 -0.1358 -0.0411
 8516W        W24700  11.469   3.768   0.087 -0.2456  0.0034 -0.1058
 8517W        W24701  17.599   5.332  16.172 -0.0064  0.1063  0.4829
 8518W        W24702   4.658  15.539   0.763  0.0153 -0.1911 -0.0814
 8519W        W24703  12.760   2.897   4.516 -0.1464 -0.1093  0.0257
 8520W        W24704  16.543   5.235   2.881 -0.0258  0.2404  0.0714
 8521W        W24705  11.669   0.810  15.192 -0.0340 -0.0935 -0.0631
 8522W        W24706   0.867   7.844   0.233  0.1405  0.2473 -0.1682
 8523W        W24707   3.257   1.527   3.883 -0.0916 -0.1236 -0.2608
 8524W        W24708   1.753  12.717  12.567 -0.0256  0.3116 -0.1496
 8525W        W24709   7.630  12.162  16.483  0.0667  0.0868  0.1433
 8526W        W24710   4.451  17.730   3.628  0.0643 -0.0184  0.2198
 8527W        W24711  12.020   8.763  11.635 -0.0303 -0.0403  0.0075
 8528W        W24712   0.767   4.236  13.047  0.1378 -0.4429  0.1792
 8529W        W24713  10.079   7.134  11.603 -0.1249 -0.1332  0.0529
 8530W        W24714   9.448   0.298  12.452 -0.1600  0.1872 -0.1451
 8531W        W24715   8.027  11.503   0.365  0.2466 -0.0423 -0.0878
 8532W        W24716   6.115   7.306   4.621 -0.3265  0.0830 -0.0642
 8533W        W24717   0.770  16.101  13.109 -0.3698 -0.0247  0.1289
 8534W        W24718  13.734  11.186   1.234 -0.1676 -0.0870 -0.1819
 8535W        W24719  13.742  11.681   1.196 -0.0363  0.2594 -0.3642
 8536W        W24720  10.168  15.486   3.195  0.1998 -0.1343 -0.2123
 8537W        W24721  16.539   1.956  14.825  0.2441  0.0149 -0.1408
 8538W        W24722  16.539  14.492  13.046  0.2554  0.3073 -0.1543
 8539W        W24723   2.736   8.136  14.707 -0.1642  0.1023  0.2811
 8540W        W24724   9.280   2.236  14.642 -0.1832  0.0486  0.2130
 8541W        W24725  15.579  13.539  15.679 -0.1097 -0.0902  0.1786
 8542W        W24726  13.560   1.655   1.279  0.1060  0.0580  0.3079
 8543W        W24727  17.891  11.922  13.188  0.0137 -0.1231  0.0460
 8544W        W24728  15.846   8.731  13.536  0.0684 -0.0173  0.0096
 8545W        W24729   9.644  10.276   4.691 -0.1837  0.0375  0.1297
 8546W        W24730   6.468  16.900  12.791  0.3147  0.2235  0.0627
 8547W        W24731  13.810  12.762   4.798 -0.0852 -0.0053 -0.1711
 8548W        W24732   0.890  11.892  11.848  0.1577 -0.0490 -0.1059
 8549W        W24733   7.801   7.818  14.951 -0.1980 -0.0489  0.3463
 8550W        W24734  12.460   9.698  15.656 -0.2871  0.5972  0.1981
 8551W        W24735   1.951   8.837   4.053 -0.0149  0.2334  0.3169
 8552W        W24736   5.540   5.001  12.640  0.1049  0.2128 -0.0317
 8553W        W24737  17.371   5.717  11.903  0.0930 -0.2618  0.2110
 8554W        W24738   4.406  13.445   4.144  0.0065 -0.0179 -0.0873
 8555W        W24739  13.030  12.952   0.967  0.1238 -0.1569 -0.2648
 8556W        W24740   6.894  10.322  13.694 -0.0260 -0.0653 -0.2660
 8557W        W24741  12.245   6.522  12.947 -0.1143  0.1155 -0.2813
 8558W        W24742  17.298  14.189   4.519  0.2854  0.0929 -0.1198
 8559W        W24743   3.724   7.167   2.771  0.0350 -0.1823 -0.1577
 8560W        W24744   6.921  15.548  16.357  0.1138 -0.2470  0.0478
 8561W        W24745   7.333  13.636   1.726  0.1271 -0.1249 -0.0357
 8562W        W24746   4.696   7.481   1.380 -0.2370  0.1336  0.0134
 8563W        W24747  10.926   4.444   0.085 -0.2299 -0.0260  0.0461
 8564W        W24748   9.123  10.721   5.236 -0.1149 -0.0986 -0.1144
 8565W        W24749   0.435  12.806  14.310  0.1641  0.0295  0.1862
 8566W        W24750   8.611   0.362  11.296 -0.2800 -0.2260  0.2407
 8567W        W24751  16.850  15.185  11.968 -0.1944 -0.0202  0.0236
 8568W        W24752  16.638   0.372  12.558  0.3871 -0.0196 -0.2144
 8569W        W24753  17.945  13.475  13.725  0.0760 -0.4126  0.1312
 8570W        W24754   2.993  13.951  13.413  0.0129  0.4145  0.2430
 8571W        W24755  11.261   7.524  12.093 -0.1477  0.2468  0.0954
 8572W        W24756  10.944   8.679  16.489 -0.0486 -0.1492  0.1991
 8573W        W24757   9.481  10.833   3.836 -0.1524 -0.0523  0.2354
 8574W        W24758   8.158  16.425  12.789  0.1642  0.2436  0.1221
 8575W        W24759  17.663   6.209  15.123 -0.0919  0.1239 -0.0604
 8576W        W24760   6.000   5.414  14.295 -0.2040  0.2150  0.0212
 8577W        W24761   3.407  10.774   3.060 -0.2418 -0.0672 -0.0376
 8578W        W24762  10.205  10.985  10.989  0.0371 -0.1612  0.0133
 8579W        W24763   4.217  14.507  16.088 -0.0865 -0.0763  0.0250
 8580W        W24764   4.044   2.796  14.209 -0.0619 -0.0098 -0.0153
 8581W        W24765   2.876   0.803  12.550  0.0816 -0.0181  0.3190
 8582W        W24766  16.459   5.038  15.745 -0.1122 -0.0896 -0.1666
 8583W        W24767   2.572   8.757   5.234  0.1708  0.0939 -0.1046
 8584W        W24768   9.405   9.879   1.780  0.0880 -0.0186 -0.0548
 8585W        W24769   4.246  13.548  13.914 -0.2368  0.2770  0.0110
 8586W        W24770  14.578   4.086  15.405  0.0047 -0.1302 -0.0775
 8587W        W24771  14.754  14.836  15.473 -0.0606 -0.2323  0.2257
 8588W        W24772   0.903   6.456   0.162  0.0255  0.0503 -0.1226
 8589W        W24773  12.763  10.039  14.909 -0.3017 -0.0367 -0.0844
 8590W        W24774  16.316   8.846  16.350 -0.0595 -0.1381  0.3690
 8591W        W24775  16.689   7.317   2.183 -0.1546 -0.4150 -0.2683
 8592W        W24776  16.162  10.223   2.344 -0.3050  0.0466 -0.4144
 8593W        W24777   1.811  11.306   2.102  0.1265  0.1426  0.4009
 8594W        W24778   6.634   9.952  13.477 -0.1109  0.1626 -0.2457
 8595W        W24779   4.942  10.757  13.668  0.1258  0.1767  0.1308
 8596W        W24780  11.526  10.382  14.034 -0.1228  0.2324  0.0069
 8597W        W24781  13.541   4.288  11.426  0.0975  0.0743 -0.2646
 8598W        W24782  12.005   4.519  16.307  0.1092  0.1734 -0.1244
 8599W        W24783   1.943   6.694  15.068 -0.2372  0.1237  0.1367
 8600W        W24784   9.023  10.036   2.120  0.1196 -0.4256 -0.1536
 8601W        W24785   9.950   5.579  13.581  0.0359 -0.0624 -0.0096
 8602W        W24786   1.386  15.558   1.167 -0.0379 -0.4368  0.0420
 8603W        W24787   4.304   6.519  15.629 -0.0928  0.1474  0.4270
 8604W        W24788  13.860   8.639   3.783  0.0278 -0.0326  0.0892
 8605W        W24789  13.882  13.893   0.388  0.1323  0.1985  0.3756
 8606W        W24790   2.721   6.406   0.737 -0.1786  0.0354 -0.0190
 8607W        W24791   9.935  16.455   0.342 -0.0355  0.1786 -0.0854
 8608W        W24792  12.286   4.791   5.138  0.0400  0.0694  0.1472
 8609W        W24793   3.353   2.725  15.061  0.1450  0.0520 -0.4081
 8610W        W24794   7.375  15.885   3.249  0.1874 -0.3125 -0.0320
 8611W        W24795   0.680  16.479  13.691 -0.2010  0.2164 -0.0894
 8612W        W24796   0.155   6.008   1.701 -0.4427  0.1343 -0.1554
 8613W        W24797  14.897   1.009  15.733  0.0071 -0.2392  0.5971
 8614W        W24798   3.411   8.602   4.651  0.5638 -0.2197 -0.2615
 8615W        W24799  17.464  10.658  14.787  0.3377 -0.1011  0.0410
 8616W        W24800   5.811  11.909   5.032 -0.1295  0.0759  0.2380
 8617W        W24801  15.870   6.310   3.748  0.1266  0.2379  0.2469
 8618W        W24802   8.563   6.764   3.915  0.0981  0.1871  0.1457
 8619W        W24803   9.301   9.634  16.481  0.1808  0.2212  0.1129
 8620W        W24804  13.921  13.250   5.044  0.0805 -0.0676 -0.2770
 8621W        W24805   3.253  15.800  11.428 -0.2068  0.2172  0.2947
 8622W        W24806  10.619   6.978  16.190 -0.2743  0.0102  0.0115
 8623W        W24807  15.908  16.014  13.857  0.0094 -0.1394  0.1651
 8624W        W24808  17.572   3.822  13.153  0.0502  0.4982  0.0810
 8625W        W24809   3.509   6.051   1.327  0.2280 -0.1756 -0.2049
 8626W        W24810  17.387   0.524  11.498 -0.0361  0.2885 -0.2809
 8627W        W24811   5.920   2.810   2.495 -0.1839 -0.2716  0.0283
 8628W        W24812   7.756  14.271   3.298  0.1986 -0.0811 -0.0301
 8629W        W24813  12.452   7.833   1.719 -0.1157 -0.0108  0.0768
 8630W        W24814   0.163   0.893  16.167  0.0876 -0.1361 -0.1432
 8631W        W24815  14.687   4.299   3.486  0.0637 -0.0874  0.0424
 8632W        W24816   4.606   1.289  14.026 -0.0604  0.0842 -0.0241
 8633W        W24817   3.874   1.200   3.468  0.1712  0.0087 -0.0320
 8634W        W24818   0.676   6.486   2.938  0.0416  0.1096  0.0764
 8635W        W24819  16.982   8.370   3.482 -0.3192  0.2440 -0.1013
 8636W        W24820   0.042   5.443  14.923  0.1511 -0.1440  0.0264
 8637W        W24821  12.527  17.291  16.638  0.2483 -0.0280  0.0967
 8638W        W24822   9.282   5.010  14.027 -0.0983 -0.0777  0.0102
 8639W        W24823   0.186  14.673  15.965 -0.3579  0.1199 -0.1003
 8640W        W24824   4.679   3.788   2.137  0.0457  0.0314 -0.1217
 8641W        W24825  16.256  17.743   2.610  0.0642  0.0310 -0.0260
 8642W        W24826  14.241   3.180   1.402 -0.0424 -0.0005 -0.1514
 8643W        W24827  12.151  12.410   0.695  0.1430  0.1850 -0.1806
 8644W        W24828  11.380  17.533   0.253 -0.0284 -0.0390  0.0563
 8645W        W24829   5.430   0.246   5.114 -0.1975  0.0037 -0.1978
 8646W        W24830   0.114   1.724  15.097  0.2173  0.1059 -0.3863
 8647W        W24831   9.249   3.301   2.294 -0.0939 -0.0329  0.4124
 8648W        W24832   9.297   4.528   5.342 -0.1827 -0.0750  0.0312
 8649W        W24833   6.635   3.406   4.933  0.2169 -0.2434  0.1174
 8650W        W24834  13.308  11.213   4.320  0.1688  0.1028 -0.2765
 8651W        W24835   2.694   7.252  14.447 -0.1372  0.0188  0.0517
 8652W        W24836   9.688  17.925   4.232  0.0209  0.1011  0.0127
 8653W        W24837  12.457  10.219  15.736 -0.0710  0.1866  0.0640
 8654W        W24838  17.653   0.451  12.931  0.1837 -0.1725  0.0625
 8655W        W24839   4.529  10.254   3.642  0.1193  0.2053  0.2131
 8656W        W24840   9.699  10.229   2.571  0.1416 -0.0893 -0.0952
 8657W        W24841   2.859   5.794   1.790 -0.0835 -0.3878  0.1879
 8658W        W24842   6.600   8.631   5.890 -0.1042  0.1029 -0.1812
 8659W        W24843  12.661  10.433   3.321  0.0733 -0.0782  0.1822
 8660W        W24844  16.159   9.745  15.997  0.3009  0.2630 -0.0583
 8661W        W24845   3.575  16.664  14.040 -0.0398 -0.3668 -0.0531
 8662W        W24846  14.752   9.036   2.345  0.1919 -0.2001  0.0174
 8663W        W24847   2.934  11.556   6.312  0.3011 -0.1175  0.2136
 8664W        W24848  15.902  10.498  15.202 -0.2118  0.1834  0.1539
 8665W        W24849   1.617  17.905   3.811 -0.2474 -0.0806 -0.0981
 8666W        W24850   2.774  13.804  13.903  0.1577  0.1604  0.2244
 8667W        W24851  14.027   5.760   1.638  0.0595  0.0266 -0.3689
 8668W        W24852   7.102   7.955   2.687  0.3246  0.4378 -0.0027
 8669W        W24853   7.604   6.647   2.579  0.0014 -0.3064 -0.0795
 8670W        W24854   9.344   6.257  15.015 -0.3072  0.0637  0.0889
 8671W        W24855  12.078   5.737  16.363 -0.0125  0.1000 -0.1996
 8672W        W24856   7.422  12.880   3.753  0.1838 -0.1343  0.1019
 8673W        W24857  13.960  16.392   2.427 -0.0043  0.0114  0.2920
 8674W        W24858  15.684   9.674  16.220  0.2052  0.0103  0.0226
 8675W        W24859   0.423  14.328   0.563  0.3127 -0.3857  0.0152
 8676W        W24860   8.742   7.724   5.491  0.0993 -0.0305 -0.0951
 8677W        W24861  13.985   4.046  12.247 -0.2082 -0.0962 -0.1798
 8678W        W24862   7.334  13.211   4.242  0.2303  0.0509  0.1829
 8679W        W24863  15.528  12.963  12.123  0.1170 -0.0894  0.0406
 8680W        W24864  15.155   6.955   0.961 -0.1458  0.2236  0.2020
 8681W        W24865  15.436   0.760   1.487 -0.3269  0.2033 -0.0563
 8682W        W24866   8.065   1.150  15.471 -0.1129 -0.0833  0.0083
 8683W        W24867  11.572  13.591   0.278  0.0618  0.2349 -0.1341
 8684W        W24868   7.542   2.210   3.722  0.0393  0.0336 -0.0419
 8685W        W24869   7.958  15.091  12.296 -0.1820  0.2192 -0.1428
 8686W        W24870   2.063   2.574  16.165  0.0692  0.2272 -0.0273
 8687W        W24871  10.633  17.705  11.655  0.0515  0.5014  0.0733
 8688W        W24872   2.443  15.150  12.685 -0.1130 -0.1681  0.0974
 8689W        W24873   0.198   0.095  14.691 -0.1613  0.2009  0.1828
 8690W        W24874   0.578  10.083  15.956 -0.1324  0.0396 -0.1221
 8691W        W24875  10.599  13.462  13.196  0.1626 -0.0115  0.1668
 8692W        W24876   9.941   0.653   2.145  0.1633  0.0719 -0.0315
 8693W        W24877  11.038  12.001   5.996 -0.2577 -0.3229  0.2784
 8694W        W24878   4.586   9.928   1.111 -0.2100  0.2132  0.1470
 8695W        W24879   7.536   9.212   6.404 -0.2113 -0.1647  0.0410
 8696W        W24880  15.384   4.432   0.154  0.0043 -0.0476  0.0759
 8697W        W24881   1.729   5.211   3.942 -0.0072 -0.1475 -0.0315
 8698W        W24882  17.849   6.442  13.364 -0.0009 -0.2885 -0.3326
 8699W        W24883  12.702  16.684  12.010  0.2314 -0.0177  0.0247
 8700W        W24884   5.050   5.670   4.508 -0.1935 -0.1797 -0.4013
 8701W        W24885   3.374   6.306   5.433 -0.1401  0.1702 -0.2269
 8702W        W24886  16.283   2.214   0.271  0.0034  0.0869  0.4908
 8703W        W24887  14.886   6.100   2.175  0.1737 -0.3502  0.0472
 8704W        W24888  14.236   5.027   5.121 -0.0672 -0.0529 -0.3226
 8705W        W24889   3.897   4.169  14.436 -0.2608 -0.2665 -0.0457
 8706W        W24890   3.161   3.452   2.859  0.1717  0.0595  0.1079
 8707W        W24891  16.533  13.942   1.041 -0.0574 -0.1774 -0.0125
 8708W        W24892  15.145   0.194  12.686 -0.0014 -0.0042  0.0221
 8709W        W24893   9.916   5.695   5.601  0.2409  0.1859 -0.0431
 8710W        W24894  17.028  17.494   5.241  0.2047  0.2316  0.2940
 8711W        W24895  11.646   5.396  11.554 -0.0097 -0.2407 -0.0852
 8712W        W24896   7.938  13.464   1.739  0.1823  0.0656  0.1801
 8713W        W24897   8.560  15.162   4.601 -0.1541  0.1243  0.0523
 8714W        W24898   8.217   5.498   4.125 -0.1744 -0.1393  0.1561
 8715W        W24899   4.054   7.623  11.770  0.1401  0.1052 -0.1627
 8716W        W24900  17.134  16.224  16.625  0.0499  0.1553 -0.0603
 8717W        W24901   3.649   6.986   4.993 -0.1676  0.0343  0.1518
 8718W        W24902  16.092  16.412   1.340  0.1214 -0.4815  0.3326
 8719W        W24903   0.850  12.641  16.508 -0.5151  0.0011  0.0884
 8720W        W24904  11.404   6.713   0.227 -0.5139  0.2939  0.3427
 8721W        W24905   8.944  17.858  15.384  0.0930  0.1945 -0.0854
 8722W        W24906  11.944   0.133  13.166 -0.0915  0.2119  0.1689
 8723W        W24907  12.894   2.341   0.059 -0.2738 -0.0611  0.0377
 8724W        W24908   6.981  12.025   1.423  0.1760  0.2713 -0.6521
 8725W        W24909   8.754   9.910   5.516 -0.2150 -0.0089 -0.1778
 8726W        W24910  14.060  17.450  11.594  0.3769 -0.0333 -0.0774
 8727W        W24911  12.903   7.371  12.226 -0.0658  0.2856 -0.0978
 8728W        W24912   3.513   4.654   1.915  0.0471  0.1385  0.4570
 8729W        W24913  14.305  10.910  11.502  0.2096 -0.0103 -0.2062
 8730W        W24914  11.663   7.119   0.343 -0.0369 -0.0816  0.1727
 8731W        W24915   2.887  13.359  16.219 -0.1101  0.0890 -0.1606
 8732W        W24916   7.945  13.602   0.052 -0.0582 -0.0742  0.0341
 8733W        W24917   6.383   6.504   4.009 -0.0412  0.2800 -0.1161
 8734W        W24918   8.977   9.634   0.722 -0.0592 -0.1621  0.0626
 8735W        W24919  12.195   2.599  13.440 -0.0412 -0.1563  0.1867
 8736W        W24920  12.794  11.510  13.952 -0.4336  0.2244 -0.2579
 8737W        W24921  17.745  15.007   3.933 -0.1602  0.1025  0.1938
 8738W        W24922   1.318   0.176  12.350  0.1541  0.1793  0.3276
 8739W        W24923  13.833  17.365   2.241  0.0447  0.2188  0.1368
 8740W        W24924   0.877   4.882  16.168 -0.0698 -0.0261 -0.1712
 8741W        W24925  16.190  11.604   1.491  0.1238 -0.1021 -0.1077
 8742W        W24926   7.561   2.503   2.859  0.0996 -0.0546  0.3342
 8743W        W24927   7.885   3.724   4.058 -0.0159  0.2239 -0.0970
 8744W        W24928   8.838   7.417   6.310 -0.0769  0.0828 -0.0280
 8745W        W24929  14.017   0.584   0.432 -0.0223 -0.1108 -0.0769
 8746W        W24930   7.197   2.277   1.269 -0.0130  0.1220  0.0793
 8747W        W24931   0.717  16.114  16.415 -0.0772 -0.0654 -0.1621
 8748W        W24932   8.586  10.758  12.255 -0.0383  0.0726  0.0279
 8749W        W24933   8.159  16.531  10.863  0.1060 -0.2226  0.0644
 8750W        W24934  13.872  13.152   0.993 -0.0562 -0.0649  0.0055
 8751W        W24935   9.123   7.486   1.919 -0.1389 -0.2061 -0.2914
 8752W        W24936  13.669   1.520  14.578  0.1307  0.0165 -0.1852
 8753W        W24937   5.072  15.981   3.309 -0.1912 -0.1065 -0.3999
 8754W        W24938  11.085   3.590  15.174  0.0638  0.0888 -0.0196
 8755W        W24939   4.964  10.679  14.716  0.0809 -0.1802 -0.1275
 8756W        W24940   3.315   9.526   3.256  0.1502  0.0844  0.0474
 8757W        W24941   7.775  13.152   4.649 -0.0691 -0.3400 -0.2159
 8758W        W24942   4.084  15.502   4.256 -0.3573 -0.1956  0.0280
 8759W        W24943   2.760  12.356   5.930  0.1227  0.0033  0.1482
 8760W        W24944   3.237  11.561   3.844  0.1723 -0.0761  0.1911
 8761W        W24945   0.408   0.120   1.563 -0.0471 -0.1567 -0.3192
 8762W        W24946  14.309  15.842   1.275 -0.2925 -0.0713 -0.2668
 8763W        W24947  14.817  16.939   5.516 -0.0818  0.0220 -0.1682
 8764W        W24948   4.631  16.016   3.134  0.0381  0.2700 -0.0388
 8765W        W24949  11.747   5.066   1.790  0.0420  0.1316  0.0134
 8766W        W24950   2.419  10.997   2.716  0.0114 -0.3142 -0.0716
 8767W        W24951  11.094   6.945  11.373  0.3194  0.2228  0.1470
 8768W        W24952   2.885  13.207  13.544 -0.3341  0.1233  0.1921
 8769W        W24953  15.357  14.209   5.087 -0.0343 -0.0609  0.0250
 8770W        W24954  15.169   9.114   3.668  0.0652 -0.4642  0.1259
 8771W        W24955  10.073  10.040   4.171 -0.0080  0.2659 -0.0014
 8772W        W24956  12.361  14.396  15.064 -0.3620 -0.0224  0.0411
 8773W        W24957   6.160  12.433   2.398 -0.4367 -0.2533 -0.0381
 8774W        W24958   3.179   3.660  12.858  0.1600  0.0380 -0.0422
 8775W        W24959  11.592  15.182   3.186  0.0697  0.0703  0.0607
 8776W        W24960  17.513   0.373   5.650 -0.0722 -0.1788 -0.0088
 8777W        W24961   4.345   5.878   1.349 -0.1567  0.1549  0.1471
 8778W        W24962  13.586   6.150   4.987 -0.2059  0.3478  0.0778
 8779W        W24963  17.729  10.756  15.316  0.1969  0.0108 -0.2646
 8780W        W24964   8.597  17.848   2.196 -0.3164  0.1507 -0.2701
 8781W        W24965  11.089  12.848   1.213 -0.1565  0.0492 -0.3040
 8782W        W24966   0.199  11.541   3.253  0.0092  0.4769  0.1805
 8783W        W24967  14.565  13.905   3.910 -0.2547 -0.0490 -0.0197
 8784W        W24968   4.918   6.200   4.103 -0.0635 -0.1009 -0.0366
 8785W        W24969   9.243  16.287   3.842  0.1897 -0.0497  0.0232
 8786W        W24970   5.800   3.813   1.281 -0.0388  0.1150  0.0517
 8787W        W24971  15.407   1.937   4.461  0.5773  0.2219  0.0769
 8788W        W24972   9.753  15.850  15.905 -0.2498  0.0497  0.2377
 8789W        W24973  15.817  15.684  15.293 -0.0158  0.0959 -0.1893
 8790W        W24974  15.540   9.070   3.116 -0.1509 -0.1341 -0.0722
 8791W        W24975  12.886   3.049  11.191  0.2188  0.0830 -0.0645
 8792W        W24976   0.256   2.026  13.793  0.3975  0.1250 -0.0284
 8793W        W24977  12.093  16.384   5.520 -0.0425  0.1742  0.1394
 8794W        W24978  17.417  16.056   0.308  0.0922  0.2627 -0.2801
 8795W        W24979   9.170   2.702  15.516 -0.1395 -0.0485 -0.0611
 8796W        W24980   6.044  17.949  13.368 -0.1826  0.1204 -0.2417
 8797W        W24981   2.492  10.815  12.237  0.1982  0.1353  0.0659
 8798W        W24982  11.124  16.769   4.566 -0.2024 -0.2444  0.2560
 8799W        W24983  13.242   4.492  12.690  0.1250  0.3016 -0.0689
 8800W        W24984   5.870  16.812   0.878  0.0132 -0.0213  0.0858
 8801W        W24985   8.933  17.872   1.347 -0.3692 -0.0260  0.0930
 8802W        W24986   6.969  13.075   3.874  0.0999  0.1199  0.0716
 8803W        W24987  12.956  12.529  15.935  0.1729  0.1005 -0.0286
 8804W        W24988   9.633   1.804  12.667  0.0554 -0.1271  0.3166
 8805W        W24989  16.002  13.046   4.021 -0.1660  0.1510 -0.1799
 8806W        W24990   7.631   4.687  15.087  0.0631  0.0121 -0.1044
 8807W        W24991   2.335   9.010   0.285  0.1429 -0.0685 -0.0766
 8808W        W24992  17.321   7.977  11.476  0.1706  0.1320  0.0513
 8809W        W24993   5.707   6.203  12.176 -0.0004  0.1232  0.2126
 8810W        W24994  15.193   0.683  16.465 -0.0393  0.0603  0.3246
 8811W        W24995   4.516   4.205   4.182 -0.0805  0.2494  0.0973
 8812W        W24996  16.872  15.532  12.873 -0.0030  0.1314 -0.0093
 8813W        W24997   0.181  10.584  14.261  0.0577  0.0548  0.1346
 8814W        W24998  13.429   2.143   5.816 -0.0170  0.0985  0.1415
 8815W        W24999   9.147  12.755   3.600  0.1846 -0.4364 -0.1030
 8816W        W25000   2.196  13.804   1.286  0.0647  0.1302  0.2246
 8817W        W25001   7.524   3.685  14.037  0.0646 -0.0062  0.0432
 8818W        W25002   0.243  13.497   5.225  0.0804 -0.3273  0.0165
 8819W        W25003   3.150  13.879   2.360 -0.0379  0.1436  0.3000
 8820W        W25004   2.880  14.839   3.479 -0.1252 -0.2393  0.2529
 8821W        W25005  14.060  16.552   5.186 -0.1870 -0.0798 -0.1007
 8822W        W25006   3.636   1.931  14.089  0.0087 -0.0468  0.0597
 8823W        W25007   2.769  16.805  11.683 -0.0913  0.1971  0.0957
 8824W        W25008  10.278   4.519  11.985 -0.1135 -0.0860  0.2346
 8825W        W25009  17.803  17.882   4.467  0.0567  0.2225 -0.0288
 8826W        W25010   6.733  11.181  12.468  0.2380 -0.1879  0.2943
 8827W        W25011   2.662   9.814   5.712 -0.2969 -0.2432 -0.0143
 8828W        W25012  12.831   2.480   4.102 -0.1196 -0.1009  0.1680
 8829W        W25013  17.613  14.838  12.619  0.1211  0.0474 -0.3792
 8830W        W25014   5.358  12.016   2.402  0.0560 -0.0473  0.0310
 8831W        W25015  17.172   3.815   5.624 -0.0176 -0.3634 -0.3051
 8832W        W25016   7.721  16.561  13.107  0.0678  0.0427 -0.1340
 8833W        W25017   1.631  10.501  14.798  0.1160 -0.0106  0.2760
 8834W        W25018  14.333  14.719   2.209 -0.0599  0.1443  0.2960
 8835W        W25019  15.714   5.440   5.309 -0.1043 -0.3127  0.1665
 8836W        W25020  11.585  12.074  13.020 -0.0415 -0.3936  0.2321
 8837W        W25021  16.028   4.945   2.089  0.2440 -0.1786 -0.1881
 8838W        W25022   1.373   9.281  11.184  0.0003 -0.0460 -0.0512
 8839W        W25023   5.209   8.631   4.643  0.1124  0.6046  0.1797
 8840W        W25024  10.818   5.968   2.112  0.3076  0.1212 -0.3646
 8841W        W25025  11.583  17.242  13.196 -0.1993  0.1459 -0.0469
 8842W        W25026   9.113   6.499   4.154  0.0111 -0.1767  0.1826
 8843W        W25027  10.035   5.788   0.321  0.0739 -0.1587 -0.0672
 8844W        W25028   6.256   1.415  12.763 -0.0577  0.0596 -0.2177
 8845W        W25029   3.221  13.788   0.167 -0.0243 -0.1928  0.1931
 8846W        W25030   8.225   4.502  12.341  0.0303  0.0596  0.2605
 8847W        W25031   9.040  14.516  14.785  0.0569  0.2148 -0.1123
 8848W        W25032  17.422   3.699   6.091 -0.2512  0.1835  0.0260
 8849W        W25033  10.108   6.014   3.469 -0.2037 -0.2070  0.0466
 8850W        W25034   3.368   6.477  13.256  0.0879  0.3324  0.0181
 8851W        W25035   9.180  15.472  11.714  0.0998  0.1334 -0.2640
 8852W        W25036   6.523   5.869  13.068  0.1842 -0.0718 -0.0808
 8853W        W25037  15.412   4.850   2.316  0.3955  0.1655 -0.3462
 8854W        W25038  14.565   3.796  16.640  0.0267  0.2064 -0.0697
 8855W        W25039   9.210  12.216   3.923 -0.4303  0.1081  0.0980
 8856W        W25040  10.809  10.728   2.734  0.3793 -0.0617 -0.1432
 8857W        W25041  15.090   1.770  10.011 -0.0094 -0.2200  0.0439
 8858W        W25042  15.671  13.942   0.309 -0.1428 -0.2020 -0.2796
 8859W        W25043   9.079   2.662  13.727  0.0795  0.1949  0.1437
 8860W        W25044  17.528  12.883  12.557 -0.1412  0.2686 -0.2222
 8861W        W25045   8.842  13.325   0.681 -0.1617  0.0950 -0.1974
 8862W        W25046   0.285  15.974  14.037  0.0335  0.0108  0.0848
 8863W        W25047  12.817  14.984  14.367 -0.0334 -0.1233  0.1330
 8864W        W25048   0.535   3.372  14.730 -0.0757  0.1963  0.1101
 8865W        W25049   6.426   9.631   3.230 -0.2404 -0.0619 -0.0204
 8866W        W25050  13.578   1.626   2.910  0.0487 -0.0358  0.0553
 8867W        W25051   8.771  15.062  15.544 -0.1534  0.1220  0.2108
 8868W        W25052   6.519  17.631   0.453  0.2379 -0.4130 -0.0034
 8869W        W25053  12.415  14.819   2.655  0.0120  0.0828  0.2125
 8870W        W25054  16.569   0.197   1.405 -0.1647 -0.0106  0.0258
 8871W        W25055   1.694   4.430   0.551  0.0605 -0.2660 -0.3302
 8872W        W25056   5.818  15.935  12.623 -0.1863 -0.0211 -0.0838
 8873W        W25057  14.701   3.017  11.601 -0.1923 -0.0271 -0.1480
 8874W        W25058  14.886  10.380   0.162 -0.2061 -0.1344  0.4081
 8875W        W25059   6.264  11.764  11.962  0.3452 -0.1677 -0.1627
 8876W        W25060  16.640   5.929   0.360  0.2213  0.2076  0.0183
 8877W        W25061   0.855   9.608   2.145 -0.3323  0.0202  0.0052
 8878W        W25062  17.457   4.770  12.725 -0.0795  0.2513  0.0865
 8879W        W25063   3.799   6.720   4.537 -0.2421 -0.1744  0.1203
 8880W        W25064  17.281   4.294  15.384  0.0207  0.1344  0.0319
 8881W        W25065   6.289   9.281   0.321 -0.3636  0.1415 -0.1007
 8882W        W25066   8.104   4.957   0.279 -0.0016 -0.0156  0.1274
 8883W        W25067  13.372  13.362  14.818  0.2313 -0.1784  0.0682
 8884W        W25068   6.593  13.128   0.126 -0.0326  0.2894  0.1190
 8885W        W25069   3.424  13.659   1.854 -0.0581 -0.2397 -0.0449
 8886W        W25070   2.947  15.769   0.501  0.2154 -0.0915  0.1510
 8887W        W25071   3.759   2.026   0.824  0.0231  0.1070  0.0495
 8888W        W25072  14.168   6.827  14.398 -0.0973  0.0921  0.2302
 8889W        W25073  14.774  14.795  12.716 -0.0047 -0.1440  0.2364
 8890W        W25074   0.031   3.521   5.234 -0.0169  0.1013 -0.1918
 8891W        W25075  10.556   6.421  15.367 -0.0610  0.0975  0.2759
 8892W        W25076  14.124   9.032  16.212  0.0916 -0.2161 -0.2639
 8893W        W25077   6.650   3.624   2.202  0.0607  0.0094 -0.0779
 8894W        W25078  12.324   5.762  14.217  0.2170 -0.2769 -0.2826
 8895W        W25079  11.968  17.232   3.482  0.0181  0.2231  0.4662
 8896W        W25080   0.720  17.218   4.064 -0.0057  0.1740 -0.3584
 8897W        W25081   8.898  13.306  14.346 -0.0169 -0.0594 -0.2487
 8898W        W25082  14.541   9.296   3.782  0.0186 -0.1058 -0.1458
 8899W        W25083   7.939  10.328   1.053 -0.0062  0.0495  0.1799
 8900W        W25084   7.292  11.619   1.624 -0.1986  0.2997 -0.0686
 8901W        W25085   0.309  11.006   3.939 -0.2185  0.0160 -0.0731
 8902W        W25086   1.431  10.645   5.085 -0.1863 -0.1099 -0.1998
 8903W        W25087   4.050  10.342   4.368 -0.1065 -0.1119  0.0173
 8904W        W25088  16.589   1.706  14.339 -0.2373  0.1245 -0.2585
 8905W        W25089  10.083   9.802   5.444  0.4337  0.3403 -0.1604
 8906W        W25090  13.673   2.827  15.286 -0.0187 -0.0200  0.2366
 8907W        W25091   5.131  15.268  13.599 -0.0764  0.2544  0.0063
 8908W        W25092  13.091   1.663  12.385  0.1775  0.0911 -0.1760
 8909W        W25093  10.271   0.529   3.342  0.1336 -0.1209  0.2453
 8910W        W25094   3.263   7.294   4.961  0.3157  0.1913 -0.0396
 8911W        W25095   6.993  11.601  11.893 -0.4123  0.0027  0.1000
 8912W        W25096   1.206   0.382  13.702 -0.2030 -0.0146 -0.0360
 8913W        W25097   2.958   7.626  13.661  0.1516 -0.0162 -0.0396
 8914W        W25098  11.793   7.595   0.373 -0.1347 -0.4614 -0.0164
 8915W        W25099   5.299  12.651  16.389  0.1326 -0.1258  0.0867
 8916W        W25100  13.125  15.095  15.877 -0.0210 -0.2706 -0.0949
 8917W        W25101  10.849   5.659  11.903  0.0159  0.1638  0.2680
 8918W        W25102  10.417   7.453   4.494 -0.1797  0.2177  0.2633
 8919W        W25103   0.090  11.059   0.127 -0.2338  0.3041 -0.0284
 8920W        W25104   6.617  13.328   2.182 -0.0363  0.0420  0.0939
 8921W        W25105  10.312  12.283  13.903  0.1564 -0.0419 -0.2078
 8922W        W25106   4.087  16.967  13.490 -0.2167  0.0221 -0.0106
 8923W        W25107  13.356   2.540  16.529  0.1739 -0.2358  0.0362
 8924W        W25108  14.985   1.252   3.114  0.2828  0.0024  0.0540
 8925W        W25109   1.355  10.638  16.261 -0.1458 -0.1929 -0.1074
 8926W        W25110   8.439  16.112  16.080 -0.1106  0.1105 -0.0272
 8927W        W25111   7.310  14.697  15.196 -0.1555  0.0177  0.0613
 8928W        W25112  11.580   5.240   3.322 -0.0978  0.0056  0.0403
 8929W        W25113   4.903   3.743   1.659  0.0034  0.0762  0.2061
 8930W        W25114  13.304  15.367  10.930  0.2711 -0.1053 -0.3183
 8931W        W25115   2.210  11.953  12.905  0.0120 -0.1080 -0.2572
 8932W        W25116   8.126  11.704  12.083  0.2673  0.1716  0.0891
 8933W        W25117  15.034   2.548   1.598  0.2167 -0.0859 -0.0999
 8934W        W25118   1.372   7.911   4.264  0.2212 -0.0898  0.1349
 8935W        W25119  16.281  13.539  12.155 -0.0926 -0.1883 -0.0997
 8936W        W25120   0.436  14.148   2.076  0.0905 -0.0434  0.1227
 8937W        W25121  15.092   1.401  14.071  0.0561  0.2384  0.0701
 8938W        W25122  13.630  16.789  12.284  0.2329  0.1004 -0.1082
 8939W        W25123  14.136   7.318  13.157  0.3252  0.0147  0.0774
 8940W        W25124  14.420   8.935   0.200  0.2080  0.1501 -0.2990
 8941W        W25125   8.681   7.117   2.814  0.1538 -0.2732  0.0357
 8942W        W25126  13.637  12.432   4.063  0.1788  0.1437 -0.2668
 8943W        W25127  13.129   1.177  16.229  0.0434  0.2646  0.0879
 8944W        W25128   3.713   4.068   5.284 -0.0038  0.1221 -0.0069
 8945W        W25129   9.240  14.926  13.894 -0.0449  0.0442 -0.1765
 8946W        W25130   1.185  15.399  12.256  0.0524  0.1077  0.1613
 8947W        W25131   6.033   1.551   1.972 -0.1082  0.1757  0.2075
 8948W        W25132  13.534   4.648  11.778  0.1185 -0.5506  0.1457
 8949W        W25133   7.459   0.608  13.268  0.1643  0.1252  0.1568
 8950W        W25134   2.866   2.348  15.873 -0.1789  0.1508  0.3747
 8951W        W25135   6.100   1.147   1.095  0.2641  0.1548  0.0806
 8952W        W25136   3.274   8.321   2.225  0.2465 -0.0905 -0.1466
 8953W        W25137  17.459   8.428   2.634  0.0531 -0.1350  0.0157
 8954W        W25138  13.966  10.709  12.285  0.1864  0.0430 -0.0672
 8955W        W25139   9.879   8.355  15.086  0.2917  0.3736 -0.2790
 8956W        W25140  17.529   2.260  11.796  0.0281  0.3414  0.0040
 8957W        W25141  16.665   9.287   2.493  0.0896  0.1387  0.1758
 8958W        W25142   2.857  12.096  15.871 -0.0883 -0.2614  0.2810
 8959W        W25143  11.813   4.156   0.239  0.0166 -0.0732  0.2822
 8960W        W25144  15.268   2.439  15.491  0.0148  0.0745  0.0582
 8961W        W25145  14.026  15.255  13.252 -0.0559  0.1612 -0.2728
 8962W        W25146  11.646  17.810  11.924 -0.0642 -0.2417  0.2003
 8963W        W25147   5.146  12.932   2.410 -0.0552  0.1500 -0.1451
 8964W        W25148  16.060  14.780  13.884 -0.1719  0.2121 -0.2118
 8965W        W25149  15.733  14.281   2.122  0.1610  0.2085 -0.1369
 8966W        W25150   0.541   7.257  13.788  0.1359 -0.1224  0.0120
 8967W        W25151  14.648   6.704  15.862 -0.0084  0.0260  0.2006
 8968W        W25152  17.441  16.668   1.705 -0.1935  0.0303 -0.0570
 8969W        W25153  10.874  15.197  12.970 -0.0139 -0.0419 -0.0613
 8970W        W25154  14.623  16.604  15.349  0.3283 -0.4852  0.1935
 8971W        W25155   7.771  13.053  12.247  0.1696 -0.2297  0.0129
 8972W        W25156   9.516   5.769  13.428  0.1162 -0.2124 -0.2011
 8973W        W25157   5.895  17.338  15.945 -0.0436 -0.1628  0.2268
 8974W        W25158  10.959   4.595   3.565  0.0019  0.0641 -0.2444
 8975W        W25159   5.079   6.115  12.139  0.2273 -0.1800  0.1564
 8976W        W25160  13.539   2.208   3.044 -0.0911  0.0328  0.2777
 8977W        W25161   4.379  16.594   4.624 -0.5163 -0.1302  0.1447
 8978W        W25162   2.754   9.156   4.477  0.0902  0.0597  0.1567
 8979W        W25163   8.239   6.983  12.867 -0.0553  0.0568 -0.3099
 8980W        W25164   6.426   5.455   5.555 -0.2614 -0.2320  0.1485
 8981W        W25165   9.533  10.525   0.066 -0.1172  0.0437 -0.1041
 8982W        W25166  12.132   9.472   2.081  0.0745 -0.1864 -0.1763
 8983W        W25167  13.388   9.776   1.151  0.2658  0.0679  0.2468
 8984W        W25168  12.004  16.581  12.814 -0.0631  0.2275  0.0921
 8985W        W25169   1.002   9.306   0.145  0.0445  0.0095  0.1842
 8986W        W25170  14.708  10.892   5.003 -0.5974 -0.2789  0.0480
 8987W        W25171  14.568   7.113   0.290 -0.4070 -0.2209  0.1137
 8988W        W25172   4.852  17.776  16.683  0.0971  0.1468  0.2712
 8989W        W25173   3.283   3.747   4.608 -0.1367  0.1462 -0.1597
 8990W        W25174  15.766   0.393   3.782  0.1169 -0.0015  0.0152
 8991W        W25175   1.175   1.936   0.376  0.0715  0.3656  0.0572
 8992W        W25176   6.996   3.421  14.277  0.1314  0.2611 -0.0460
 8993W        W25177   0.280  10.466  13.089 -0.0690  0.1475  0.2878
 8994W        W25178   0.812   8.361  16.223 -0.1892 -0.0811 -0.0428
 8995W        W25179   4.071  11.676  14.138  0.0114 -0.1780  0.0397
 8996W        W25180   3.968  17.715   1.527 -0.1154  0.2122 -0.0986
 8997W        W25181   9.164   2.248   3.593  0.2144 -0.2392  0.2160
 8998W        W25182   0.151  16.158   3.353  0.0695  0.0920 -0.2194
 8999W        W25183   3.068  13.474   3.921 -0.1116 -0.0251 -0.1343
 9000W        W25184  11.748   5.722  12.743  0.0688  0.1890 -0.1676
 9001W        W25185  13.766   7.033  13.042 -0.2979 -0.1758  0.1098
 9002W        W25186   4.485   7.613  15.710  0.1171  0.1780 -0.1779
 9003W        W25187   4.160  15.063   3.452 -0.3546  0.0139  0.2583
 9004W        W25188  15.477  16.082   1.937  0.1082  0.0961  0.0144
 9005W        W25189   2.083  10.404   4.491 -0.1422 -0.2654 -0.0634
 9006W        W25190   7.748   1.984   5.377  0.1493 -0.1549 -0.0580
 9007W        W25191  13.639   1.337   0.824  0.4210 -0.2379  0.0069
 9008W        W25192  12.176  13.320  14.317 -0.2290 -0.0812  0.0703
 9009W        W25193  15.290  13.866  16.108 -0.2752  0.2113 -0.3708
 9010W        W25194  14.589  14.339   1.133  0.1909 -0.1332 -0.1402
 9011W        W25195   2.329   7.045  16.130 -0.1191  0.1988 -0.0731
 9012W        W25196  11.338  12.802   5.479  0.0313  0.0548  0.0372
 9013W        W25197   1.350   5.596   2.231  0.0581  0.2368  0.0295
 9014W        W25198  15.215  15.126   0.238  0.3573 -0.2791  0.0197
 9015W        W25199  17.411   8.694   0.455 -0.0745 -0.1210  0.0548
 9016W        W25200  11.942   0.124  11.593 -0.1034 -0.1011 -0.2504
 9017W        W25201   0.416   6.911   6.004  0.0706 -0.1520  0.0265
 9018W        W25202  11.168  17.071   0.985  0.0986 -0.0250 -0.1134
 9019W        W25203   0.457   7.577  15.360 -0.0031  0.0677 -0.1043
 9020W        W25204   1.799  15.101   5.635 -0.2720 -0.3241  0.2010
 9021W        W25205   9.698  15.101   5.202 -0.2125  0.1652  0.0192
 9022W        W25206  17.619   2.302  10.339  0.0181 -0.0442 -0.0859
 9023W        W25207   6.784  11.711  12.322 -0.1436 -0.1589  0.1808
 9024W        W25208  14.425   1.957   3.069  0.1159 -0.2279 -0.1979
 9025W        W25209   0.320  12.253  14.371  0.0070 -0.0144 -0.0831
 9026W        W25210  13.514  10.423  11.929  0.2140 -0.0668 -0.0871
 9027W        W25211   6.343  13.979  16.239  0.1539 -0.0543 -0.3187
 9028W        W25212   7.588   1.501   5.181 -0.0816 -0.0349 -0.1805
 9029W        W25213   9.680   8.378  16.226  0.0705  0.4125 -0.0696
 9030W        W25214   5.714  16.524   4.482  0.0375  0.3842  0.2907
 9031W        W25215   1.640   6.287   2.466  0.1701  0.1228  0.2826
 9032W        W25216  14.654   7.460  15.534  0.1759 -0.0010 -0.1014
 9033W        W25217  16.776  10.317  16.443 -0.2189  0.2754  0.0530
 9034W        W25218   5.214  16.060  16.681 -0.0716 -0.2634  0.1041
 9035W        W25219   9.637   7.897  16.073 -0.0605  0.1111  0.1020
 9036W        W25220   4.318   5.274  14.330  0.1847 -0.0204  0.0739
 9037W        W25221  16.281  17.436   5.380 -0.1826 -0.0922  0.0050
 9038W        W25222   5.118   9.420   3.700 -0.1525 -0.0280 -0.2566
 9039W        W25223  15.871   6.472  12.149  0.0906  0.1033  0.1850
 9040W        W25224  16.879  11.581  16.255 -0.2362 -0.1998  0.1100
 9041W        W25225   6.852  16.030   1.771 -0.2805  0.0848 -0.0379
 9042W        W25226  14.019  10.439   1.175  0.0402  0.0741  0.2453
 9043W        W25227   8.846  15.501  15.198  0.1390  0.2338 -0.0444
 9044W        W25228  16.959   1.756  14.651  0.1730  0.2468 -0.0441
 9045W        W25229   4.426  13.021   1.328  0.0304 -0.1755 -0.1324
 9046W        W25230  12.020  12.314   3.938 -0.1046  0.1793 -0.0612
 9047W        W25231   4.836   4.567  11.927 -0.0614  0.0995  0.1171
 9048W        W25232  14.363  15.810   0.376 -0.0773 -0.3206 -0.3729
 9049W        W25233  17.410   5.526  13.341  0.0634  0.1520 -0.1049
 9050W        W25234  10.855  10.342   3.308  0.0434  0.1838 -0.1784
 9051W        W25235  17.524  17.898  12.962  0.0755  0.3562  0.0332
 9052W        W25236   0.303   4.550   1.613 -0.1714  0.2884 -0.2209
 9053W        W25237   2.412  16.904   0.723 -0.0999  0.2701  0.1543
 9054W        W25238  16.775   7.628  12.465  0.0968 -0.2666  0.2433
 9055W        W25239   0.588   5.814   6.080  0.3774  0.0972  0.3026
 9056W        W25240   9.820  10.474   3.974 -0.0606  0.1663  0.3733
 9057W        W25241   6.505   7.185  16.095  0.0963 -0.3495  0.1545
 9058W        W25242   4.245   4.671   6.074  0.1881  0.1265  0.1365
 9059W        W25243   7.579  11.686   5.832  0.7278  0.1692  0.0229
 9060W        W25244  12.103  14.894   2.260 -0.0929  0.2057 -0.2434
 9061W        W25245   2.778   0.087  14.393  0.0778 -0.2112  0.1196
 9062W        W25246  10.065  14.468  13.744 -0.3052  0.1430 -0.1276
 9063W        W25247  13.932   0.940  12.871  0.0639  0.0300 -0.2434
 9064W        W25248  11.123  13.866  14.899 -0.0500  0.0801 -0.1388
 9065W        W25249  15.738   9.930   3.400  0.1033 -0.1295 -0.2714
 9066W        W25250   8.464   0.973   3.401 -0.1427 -0.0425 -0.2258
 9067W        W25251   1.733  11.172  13.441 -0.4166 -0.2195  0.5180
 9068W        W25252  12.730   2.446   1.068  0.1616  0.0368 -0.2300
 9069W        W25253  16.360  10.007   1.142  0.0584 -0.0894  0.1180
 9070W        W25254  13.952  14.080  14.152  0.2507 -0.0167  0.2550
 9071W        W25255  11.149   9.313  11.819  0.2253 -0.0112  0.0713
 9072W        W25256   4.477  12.513  13.545 -0.1913 -0.1373 -0.3928
 9073W        W25257  17.547  16.555   0.361 -0.2447  0.4036  0.0424
 9074W        W25258  13.265   2.116   4.474 -0.0086 -0.2312 -0.0137
 9075W        W25259  14.243   0.174   1.097  0.0002 -0.0544  0.2494
 9076W        W25260   2.715   5.854  16.590 -0.0749  0.0992  0.0280
 9077W        W25261  11.030   1.652   3.277  0.3655 -0.1015  0.0304
 9078W        W25262   9.102   7.313   0.104 -0.2112 -0.3403  0.1170
 9079W        W25263  15.195   0.588  14.046  0.0094  0.0476 -0.0831
 9080W        W25264  12.348   6.008  13.793  0.2255 -0.0385 -0.0718
 9081W        W25265  13.105   3.893   5.706  0.0373  0.4035  0.1543
 9082W        W25266   1.227   9.885  13.768  0.0602  0.1066  0.4616
 9083W        W25267  17.979  16.748  14.016  0.3705  0.1311 -0.0472
 9084W        W25268  10.226   1.821  15.709 -0.0206 -0.2504 -0.1288
 9085W        W25269   1.321  11.249   2.901  0.1467 -0.0624 -0.1340
 9086W        W25270  10.033   9.410   3.067  0.2426 -0.0024 -0.2752
 9087W        W25271   0.547   4.298   2.252  0.1300  0.0277  0.1119
 9088W        W25272   4.440   2.606  12.699  0.0558 -0.2528  0.1019
 9089W        W25273   5.968  17.960  12.809  0.0848 -0.0889 -0.1101
 9090W        W25274  16.165   2.538   3.733 -0.1874  0.1479  0.0812
 9091W        W25275   3.885  15.028  15.734  0.0665 -0.0676 -0.3159
 9092W        W25276  17.080  14.547  15.070 -0.0370 -0.4328 -0.2080
 9093W        W25277   2.544  15.071  11.733 -0.0088  0.1362 -0.0096
 9094W        W25278   7.445  11.849   5.145 -0.0703 -0.1172  0.0957
 9095W        W25279  15.437  11.790  12.712 -0.3307 -0.1022  0.1722
 9096W        W25280  17.296  12.639   1.041  0.0109  0.0375  0.0147
 9097W        W25281  12.376  16.908   1.770  0.1368  0.0507  0.0203
 9098W        W25282   0.668  13.630   2.107  0.0978 -0.0697 -0.4454
 9099W        W25283  13.492   5.558   4.757 -0.2178  0.0838  0.0841
 9100W        W25284  15.985  11.197   4.410  0.0797 -0.0146  0.0337
 9101W        W25285  13.440  14.382  12.205  0.2644  0.2023 -0.1167
 9102W        W25286  15.160   9.623  13.554  0.1323 -0.0606  0.2333
 9103W        W25287   1.190  11.616  12.153 -0.2269  0.2262 -0.0675
 9104W        W25288  11.499   0.668   4.557  0.2820  0.2306  0.0068
 9105W        W25289  13.140   7.049   0.626  0.1273 -0.2252  0.2792
 9106W        W25290  15.286   4.021  11.579  0.1169  0.0578 -0.1731
 9107W        W25291  15.459  11.504   2.572 -0.1595  0.3299 -0.3058
 9108W        W25292  15.976   5.620  14.208  0.1953 -0.2491 -0.1587
 9109W        W25293   4.277   9.603   1.395 -0.0714 -0.2011  0.3210
 9110W        W25294   3.168   6.718  14.875  0.2036 -0.0252 -0.0175
 9111W        W25295  14.835   3.300   2.868  0.0344  0.2390  0.3447
 9112W        W25296   4.653   1.432  13.487 -0.0350  0.1571  0.3940
 9113W        W25297   2.161   4.537   5.038 -0.2427  0.2954  0.1379
 9114W        W25298   6.729  13.955  14.991  0.1151  0.1013 -0.0067
 9115W        W25299  13.232   8.900  16.373  0.0612  0.0261 -0.1259
 9116W        W25300   4.890   5.364   5.985 -0.0031 -0.4015  0.0458
 9117W        W25301  17.038  17.799   5.701 -0.1411 -0.0273  0.2259
 9118W        W25302  17.219   2.698  14.896 -0.2654  0.0108 -0.2367
 9119W        W25303   2.342  14.012   4.992 -0.3378 -0.2306 -0.1075
 9120W        W25304  11.286  14.504  15.025  0.2068  0.0168  0.1358
 9121W        W25305   7.416   2.424   1.717 -0.1576 -0.2103 -0.1828
 9122W        W25306   6.766   0.304  16.280 -0.1395  0.2115 -0.0180
 9123W        W25307  14.001   1.061  11.577  0.2344  0.1058 -0.2209
 9124W        W25308   2.190  14.584   3.729  0.0576 -0.0329 -0.1252
 9125W        W25309  17.937   9.967   3.590 -0.2479 -0.0083 -0.1065
 9126W        W25310   7.907   2.202   2.522 -0.2209 -0.1170  0.2257
 9127W        W25311   4.528   0.323  14.133 -0.2129  0.1938 -0.2268
 9128W        W25312  17.153   4.358   4.774  0.3103 -0.3135  0.0966
 9129W        W25313   0.802   6.039   0.413  0.0400  0.0159 -0.0158
 9130W        W25314   4.093  17.466  12.393  0.0735  0.2707  0.1041
 9131W        W25315   6.809   9.142   0.316 -0.0608  0.3046  0.0916
 9132W        W25316   0.608   1.637  11.819 -0.3162  0.1714  0.0161
 9133W        W25317   6.365   6.492  15.009 -0.1273  0.1782  0.0134
 9134W        W25318   0.341  15.391   1.448  0.2904  0.2662  0.3293
 9135W        W25319   6.430   2.747   1.028 -0.1060  0.2337  0.1787
 9136W        W25320  10.290  15.310  14.309 -0.3787  0.0559 -0.1338
 9137W        W25321   2.875   3.306  16.602 -0.0479  0.0346  0.1606
 9138W        W25322   2.654  15.749   3.750 -0.1601 -0.0472 -0.0780
 9139W        W25323  15.009  12.586   4.733 -0.1661 -0.1983 -0.0908
 9140W        W25324   6.758   1.350  15.019  0.1539 -0.0778  0.3038
 9141W        W25325  12.161   2.267  12.033 -0.0407  0.0881 -0.2149
 9142W        W25326   3.859   1.873  13.562  0.1572  0.0479 -0.2225
 9143W        W25327   7.437  10.414   1.189  0.3092 -0.2887 -0.0599
 9144W        W25328  10.921   9.422   5.181 -0.1537  0.2310 -0.1480
 9145W        W25329  14.331   9.105   5.721  0.0252 -0.3472 -0.3259
 9146W        W25330   0.795  11.855  15.328 -0.1771  0.2834 -0.0414
 9147W        W25331  14.641   2.268   3.920  0.2142  0.0347  0.0146
 9148W        W25332   5.079  16.925   0.545 -0.2579  0.1378  0.1631
 9149W        W25333   6.477  14.514   6.492  0.0772 -0.1044 -0.0736
 9150W        W25334   8.422  17.781   1.206 -0.2620 -0.0061 -0.3581
 9151W        W25335   8.866   2.556  12.376 -0.0060  0.1514  0.0349
 9152W        W25336   5.101  11.775  14.685  0.0982 -0.0415  0.0146
 9153W        W25337  10.078  12.022  13.504 -0.1520  0.1232  0.0664
 9154W        W25338   5.045  15.880  11.400 -0.2572  0.0263  0.1930
 9155W        W25339   2.287   6.587   2.028  0.2417 -0.1335  0.0326
 9156W        W25340   6.828   0.013  12.295  0.1149 -0.3576 -0.1788
 9157W        W25341  15.991   9.196   3.372  0.1836 -0.2507 -0.2709
 9158W        W25342   5.180  10.444  11.942 -0.2256  0.0627  0.2864
 9159W        W25343   7.275  16.995   4.137 -0.0189 -0.1907 -0.4383
 9160W        W25344   7.555   2.423  11.884 -0.1079  0.1394 -0.0111
 9161W        W25345  15.504   9.177  12.216 -0.2179 -0.0863 -0.0162
 9162W        W25346  11.475   4.066  11.627  0.2944 -0.3167 -0.1252
 9163W        W25347   3.240  10.680   6.142  0.1250 -0.0088 -0.1695
 9164W        W25348   1.991   6.700  15.705  0.0020 -0.0982 -0.0346
 9165W        W25349  12.505   1.504   4.122  0.1348 -0.1466 -0.0018
 9166W        W25350   8.669   4.488  12.569 -0.1221 -0.1290  0.1136
 9167W        W25351  15.609  12.026   0.133 -0.1048 -0.0078 -0.0724
 9168W        W25352  13.410  15.406   3.243  0.0521 -0.1240 -0.1993
 9169W        W25353  16.215   2.342   1.725  0.1494  0.0811 -0.0546
 9170W        W25354  11.188   3.423   2.517 -0.1134 -0.1747  0.1126
 9171W        W25355   6.702  11.200   2.225 -0.0707 -0.0705 -0.2503
 9172W        W25356   1.698   8.405   4.128 -0.3423  0.1453 -0.3740
 9173W        W25357   8.500   9.144  15.191  0.1690  0.0351 -0.0446
 9174W        W25358   7.599  17.128   0.874  0.0053  0.1954 -0.2824
 9175W        W25359   9.418  10.630   3.031 -0.1160 -0.0251  0.0355
 9176W        W25360   0.084  11.854   2.229  0.1618 -0.1647 -0.4068
 9177W        W25361  16.144   7.146  14.634 -0.0662 -0.0679 -0.0771
 9178W        W25362  10.822   8.428  13.612 -0.1327 -0.2608  0.2100
 9179W        W25363   4.843   0.153   4.906  0.0339 -0.2075  0.2019
 9180W        W25364  14.523   2.733   3.749  0.0521  0.1107 -0.1426
 9181W        W25365  14.412  17.796  12.706  0.0461  0.4439  0.2247
 9182W        W25366   2.096   4.198   3.381  0.1168 -0.2094  0.1850
 9183W        W25367  12.612  13.871   4.804  0.1480  0.1227 -0.1083
 9184W        W25368   2.139  14.345  15.305 -0.0449 -0.0771 -0.1990
 9185W        W25369   4.170   1.871  11.587  0.1811 -0.1966  0.0119
 9186W        W25370  17.292   6.481   0.566 -0.1432 -0.0074  0.0831
 9187W        W25371   2.446   2.587  13.882 -0.0396  0.2753  0.0678
 9188W        W25372   2.593  11.589  15.938  0.1363 -0.3364  0.2439
 9189W        W25373   0.678   3.062  13.971 -0.1132 -0.4884  0.0557
 9190W        W25374  17.432   1.572  12.835 -0.5096  0.0831  0.1548
 9191W        W25375  12.759  16.613  15.946 -0.0673  0.0984 -0.0547
 9192W        W25376  11.840   3.876  15.592 -0.2200 -0.2147  0.1111
 9193W        W25377   5.436  16.314   5.264  0.2185  0.0312  0.1350
 9194W        W25378  15.492   2.219  13.815  0.0754 -0.0150 -0.2561
 9195W        W25379   7.031   3.064   1.566  0.3284  0.0603  0.1740
 9196W        W25380   1.139   0.027   6.326 -0.0565 -0.0362  0.3027
 9197W        W25381  10.600   2.757   4.811 -0.2396 -0.2642 -0.2241
 9198W        W25382  15.680  10.982  15.349  0.0906 -0.0834 -0.0689
 9199W        W25383  13.902   2.969  14.212  0.1444 -0.2129  0.6066
 9200W        W25384  10.702  17.743   0.865 -0.0350 -0.0978  0.0286
 9201W        W25385   6.418   0.481   1.158  0.2267  0.0883  0.2859
 9202W        W25386   6.164   4.723   0.833  0.1950 -0.1582 -0.0519
 9203W        W25387  11.338  13.087   1.604 -0.3290  0.1364 -0.2597
 9204W        W25388  12.196   9.561   4.335  0.0368  0.0315 -0.0597
 9205W        W25389   4.213   4.306   0.304 -0.0354 -0.2019 -0.0128
 9206W        W25390   3.565  15.228   3.514 -0.1447  0.3404  0.0733
 9207W        W25391   7.129   9.882   4.401 -0.0852  0.2237  0.1233
 9208W        W25392  16.246  15.787  14.293 -0.3142  0.0735  0.1280
 9209W        W25393  12.150  11.020   0.947  0.3981  0.0099  0.1070
 9210W        W25394  10.048   6.646  14.631 -0.4024  0.1970 -0.0686
 9211W        W25395   6.113   7.485   1.911 -0.3172  0.1916  0.0610
 9212W        W25396   2.641   5.779   2.856  0.2040  0.2051  0.0123
 9213W        W25397   2.398   4.642   6.608  0.0560  0.0387  0.0140
 9214W        W25398   2.296   5.654   4.514  0.1802 -0.1742  0.1638
 9215W        W25399   8.871  14.384   4.184 -0.1028  0.1428 -0.0121
 9216W        W25400  15.401   4.156   1.150  0.1815  0.0989 -0.1601
 9217W        W25401  10.432  11.038   0.598  0.0956 -0.1001 -0.2898
 9218W        W25402  10.614  14.516  11.783 -0.3017  0.1465 -0.0292
 9219W        W25403   7.591  17.030   0.371 -0.0221 -0.2646  0.1328
 9220W        W25404   2.304  11.715   4.705  0.2199 -0.2115  0.1286
 9221W        W25405   1.238   8.850  15.336 -0.0275  0.2957  0.0135
 9222W        W25406   0.532  15.819  14.424 -0.1548  0.0617 -0.0646
 9223W        W25407  10.314   9.803   1.129  0.2060  0.2427  0.1099
 9224W        W25408  11.687   2.740   0.442 -0.1157  0.0993 -0.2827
 9225W        W25409   1.261   7.183  14.439 -0.3531  0.2849  0.1849
 9226W        W25410   0.104  10.805  13.770 -0.2021  0.0953 -0.0357
 9227W        W25411   9.510  14.952   1.618 -0.1345 -0.0108  0.0579
 9228W        W25412   7.088   1.415   5.056  0.0122 -0.1023  0.1769
 9229W        W25413  17.776   1.685   5.099  0.1890  0.0868  0.0205
 9230W        W25414   7.726  14.622  13.459 -0.1489 -0.1424 -0.3124
 9231W        W25415  12.172  16.774   3.340  0.1013 -0.1741  0.2235
 9232W        W25416  15.675   9.022  15.749 -0.3015 -0.0257 -0.0131
 9233W        W25417   7.033   4.398   3.210  0.1478 -0.0829 -0.2229
 9234W        W25418   7.454   4.367   0.798 -0.0335 -0.1649  0.0011
 9235W        W25419   3.721   7.915   3.256  0.0160 -0.3526  0.3812
 9236W        W25420  13.911   0.900  13.787  0.1443 -0.3427  0.0276
 9237W        W25421  12.816   7.184  12.708 -0.2272  0.1280  0.1137
 9238W        W25422  11.488  13.542   1.391  0.1618 -0.0361 -0.1372
 9239W        W25423   3.846   2.694   4.166 -0.1726  0.1636 -0.0122
 9240W        W25424   1.540  15.069  15.477 -0.2877 -0.0192  0.1903
 9241W        W25425  14.676  16.846   1.220 -0.3290  0.2744 -0.2767
 9242W        W25426  15.413   4.478  10.538 -0.0900  0.1479  0.0119
 9243W        W25427   6.884   3.202  13.149 -0.1968 -0.0487 -0.1713
 9244W        W25428   7.025  11.390  13.954 -0.0441  0.2102 -0.0132
 9245W        W25429   3.106   7.534   2.445 -0.1617 -0.0598  0.2573
 9246W        W25430   2.233  16.942   0.205  0.2545  0.1537  0.0463
 9247W        W25431  12.790   2.951   1.096  0.0252 -0.1031  0.1654
 9248W        W25432   4.665  16.644   2.088  0.2617 -0.1289  0.2474
 9249W        W25433  16.750  14.195   0.593  0.0162 -0.0100  0.2507
 9250W        W25434   3.020  13.647   0.566  0.0456  0.2874  0.1733
 9251W        W25435   6.020  10.681  13.576  0.2176 -0.0399  0.0615
 9252W        W25436  13.520   0.293  11.459  0.2290 -0.1928  0.0758
 9253W        W25437   7.335   1.540   4.569 -0.0603 -0.0747  0.0130
 9254W        W25438   3.291  11.398   1.352  0.0844 -0.0173  0.0494
 9255W        W25439   1.895   9.902   1.188 -0.1729 -0.3917 -0.1341
 9256W        W25440  12.609  16.022   3.513 -0.2601 -0.0415  0.0563
 9257W        W25441   9.394  10.030  12.219  0.0053 -0.3027  0.1082
 9258W        W25442   3.188  10.511   3.806 -0.0859 -0.0062  0.0994
 9259W        W25443  10.504   3.735   0.689 -0.3649 -0.2239 -0.1739
 9260W        W25444   8.154  16.184  16.520 -0.3119  0.1372  0.0211
 9261W        W25445   8.955   2.250  13.319  0.1779  0.3090 -0.1195
 9262W        W25446   6.916   0.174   4.732  0.0557 -0.2702  0.1959
 9263W        W25447   5.953   6.372   4.504 -0.0768  0.1320 -0.1123
 9264W        W25448   6.250   5.545  14.729  0.0068 -0.0694  0.0061
 9265W        W25449   1.853   0.186  14.341 -0.0358 -0.0574 -0.0210
 9266W        W25450  11.244   9.411  12.595  0.0156  0.0277  0.0445
 9267W        W25451   9.510  17.695   2.970  0.1548 -0.0407 -0.0292
 9268W        W25452  17.247  15.285   3.705  0.0891 -0.1570 -0.2527
 9269W        W25453   9.325  12.499   1.077  0.0119  0.1343 -0.1870
 9270W        W25454  17.678   9.288   5.877  0.1417  0.0457 -0.0548
 9271W        W25455  11.755  12.506  14.032 -0.0485  0.2892 -0.0846
 9272W        W25456   6.292  17.247   4.828 -0.0661  0.0042  0.4140
 9273W        W25457   0.194   2.924  14.836 -0.1331  0.2588 -0.1459
 9274W        W25458  16.417  14.894  14.211 -0.2233 -0.1371  0.1923
 9275W        W25459   6.555   1.032   0.735 -0.1879 -0.0014  0.0354
 9276W        W25460   7.935   2.537   1.606 -0.0765 -0.1065  0.0454
 9277W        W25461   8.419  14.167   0.954 -0.0521 -0.0036 -0.0826
 9278W        W25462   6.740   4.274   5.599 -0.1626 -0.2090 -0.1457
 9279W        W25463   7.445  11.731  14.776 -0.0400 -0.2348  0.1450
 9280W        W25464   7.842   9.640   2.225 -0.1444  0.0389  0.0121
 9281W        W25465   3.561  11.707   5.377 -0.2121  0.0524 -0.1839
 9282W        W25466   0.882   6.451  11.836 -0.1204 -0.1240 -0.2729
 9283W        W25467   2.380  17.529  11.435  0.1551  0.2235  0.1350
 9284W        W25468  15.372   0.967   0.879 -0.1722 -0.4284 -0.0065
 9285W        W25469   1.982  11.908  14.676 -0.0554  0.1410 -0.3835
 9286W        W25470   9.212  12.206  12.314 -0.2846  0.0636  0.1488
 9287W        W25471  11.649   6.934   4.698  0.0960 -0.2280  0.0305
 9288W        W25472  15.831  13.997   1.712  0.1008 -0.0576 -0.1138
 9289W        W25473   2.329  13.159  13.503 -0.1363  0.3270 -0.0341
 9290W        W25474  15.093   4.625   1.891  0.1642 -0.0540 -0.1369
 9291W        W25475  16.022  10.928   4.824 -0.1111  0.1950  0.1584
 9292W        W25476   4.031  12.953   5.877  0.1437  0.0341 -0.2180
 9293W        W25477  12.785   2.404  14.149  0.0810 -0.2750 -0.0242
 9294W        W25478  15.345  14.913  11.366 -0.0466 -0.1969  0.0247
 9295W        W25479   8.652   3.764  11.762 -0.1550  0.0803  0.1181
 9296W        W25480   8.999  11.038  12.381  0.1420 -0.1885 -0.2009
 9297W        W25481   4.363   4.375  13.768  0.1546 -0.2126  0.2686
 9298W        W25482   9.311  11.337   0.799 -0.0569  0.1064 -0.2310
 9299W        W25483   3.714   5.581   2.059  0.2972  0.1322 -0.2247
 9300W        W25484   6.040  13.159   4.652  0.0151  0.1482 -0.0266
 9301W        W25485   4.810   3.541  12.141 -0.0464  0.0555  0.1901
 9302W        W25486   6.826  15.499   4.614 -0.1471  0.0027 -0.1744
 9303W        W25487   7.151  12.950  13.006  0.0220  0.1187 -0.1973
 9304W        W25488   1.840  12.525  13.933 -0.3734 -0.1165  0.0480
 9305W        W25489  12.207  10.830  16.020 -0.5689  0.2083  0.0001
 9306W        W25490  16.958   2.085   5.369 -0.0482 -0.3150  0.1634
 9307W        W25491  11.614   6.385   1.125 -0.1214  0.4652 -0.0353
 9308W        W25492   0.516   6.676  16.544 -0.0953 -0.1357  0.1003
 9309W        W25493  13.684   5.394  15.758 -0.0882  0.0481 -0.1918
 9310W        W25494  16.032   1.857  15.913 -0.1095  0.0707  0.0388
 9311W        W25495   6.194   1.150   3.872 -0.0343 -0.1049  0.1166
 9312W        W25496   4.609   7.591   2.623 -0.0667  0.0517 -0.2573
 9313W        W25497  11.257   5.040   3.692 -0.3631  0.1546 -0.3197
 9314W        W25498  11.059  13.073   2.039  0.1398  0.1917  0.1245
 9315W        W25499   9.951   5.958   2.521 -0.3159 -0.1901  0.3438
 9316W        W25500  14.409   7.734   1.779  0.0338  0.1275  0.0506
 9317W        W25501  14.444   9.137   3.288  0.2908 -0.0114  0.1322
 9318W        W25502  10.953  13.061  13.013 -0.1827  0.0678 -0.1201
 9319W        W25503   3.877  10.046   3.663  0.0762 -0.1702 -0.0070
 9320W        W25504  17.615   9.360  12.986  0.2768  0.2057  0.0924
 9321W        W25505  16.934  16.202   3.793 -0.0354  0.2114  0.0404
 9322W        W25506  14.250   7.342   4.835  0.2218 -0.1701 -0.0262
 9323W        W25507   9.340  12.038  14.120  0.3400 -0.1193 -0.3085
 9324W        W25508  17.651  16.181  11.310 -0.0174 -0.0931  0.0861
 9325W        W25509   0.940  16.821   1.401 -0.0536  0.0551 -0.0452
 9326W        W25510  11.672   7.799  11.362  0.1094 -0.1410  0.0073
 9327W        W25511   0.871  16.405   4.147 -0.2305  0.1875  0.1418
 9328W        W25512   7.485  14.778   1.863  0.0713  0.1864 -0.0076
 9329W        W25513  15.313  12.848   0.843  0.2511 -0.3570 -0.2095
 9330W        W25514   4.659  11.273  13.895 -0.2250 -0.1984 -0.2129
 9331W        W25515   3.220   7.414  14.234 -0.1071 -0.3589 -0.2027
 9332W        W25516  17.921  15.041  16.200  0.1237  0.3051  0.0719
 9333W        W25517   6.959   9.567  13.390  0.1277  0.3641 -0.1394
 9334W        W25518  15.114  16.471   5.148 -0.0082  0.0174 -0.2422
 9335W        W25519   6.832   5.620  14.092  0.1999  0.0675 -0.0731
 9336W        W25520   9.138  13.022   3.164  0.1212  0.0421  0.4235
 9337W        W25521  14.650   2.673  15.273  0.2626  0.2958 -0.3421
 9338W        W25522   5.971   9.206  12.113  0.2249 -0.2312 -0.0227
 9339W        W25523  13.502  11.009   1.740 -0.2432 -0.0953 -0.2003
 9340W        W25524   1.570  17.001   3.429  0.0684 -0.1714 -0.1311
 9341W        W25525   8.041  16.947  14.237 -0.0261  0.1460 -0.0878
 9342W        W25526  14.629   4.763  14.151  0.3580 -0.2772 -0.3015
 9343W        W25527  16.806  11.306  15.096 -0.5057 -0.1710 -0.1073
 9344W        W25528  11.275  13.168  11.909  0.1544  0.1437 -0.1049
 9345W        W25529  17.783   7.117   5.537 -0.0574 -0.1927  0.1231
 9346W        W25530  10.291  14.390  14.767 -0.0361 -0.3371  0.2345
 9347W        W25531  15.077  14.508  13.884 -0.0398 -0.0708  0.0693
 9348W        W25532   4.785   5.028   4.139 -0.0707 -0.0153  0.1008
 9349W        W25533  17.793   1.190  11.688  0.0272  0.0537 -0.1566
 9350W        W25534   6.640   8.352   4.093  0.0741  0.2807 -0.3026
 9351W        W25535  13.810   1.878   5.544 -0.4325  0.0218 -0.0279
 9352W        W25536   6.642  11.114   2.850  0.0561 -0.0467  0.3159
 9353W        W25537   1.613   8.914   2.734  0.1090  0.1038 -0.0637
 9354W        W25538   8.586   8.335   3.686 -0.0772  0.2406 -0.0403
 9355W        W25539  10.823  11.168  11.893 -0.0333  0.0971  0.0230
 9356W        W25540  16.096  12.489   4.984 -0.2213  0.2137  0.0479
 9357W        W25541   6.174   9.745  15.160  0.2598  0.1219  0.0693
 9358W        W25542  10.691   9.724   3.513  0.4962 -0.0235 -0.0785
 9359W        W25543  14.433   0.306  12.600  0.1409 -0.3059 -0.1027
 9360W        W25544  12.122   1.954   4.742 -0.0203 -0.1831 -0.1927
 9361W        W25545   8.172  14.345  14.660 -0.4055  0.1276 -0.3125
 9362W        W25546   2.927   6.095  15.964  0.0677 -0.0170  0.1051
 9363W        W25547  11.752   9.612  16.210 -0.0015 -0.1277  0.2183
 9364W        W25548  16.475  17.699   1.793  0.0858 -0.0984  0.2060
 9365W        W25549   3.318  13.015  16.078  0.1291 -0.2168 -0.0510
 9366W        W25550  16.676  11.704  15.381  0.1851  0.2131 -0.1684
 9367W        W25551   4.763   7.785   4.879 -0.1029  0.2525  0.2688
 9368W        W25552  11.522   0.031  12.848 -0.0608 -0.0120 -0.2012
 9369W        W25553  12.624  11.039   0.315  0.1050 -0.0331  0.1428
 9370W        W25554  16.767  11.547   0.543 -0.0593 -0.3108  0.2752
 9371W        W25555   7.713   6.169   3.310  0.0854  0.1073 -0.4410
 9372W        W25556  12.429  14.452   4.071  0.0442  0.0755  0.1360
 9373W        W25557  16.892   2.907   1.776 -0.3835  0.0742  0.1736
 9374W        W25558  10.974   8.975   3.955  0.2845  0.1384 -0.3533
 9375W        W25559   2.593  17.917   5.288  0.1450 -0.2869 -0.0753
 9376W        W25560   0.314   8.267   4.598 -0.0674 -0.0335  0.3494
 9377W        W25561   6.840   0.062  14.553 -0.1165 -0.1966  0.0834
 9378W        W25562  13.572   9.393  10.744 -0.1170  0.0501 -0.0026
 9379W        W25563   1.267   3.614   0.657 -0.0447  0.0593 -0.0065
 9380W        W25564  10.333  14.176  15.618  0.2639 -0.0135  0.2015
 9381W        W25565   7.688  14.688   5.142  0.0180  0.0310 -0.2003
 9382W        W25566  14.429  13.379   4.776  0.0091 -0.0393  0.0903
 9383W        W25567  14.043   4.932   0.234 -0.0084  0.0047 -0.2044
 9384W        W25568  15.339  15.400   3.435 -0.1386  0.1351 -0.0853
 9385W        W25569  13.740   8.145  11.630  0.1565 -0.2047  0.0403
 9386W        W25570   8.309   7.041   4.267  0.2208  0.0181 -0.3667
 9387W        W25571  15.005   8.526  15.703  0.0983  0.0216 -0.1440
 9388W        W25572   9.332   4.393  12.848  0.4276  0.2557 -0.1588
 9389W        W25573  14.581  10.703   4.539 -0.2177  0.1870  0.0059
 9390W        W25574   1.369   0.572   0.334 -0.0498  0.0843  0.0443
 9391W        W25575   0.774  10.032   0.566  0.0855 -0.1092 -0.0422
 9392W        W25576   1.222  13.472   4.933 -0.2234  0.3283 -0.2442
 9393W        W25577  12.381   6.030   5.251 -0.6106 -0.3732 -0.0396
 9394W        W25578  17.058  15.868   2.285  0.2602  0.1096 -0.2341
 9395W        W25579  16.271   4.758  12.018  0.1958  0.0857  0.0182
 9396W        W25580   3.063  15.767  15.224 -0.0301  0.0861  0.0856
 9397W        W25581   5.710  11.917  13.014 -0.1993  0.2298  0.2166
 9398W        W25582   2.624  11.183  13.034  0.1038 -0.0197 -0.0338
 9399W        W25583  16.132  15.085   4.383  0.1245 -0.0031 -0.1342
 9400W        W25584   9.689  13.337   1.607 -0.2226 -0.2539  0.0223
 9401W        W25585  16.377  17.544   0.496 -0.0575  0.1232 -0.1096
 9402W        W25586   3.306   2.086  15.820  0.1096  0.1144 -0.1746
 9403W        W25587   9.873   0.952   1.162 -0.1663 -0.1858  0.0954
 9404W        W25588   9.799   5.170   2.067  0.1895  0.3227  0.0441
 9405W        W25589   1.801   9.531   2.063 -0.2075 -0.1948 -0.1790
 9406W        W25590  17.209  13.052   4.325  0.0805 -0.1403 -0.1616
 9407W        W25591  11.983   3.829  14.236 -0.2766 -0.0945 -0.0557
 9408W        W25592   8.417  10.228   5.517  0.2234  0.0424 -0.1976
 9409W        W25593   0.811   1.808   4.618  0.2654 -0.5857 -0.1754
 9410W        W25594   0.901  12.247   0.468  0.1621 -0.0864  0.0918
 9411W        W25595  10.383   0.140  13.584  0.0414  0.2092  0.3627
 9412W        W25596  15.698   8.158  16.206 -0.2741  0.3151  0.2463
 9413W        W25597  15.665  14.822  16.630  0.2259 -0.0203  0.0308
 9414W        W25598  15.520  12.458   0.408  0.2163 -0.0594  0.2877
 9415W        W25599   7.533   0.873   3.210  0.0239  0.0773 -0.1980
 9416W        W25600  15.211   7.560   5.294  0.2313 -0.1192 -0.0453
 9417W        W25601   2.471   0.529   0.815 -0.0977  0.0159  0.3474
 9418W        W25602   4.540  10.149  13.709 -0.1123 -0.2590 -0.2795
 9419W        W25603  13.237  17.516  14.520  0.0277  0.0759  0.0730
 9420W        W25604   0.860  13.195   4.118  0.0261  0.1223 -0.1454
 9421W        W25605  16.264   8.422   0.188 -0.0654 -0.0399  0.0042
 9422W        W25606   8.409  16.629  12.383 -0.0052 -0.1739  0.1069
 9423W        W25607  15.175  11.705  15.006  0.0142  0.0512  0.0082
 9424W        W25608   9.116  16.429  12.963  0.0757 -0.1222 -0.0289
 9425W        W25609   7.388  15.103   3.807  0.1282 -0.1716  0.2129
 9426W        W25610  15.972  17.776  11.709  0.1953 -0.0695  0.0348
 9427W        W25611  10.846  11.245   3.425 -0.0274 -0.1461 -0.3871
 9428W        W25612   0.393  12.922   2.757 -0.1651  0.2118 -0.3313
 9429W        W25613   9.684  15.497  11.607 -0.0860 -0.3217 -0.1119
 9430W        W25614  15.655  10.759   0.185 -0.1861  0.0787 -0.0387
 9431W        W25615   9.598  15.739   4.443  0.2505  0.0645  0.0191
 9432W        W25616  17.435   1.630  12.352  0.2953  0.1157 -0.1842
 9433W        W25617   7.625  10.670   2.004  0.0026  0.2301  0.0094
 9434W        W25618  12.020   8.050   5.845 -0.1830 -0.0747  0.2412
 9435W        W25619  16.041  14.528  12.279  0.0058 -0.0663 -0.4819
 9436W        W25620  17.668   9.120   0.841  0.1201 -0.2609 -0.1792
 9437W        W25621   1.889   8.322  14.836  0.0491  0.1641  0.1090
 9438W        W25622   6.837   1.075   1.681 -0.0168  0.0545 -0.0030
 9439W        W25623   2.401  15.670   1.199  0.2372  0.0387  0.0964
 9440W        W25624   7.872   0.570  13.551  0.2244 -0.2233  0.1413
 9441W        W25625  15.823   4.112   2.381 -0.1324  0.1184  0.2299
 9442W        W25626   8.308  17.671  13.898 -0.0028  0.1397  0.2459
 9443W        W25627   9.539   9.376  13.853  0.2099  0.2631  0.2474
 9444W        W25628   9.996   3.313  12.141  0.0906  0.0578 -0.0827
 9445W        W25629   1.961   2.339   5.455  0.0037  0.1063 -0.1614
 9446W        W25630  17.152   5.452  14.644  0.0883  0.0659 -0.0271
 9447W        W25631   4.086  10.803  13.083 -0.0110 -0.2724  0.4245
 9448W        W25632   4.946   6.190   2.665  0.0061  0.3872  0.2184
 9449W        W25633  11.221   8.536   4.044 -0.2156  0.2164 -0.0448
 9450W        W25634  14.541   2.278  11.892  0.1450  0.1178  0.0360
 9451W        W25635   5.031   4.117  14.228  0.1758 -0.3569 -0.0858
 9452W        W25636   4.969   6.459   4.611  0.2818  0.1303  0.1261
 9453W        W25637  15.905   8.699  16.081  0.1790  0.0813  0.0984
 9454W        W25638   9.934  13.853  15.729  0.1014  0.1640  0.0578
 9455W        W25639  11.728   1.530   2.775  0.2895  0.1152 -0.0304
 9456W        W25640  17.334  14.691  15.510 -0.3541  0.1773 -0.1513
 9457W        W25641   2.331   4.918   3.929 -0.0616 -0.1111 -0.0219
 9458W        W25642   5.061   7.159   5.193 -0.2241 -0.2379 -0.0025
 9459W        W25643   0.349  10.389  13.847 -0.0952 -0.1409  0.4589
 9460W        W25644   9.123   8.024   2.977  0.0959 -0.0862  0.1826
 9461W        W25645   2.290   1.752  15.227 -0.1589  0.0153  0.1058
 9462W        W25646   6.243   5.340  13.418 -0.0643  0.0061 -0.1112
 9463W        W25647   4.485   0.940   2.253 -0.0300 -0.3303 -0.0193
 9464W        W25648   9.237  17.868  12.002  0.0876 -0.0831 -0.2471
 9465W        W25649   8.083   9.007  15.948  0.1208 -0.0280 -0.0504
 9466W        W25650   8.268  13.451  10.558  0.0802 -0.2168  0.0298
 9467W        W25651  14.723   7.784   4.638 -0.1197 -0.2180 -0.0628
 9468W        W25652  12.853  12.682   4.146 -0.0887 -0.0850 -0.1386
 9469W        W25653  10.028  13.299   5.400  0.1058 -0.1136  0.1008
 9470W        W25654   0.253   7.161   1.341  0.2470  0.3196 -0.1862
 9471W        W25655  15.990   5.458   4.863 -0.1135  0.0475 -0.0270
 9472W        W25656   4.357   6.483  15.123 -0.1633  0.0857 -0.0384
 9473W        W25657   1.917   7.350   0.529  0.0079 -0.0973 -0.1499
 9474W        W25658   4.737   9.697  13.026 -0.1403 -0.0881 -0.1695
 9475W        W25659  15.649  12.811  12.654 -0.1501 -0.0449  0.1842
 9476W        W25660   2.479   7.474  13.463 -0.0995  0.1040 -0.0629
 9477W        W25661   6.248   6.929   0.356  0.1401 -0.0714 -0.1845
 9478W        W25662   2.754   7.633  13.065 -0.3229  0.1251 -0.1330
 9479W        W25663   6.079  12.550   3.553  0.0056 -0.2831 -0.1270
 9480W        W25664  15.285   9.158  12.706 -0.0890 -0.2322  0.0536
 9481W        W25665   7.278  16.483   1.736 -0.0191  0.1015 -0.1946
 9482W        W25666  13.271   4.290  15.162  0.3443 -0.0492 -0.0710
 9483W        W25667   7.659  15.489  14.868  0.1789 -0.0642 -0.2261
 9484W        W25668   9.906   2.037   0.596 -0.1105  0.0646 -0.1033
 9485W        W25669   0.249  16.704  13.606  0.0295  0.3204 -0.1529
 9486W        W25670   9.651  14.561  11.726  0.0227  0.1941  0.1655
 9487W        W25671   5.872  12.039   6.060  0.3210 -0.0626  0.0852
 9488W        W25672   5.110  17.915   3.231 -0.2870 -0.1791 -0.0268
 9489W        W25673  17.956  16.768  11.211  0.2531 -0.0506  0.1566
 9490W        W25674  13.341   1.734   4.019 -0.0816  0.3326 -0.1633
 9491W        W25675  17.948   0.278   0.026  0.0537 -0.0003 -0.0946
 9492W        W25676  15.217  10.395  14.029  0.1835  0.0016  0.2203
 9493W        W25677   2.561  16.130   0.496  0.1811  0.1178  0.1813
 9494W        W25678   1.120  13.815   5.266  0.1784  0.0521  0.0100
 9495W        W25679   2.428  10.313  15.492 -0.0929 -0.3719  0.0226
 9496W        W25680   9.796   6.955   1.638 -0.3795 -0.0133 -0.1701
 9497W        W25681   3.581  10.019   2.316  0.0747  0.2909 -0.2685
 9498W        W25682   4.951  14.257  14.127 -0.2266  0.0262  0.1571
 9499W        W25683  11.705   6.378   0.535  0.2295 -0.1844 -0.0267
 9500W        W25684  14.217  10.946  15.682  0.0160  0.0746 -0.1691
 9501W        W25685  12.307   4.451  12.862 -0.0546 -0.0584 -0.0042
 9502W        W25686   2.054   5.385   3.133  0.0102  0.0690 -0.2305
 9503W        W25687  16.086  17.809   2.116  0.2020 -0.0866  0.0346
 9504W        W25688  16.554  12.679  14.054  0.2096  0.0720 -0.3114
 9505W        W25689  13.012   7.777  14.008 -0.1775 -0.1086  0.0287
 9506W        W25690  10.477  17.779   2.563 -0.1924  0.0272  0.1618
 9507W        W25691  11.189  13.418  13.189  0.0246 -0.1900  0.3209
 9508W        W25692   5.200  16.852  11.566  0.0011  0.0148  0.1032
 9509W        W25693  10.742  11.045  14.355 -0.3755  0.0089  0.4664
 9510W        W25694  12.177   6.168  15.079 -0.2520  0.0878 -0.3045
 9511W        W25695   6.084  14.866  16.060  0.5005 -0.0760  0.2458
 9512W        W25696  13.452   0.744   0.570 -0.2656  0.0686  0.3303
 9513W        W25697   9.216  15.356   1.817  0.1360 -0.0260 -0.0330
 9514W        W25698  14.929  16.944  13.113 -0.1685  0.2895 -0.1533
 9515W        W25699   8.047   2.529  12.353  0.3055 -0.0455  0.0215
 9516W        W25700   4.643   3.973  13.320  0.1464  0.2063  0.1586
 9517W        W25701  12.562   3.079  13.299 -0.3220 -0.2354  0.4127
 9518W        W25702   7.390   1.726   1.457  0.1149 -0.0283  0.1662
 9519W        W25703   2.734   3.376  15.152 -0.0643  0.0646  0.0616
 9520W        W25704  11.706   6.341   2.599 -0.0510  0.0066  0.3218
 9521W        W25705  15.175  11.683   1.555 -0.2021 -0.1149  0.1879
 9522W        W25706  10.342   5.305   5.549 -0.4091 -0.2013 -0.0555
 9523W        W25707  11.649  13.218  11.614 -0.2538 -0.1330  0.4635
 9524W        W25708   0.324   2.781  15.806 -0.0646 -0.0516  0.1273
 9525W        W25709   9.838   6.371   5.088 -0.1871  0.2325  0.2193
 9526W        W25710   7.684   7.829   4.063 -0.0604  0.1780  0.1141
 9527W        W25711  11.266   4.756   6.079 -0.0122  0.0244  0.0284
 9528W        W25712   5.644  11.151  11.416 -0.0068  0.0853 -0.1363
 9529W        W25713  16.379   6.978  12.635 -0.1606 -0.2573 -0.0444
 9530W        W25714   0.205   9.527   5.963  0.0180  0.0133 -0.1126
 9531W        W25715  11.517  17.246  11.799 -0.4258 -0.1624 -0.1559
 9532W        W25716   5.126  10.230  16.041  0.0258  0.2549 -0.1131
 9533W        W25717   2.949   7.355   4.525  0.0055  0.1478  0.2720
 9534W        W25718   2.581   1.951   6.020 -0.2225  0.0277 -0.3454
 9535W        W25719  16.606  10.902  14.210  0.1343 -0.2434 -0.0227
 9536W        W25720   4.290   0.278   3.897  0.0239 -0.3423  0.1262
 9537W        W25721  16.401  16.751   4.833 -0.0303  0.0373  0.1831
 9538W        W25722   2.936   4.968  11.425  0.0934 -0.0460  0.1525
 9539W        W25723   9.395   0.287  15.925  0.0427  0.1279  0.0026
 9540W        W25724  17.032  14.682  12.840 -0.0716  0.1158  0.1428
 9541W        W25725  13.317  14.607   0.877 -0.0770  0.2853  0.2503
 9542W        W25726  14.098   8.578  12.835  0.1668  0.0913 -0.0001
 9543W        W25727  15.195  14.406  12.750 -0.2859 -0.3694  0.1439
 9544W        W25728   7.059  10.077   1.171  0.1272  0.0016  0.3142
 9545W        W25729   7.862  13.540   3.055 -0.1923 -0.0849  0.2151
 9546W        W25730  17.536   2.051  15.965  0.0774  0.1527 -0.0574
 9547W        W25731  12.275  17.757  14.174  0.2002 -0.1425 -0.1227
 9548W        W25732   7.196  12.225   4.517  0.0155 -0.0726  0.0089
 9549W        W25733  15.125  13.575   2.423 -0.0980 -0.1469  0.1816
 9550W        W25734   0.798   8.523   4.636  0.0864  0.4656 -0.0405
 9551W        W25735   2.708   8.068   0.333 -0.4723 -0.1874 -0.2044
 9552W        W25736  13.382  11.147   3.779 -0.0798 -0.1487  0.0862
 9553W        W25737  11.427  12.275   0.219  0.2609 -0.3021  0.3071
 9554W        W25738   9.208   6.152  15.523 -0.0169  0.1281  0.0796
 9555W        W25739   0.260  12.270   1.864  0.0178  0.0803  0.2549
 9556W        W25740   6.229   7.803   3.525 -0.2158 -0.0846 -0.2427
 9557W        W25741   1.432   4.185   4.813 -0.1301 -0.0750  0.2867
 9558W        W25742  10.613   9.593  11.809  0.0599  0.3858  0.2700
 9559W        W25743   2.464  16.533  13.020 -0.0883 -0.1636  0.2822
 9560W        W25744  15.464  17.163  14.708 -0.0111  0.0842 -0.2969
 9561W        W25745   5.243  14.795   1.763  0.0327  0.0723 -0.1736
 9562W        W25746  15.850  15.260   0.930 -0.1469 -0.0770 -0.1125
 9563W        W25747   4.882  15.255   3.840  0.1234 -0.0182  0.0787
 9564W        W25748   8.258  14.926   0.020 -0.1822  0.0164 -0.1587
 9565W        W25749  17.751   8.685   1.010 -0.0905  0.1808 -0.1435
 9566W        W25750   2.383  16.308  12.177  0.4110 -0.0538  0.1123
 9567W        W25751  15.910   3.326  13.899 -0.1239 -0.0551 -0.2678
 9568W        W25752  16.354   8.909  12.694  0.1907 -0.2468  0.2011
 9569W        W25753   9.208  16.392   4.325  0.0942  0.0400  0.0724
 9570W        W25754   8.561   3.520   3.351 -0.1024  0.2046  0.2875
 9571W        W25755   5.097   1.136  13.602  0.1511  0.3101 -0.1056
 9572W        W25756   1.201  14.647   5.415  0.1250  0.0552 -0.3434
 9573W        W25757   8.328   4.918  13.597 -0.3702  0.1126 -0.0861
 9574W        W25758  15.681   5.500  12.519 -0.0161  0.1280 -0.0226
 9575W        W25759  15.999  17.373   2.321 -0.0060  0.1557 -0.1112
 9576W        W25760   2.406   1.410  12.839 -0.2287 -0.0692 -0.0723
 9577W        W25761   7.831  10.674   0.307 -0.0493  0.2942  0.1226
 9578W        W25762  14.871   6.139   6.161 -0.3481  0.0402 -0.2665
 9579W        W25763  12.057  14.116  14.811  0.0615 -0.0347 -0.1696
 9580W        W25764   1.160  12.030   5.290  0.1686  0.2617  0.1344
 9581W        W25765  16.791  13.774   3.268 -0.0705 -0.2843  0.4374
 9582W        W25766  15.117  17.963   2.720 -0.1306  0.1611  0.1289
 9583W        W25767   2.677  17.022  16.587  0.1651 -0.3722  0.0001
 9584W        W25768  13.674  13.846  15.591 -0.2328 -0.1043  0.0857
 9585W        W25769  15.877   6.443  16.371 -0.1538 -0.1785  0.0330
 9586W        W25770   7.487   6.970  16.437 -0.2346  0.1412  0.0904
 9587W        W25771   7.635  17.255  15.316 -0.0360  0.0990  0.0714
 9588W        W25772  14.903   8.355   5.796 -0.1370 -0.0518  0.1555
 9589W        W25773   7.073  12.595   3.020 -0.0075 -0.0026  0.0024
 9590W        W25774   0.794   2.411   2.515 -0.1019  0.0819  0.1733
 9591W        W25775  16.725  15.031  12.571 -0.1114 -0.1131 -0.1655
 9592W        W25776   5.949  14.835   3.022 -0.2301 -0.2419 -0.1335
 9593W        W25777   5.309  10.809  15.035  0.3828  0.2978 -0.1497
 9594W        W25778  15.202   0.753  14.758 -0.1186  0.2380  0.3323
 9595W        W25779   0.767   0.154  10.242  0.0204  0.1356  0.0532
 9596W        W25780   9.585   5.560  14.688 -0.0909  0.0043 -0.0715
 9597W        W25781  17.216  15.559  13.398 -0.1351 -0.0575 -0.1110
 9598W        W25782  13.647   3.741  11.604  0.3513 -0.1076 -0.1918
 9599W        W25783   4.984   3.629  13.515  0.3065 -0.1155 -0.0580
 9600W        W25784   8.273   5.452   0.401 -0.0302 -0.1063 -0.0629
 9601W        W25785   2.171   8.410   1.447  0.2322 -0.1332 -0.0707
 9602W        W25786   1.188   7.053   0.097  0.1922  0.0987 -0.1064
 9603W        W25787  10.823   2.679   4.342 -0.1798 -0.0562  0.1154
 9604W        W25788   2.536  13.741  15.220 -0.4750 -0.0633 -0.1937
 9605W        W25789  15.658  12.506   5.268  0.0002  0.0085 -0.2447
 9606W        W25790  12.393   3.725  12.130 -0.1742 -0.0897 -0.0910
 9607W        W25791  10.463   8.405  14.883  0.1452 -0.2539 -0.3105
 9608W        W25792   3.732   6.762  12.949 -0.1944 -0.0998  0.1758
 9609W        W25793   0.325  16.371  13.179  0.0029  0.0814 -0.0970
 9610W        W25794   4.317   1.255  13.134  0.0313 -0.1256 -0.0284
 9611W        W25795  15.241  16.956   5.045  0.0780  0.1683  0.0656
 9612W        W25796   5.789   9.259   1.258 -0.0073  0.0393 -0.1081
 9613W        W25797  13.387  13.104  16.406 -0.0252  0.3398 -0.1584
 9614W        W25798   9.139   5.288   0.210  0.2164 -0.1725  0.2399
 9615W        W25799   4.024   6.174   1.744 -0.2346 -0.0304  0.1826
 9616W        W25800   4.475   6.965   2.290  0.1495 -0.0372 -0.3268
 9617W        W25801  10.648   2.831   3.393 -0.4809  0.2165 -0.2191
 9618W        W25802  17.947  17.474   0.501  0.0292  0.0904 -0.0013
 9619W        W25803   5.329  11.754   4.661 -0.0245  0.0708 -0.0971
 9620W        W25804   5.423   5.345   2.209  0.0461 -0.0373 -0.0204
 9621W        W25805   9.363   0.336  13.269 -0.0209 -0.0128 -0.1706
 9622W        W25806   3.403   9.271   5.230  0.2124  0.2759 -0.0766
 9623W        W25807   7.324  12.144   0.830 -0.2992  0.2663  0.1835
 9624W        W25808   2.620  11.127  14.007  0.2091 -0.2736 -0.0950
 9625W        W25809  17.775   7.305  13.432  0.1632  0.0914 -0.2528
 9626W        W25810  12.714   8.492   5.158 -0.0006  0.0744 -0.1953
 9627W        W25811   8.702   0.382  14.398 -0.0359  0.1468 -0.0487
 9628W        W25812   3.514   7.018  11.902 -0.2403  0.1994  0.4332
 9629W        W25813   9.111   8.194  12.733 -0.1972  0.1847 -0.1747
 9630W        W25814   0.298   4.831   0.701  0.1715 -0.1367  0.0049
 9631W        W25815  14.637  11.331   5.291 -0.2606  0.0142 -0.0527
 9632W        W25816   2.035   4.301   4.614 -0.0577  0.2662  0.1471
 9633W        W25817   9.928  15.807  15.330  0.0972 -0.1630 -0.2826
 9634W        W25818   3.750  12.371  16.369 -0.3257 -0.0273  0.0074
 9635W        W25819   1.407   9.691  14.224  0.0561 -0.0773 -0.2139
 9636W        W25820   9.284   6.800   5.754  0.0377 -0.0638 -0.1315
 9637W        W25821   6.478  11.872  15.643  0.1296 -0.0553 -0.2052
 9638W        W25822   4.017  13.306  12.964 -0.1519 -0.1963 -0.0305
 9639W        W25823   6.519  14.813  16.255  0.1238 -0.0035 -0.0441
 9640W        W25824   8.363  17.429   2.896  0.1537  0.0822 -0.3413
 9641W        W25825  13.101  11.943  13.611  0.2050 -0.0850 -0.1941
 9642W        W25826   1.032   5.513   1.787 -0.0344  0.4100  0.1450
 9643W        W25827  13.227   3.167  14.627 -0.0126  0.2859 -0.1642
 9644W        W25828   4.848  10.961  14.259 -0.0159 -0.1126  0.2826
 9645W        W25829  16.041   8.560  12.490 -0.0482 -0.1130  0.0702
 9646W        W25830  11.721  15.564   2.820 -0.4930 -0.2235 -0.0552
 9647W        W25831  10.836  13.023   3.066  0.1186 -0.1948 -0.1997
 9648W        W25832  12.490  15.943  11.582  0.2960 -0.0368  0.1154
 9649W        W25833  11.839   8.948   3.289  0.3414 -0.2596 -0.0322
 9650W        W25834   5.038  14.755   3.782  0.0221  0.1180 -0.2204
 9651W        W25835   3.829   1.371  13.106 -0.1512  0.0247 -0.2199
 9652W        W25836   4.006   1.249   3.927  0.2099 -0.0700  0.0507
 9653W        W25837   2.248   3.397   2.466  0.2679  0.2393 -0.0431
 9654W        W25838   4.663  12.081  13.318 -0.2297 -0.0171 -0.1359
 9655W        W25839  14.435  12.390  14.146 -0.1891 -0.2516 -0.2863
 9656W        W25840   2.558   7.078   4.319 -0.1600 -0.1437  0.3982
 9657W        W25841  14.486  17.088  13.268 -0.0612 -0.6126  0.1920
 9658W        W25842  15.102  17.708   3.484 -0.0717 -0.0294 -0.1656
 9659W        W25843   1.984  16.422   1.522  0.0378 -0.2147 -0.1433
 9660W        W25844  10.120   2.513   5.955  0.4241 -0.2397 -0.2106
 9661W        W25845   3.814  15.829  13.547 -0.0948 -0.1363  0.3020
 9662W        W25846   1.461  13.673   5.595  0.0029  0.1512  0.1257
 9663W        W25847   6.139   5.998   3.174 -0.4541 -0.2525  0.0163
 9664W        W25848   6.511  14.653   4.819  0.0478 -0.0086 -0.0342
 9665W        W25849   8.274   4.989   4.170 -0.0682  0.0555 -0.1421
 9666W        W25850  13.725  14.415   4.099 -0.2297 -0.0888 -0.0018
 9667W        W25851   6.508  14.805   3.331 -0.0542  0.1417  0.0781
 9668W        W25852  10.982   4.368  16.226 -0.1270 -0.0209  0.3166
 9669W        W25853   7.666   2.278   2.114  0.0357 -0.1523  0.2155
 9670W        W25854  16.764  13.739   3.774  0.0466 -0.0715  0.1842
 9671W        W25855  15.914   3.622   0.195  0.1427  0.1172  0.0340
 9672W        W25856   0.451  11.484   2.596 -0.2034  0.0873 -0.0913
 9673W        W25857  12.067   3.461   4.914  0.3289  0.2556  0.0824
 9674W        W25858  14.790   1.741   5.888 -0.0132 -0.1097 -0.0037
 9675W        W25859   3.486   0.429   3.766  0.2038 -0.0853 -0.1250
 9676W        W25860   8.737   3.824  15.921 -0.0758 -0.3799  0.0165
 9677W        W25861  11.821  11.018   3.130 -0.0660  0.1439  0.2254
 9678W        W25862   6.931   3.879   4.131 -0.0687  0.1066 -0.1050
 9679W        W25863   0.704  17.885   6.595 -0.2554  0.1317  0.0696
 9680W        W25864  14.290  14.109   3.522 -0.0304  0.2427  0.0606
 9681W        W25865   5.459   0.577  11.832 -0.1789 -0.0557  0.0204
 9682W        W25866  11.013   8.232  16.189  0.1576 -0.1069 -0.2007
 9683W        W25867  15.835   1.977  14.101 -0.0263 -0.2299 -0.0422
 9684W        W25868   7.612   9.972  13.882  0.3053  0.3261  0.0916
 9685W        W25869   3.880  12.944   1.413 -0.0943 -0.0093 -0.3827
 9686W        W25870  16.651   9.479   4.421  0.1073 -0.3266 -0.1555
 9687W        W25871   5.084   4.634   2.498 -0.0796 -0.0085 -0.0605
 9688W        W25872   2.835   3.452   1.769  0.1869  0.3196 -0.4152
 9689W        W25873  12.850  15.009   0.117 -0.0470  0.0256 -0.0590
 9690W        W25874   7.750  10.955   4.721 -0.1471 -0.2363 -0.0597
 9691W        W25875  16.276   8.316  13.947  0.1965  0.1410  0.5494
 9692W        W25876   1.837  15.830  15.037  0.2204 -0.2016  0.0962
 9693W        W25877  16.780   7.226  11.396 -0.0954  0.1164  0.0718
 9694W        W25878   5.564   5.746  16.587 -0.1305 -0.1034 -0.0256
 9695W        W25879   4.399   8.907   0.195 -0.3486  0.1177 -0.0905
 9696W        W25880  14.997   5.199  14.127 -0.0292  0.2646 -0.3576
 9697W        W25881  12.269   6.402  14.328 -0.1692  0.0359 -0.3671
 9698W        W25882   4.322  12.031   0.353  0.1934  0.1335 -0.0295
 9699W        W25883  16.761  14.211   1.908 -0.0088  0.3819 -0.0402
 9700W        W25884   4.789   4.421  14.624  0.2420  0.1011 -0.1036
 9701W        W25885   5.988   1.018   4.457 -0.2085 -0.2175 -0.0097
 9702W        W25886   8.608   4.493   0.152  0.0375 -0.0011 -0.0479
 9703W        W25887   6.429   5.970  14.945  0.2959  0.0489 -0.2314
 9704W        W25888   1.860  12.771   3.508 -0.1998  0.0838 -0.0177
 9705W        W25889   9.041   4.195  12.021  0.0679  0.0820 -0.0789
 9706W        W25890   0.988   3.844  15.993 -0.0168  0.1150 -0.1289
 9707W        W25891   1.690   8.246   1.827 -0.1264 -0.2195 -0.0621
 9708W        W25892   5.838  14.141  13.072  0.2243  0.0823 -0.0351
 9709W        W25893   9.958  10.459   5.052 -0.1681  0.2173 -0.2469
 9710W        W25894   4.583   7.257   3.163  0.2974  0.1851 -0.3907
 9711W        W25895  13.445  16.424   3.424 -0.0654  0.2272  0.0733
 9712W        W25896  17.516   6.278   0.192 -0.1260  0.1501 -0.0179
 9713W        W25897   8.403  17.136  13.171  0.2364 -0.2047  0.3244
 9714W        W25898  13.173  13.257  15.305 -0.1032  0.1775  0.2484
 9715W        W25899   6.116  10.377   5.403 -0.1932 -0.0539 -0.1947
 9716W        W25900   5.168  15.676   3.761  0.1785 -0.1784  0.1033
 9717W        W25901   3.139   6.199  13.649  0.0515 -0.0695  0.0744
 9718W        W25902   1.034  11.578   2.562 -0.2046 -0.1583  0.1823
 9719W        W25903  13.311  15.163   4.682  0.0651  0.1103  0.0501
 9720W        W25904   3.629   3.636  13.089  0.1415  0.1934 -0.0595
 9721W        W25905   3.706  11.243   5.362 -0.0272  0.1000 -0.0617
 9722W        W25906  16.982  11.880   3.748 -0.4771 -0.2916  0.3614
 9723W        W25907  13.430  16.872   5.226 -0.0947 -0.2913  0.2236
 9724W        W25908   2.360   2.256  13.182 -0.0199 -0.1167  0.0159
 9725W        W25909   7.273  16.924  14.995 -0.0939 -0.3302  0.0708
 9726W        W25910   9.532  11.518  13.807 -0.0030 -0.0914  0.2046
 9727W        W25911  13.046  17.107  15.646  0.3555 -0.1066 -0.0235
 9728W        W25912  11.466   3.644   4.948  0.0148 -0.0064 -0.2167
 9729W        W25913  16.031   7.471   3.605  0.1543 -0.1021 -0.0062
 9730W        W25914   9.091   2.684   4.467 -0.0359  0.1698  0.1039
 9731W        W25915   7.202  12.342   1.742  0.0347  0.1282  0.1220
 9732W        W25916   6.426  10.778  15.971 -0.1863  0.2968  0.0598
 9733W        W25917   5.492   2.763   5.495  0.0455 -0.3695 -0.3737
 9734W        W25918   4.821   7.950   2.962 -0.0336  0.2064 -0.1756
 9735W        W25919  17.504   7.387  13.855  0.3701  0.4023 -0.0450
 9736W        W25920  16.688  15.602   1.956 -0.1163  0.3078  0.0267
 9737W        W25921  17.000   3.952  12.378  0.1654  0.0319 -0.0539
 9738W        W25922   7.850  14.089   5.186 -0.0282  0.0234  0.1968
 9739W        W25923  11.789   4.908   0.544 -0.3506 -0.0343 -0.0431
 9740W        W25924   6.378  16.610   2.037 -0.1226  0.0015 -0.0128
 9741W        W25925  15.506   4.521  14.535 -0.1889 -0.3854 -0.0766
 9742W        W25926  13.467   3.397   3.716  0.1597  0.2392 -0.0156
 9743W        W25927   1.402   0.004   2.439 -0.0465  0.0885  0.0880
 9744W        W25928   7.294  15.878  13.656 -0.1970  0.2954 -0.2319
 9745W        W25929  17.616  12.463  11.579 -0.2284 -0.1706  0.0607
 9746W        W25930   9.978  11.474   1.902  0.2601 -0.1278 -0.0444
 9747W        W25931  11.626   6.248   3.105 -0.1807  0.0415 -0.2024
 9748W        W25932   6.974   6.172  13.646 -0.2320  0.2073  0.2991
 9749W        W25933   9.254  13.348   3.986  0.0550 -0.3028  0.0893
 9750W        W25934   2.520   7.856   4.900 -0.2989 -0.0666  0.1325
 9751W        W25935  11.097   9.303  16.145 -0.0429 -0.1267 -0.1728
 9752W        W25936  12.086  10.709  11.190  0.1402 -0.0501  0.1815
 9753W        W25937  16.572   2.692  12.950  0.1915  0.2672 -0.4783
 9754W        W25938   2.188  12.351   3.539 -0.1468 -0.1592 -0.0115
 9755W        W25939  11.452   6.361  16.492 -0.0491 -0.0917  0.3133
 9756W        W25940  12.013   3.335  14.861  0.0933 -0.1100 -0.1157
 9757W        W25941  11.674  10.193   1.244 -0.0790  0.0104 -0.2704
 9758W        W25942  15.658   7.041   1.022 -0.0411 -0.1685  0.0664
 9759W        W25943   8.272  17.624  14.887  0.0009  0.1139 -0.2465
 9760W        W25944  17.248   1.276   4.504 -0.1378  0.1529 -0.1470
 9761W        W25945   6.116   9.432   5.336  0.2125 -0.0484 -0.1299
 9762W        W25946   4.051  10.551  16.215 -0.0630 -0.1752 -0.0273
 9763W        W25947   5.914  13.586  16.516  0.1976 -0.4942 -0.0741
 9764W        W25948  17.651   3.750  12.286  0.0523 -0.2883 -0.0559
 9765W        W25949   5.891  15.787   1.552 -0.0238 -0.0487 -0.2868
 9766W        W25950   2.877   6.315  16.396  0.0172 -0.0542 -0.2331
 9767W        W25951   9.264   9.173  12.428 -0.0112 -0.1638  0.0547
 9768W        W25952   2.991  13.213  12.864 -0.2277  0.1506 -0.1537
 9769W        W25953   0.538   1.205   4.757  0.0798 -0.2053 -0.0854
 9770W        W25954   8.147  15.340   1.564 -0.0654 -0.1446 -0.2524
 9771W        W25955   0.706  12.396   4.082 -0.0481  0.1436 -0.0044
 9772W        W25956  11.803   1.696   0.764  0.1372  0.1841 -0.1854
 9773W        W25957  16.043   1.421   1.425  0.1065  0.0633 -0.1577
 9774W        W25958   9.568  11.064  15.602 -0.0203  0.1927  0.2121
 9775W        W25959  12.551  12.429  16.679 -0.1968  0.0852 -0.1358
 9776W        W25960   0.291  17.177   3.840  0.0137 -0.1759  0.0629
 9777W        W25961  10.648   9.518   2.294 -0.0490 -0.2684  0.3007
 9778W        W25962   2.637   1.092  15.324 -0.1008 -0.0684  0.1964
 9779W        W25963  15.684  14.038   5.448  0.0463  0.0454 -0.3096
 9780W        W25964   8.584  10.390  11.224  0.0862 -0.1607  0.0496
 9781W        W25965  11.032  13.084   3.848  0.2460 -0.1603  0.1212
 9782W        W25966  10.604  14.871   0.482 -0.0358  0.2301 -0.0192
 9783W        W25967   3.275   8.737  12.968  0.0283 -0.1145  0.0517
 9784W        W25968  13.021  14.098  12.338 -0.1798  0.1237  0.3314
 9785W        W25969   5.613   6.260   0.311  0.1258  0.0693 -0.2170
 9786W        W25970  10.487   0.007   4.342 -0.2067 -0.0582 -0.1397
 9787W        W25971  10.464  15.857  12.705  0.0240 -0.0698  0.1834
 9788W        W25972   7.552   7.120   4.776 -0.0082  0.0908  0.0998
 9789W        W25973   9.313   4.164  16.632  0.0908  0.0711 -0.0957
 9790W        W25974   7.996  12.901   0.903 -0.2665  0.0757 -0.3292
 9791W        W25975   1.189   4.584   0.478 -0.0118 -0.3271 -0.3035
 9792W        W25976   4.379  13.370  13.362  0.0525 -0.1999  0.2543
 9793W        W25977  11.679  17.913   0.722  0.2707  0.3993  0.1417
 9794W        W25978  15.562  10.049  13.917 -0.0269 -0.2909 -0.1003
 9795W        W25979  17.554   2.761   2.052 -0.0412 -0.0211 -0.0937
 9796W        W25980   2.975   5.324   0.167 -0.1216  0.1353  0.0448
 9797W        W25981  11.747  16.451  13.627 -0.2487  0.0795  0.0694
 9798W        W25982  12.365   8.387  16.047 -0.1138  0.1302  0.1050
 9799W        W25983  11.275  12.312   5.626 -0.1503  0.1397  0.1746
 9800W        W25984   6.039  17.169  14.504  0.3020  0.0258 -0.3237
 9801W        W25985   6.864   1.237   4.592  0.0123 -0.0091  0.0316
 9802W        W25986   7.168  16.054  11.488 -0.0618 -0.0506 -0.0877
 9803W        W25987   4.626  13.608  11.758 -0.1747 -0.1605  0.0707
 9804W        W25988  16.980   2.711  12.516  0.0162 -0.4699 -0.2862
 9805W        W25989   3.861  13.620   0.721  0.1965  0.2098 -0.0362
 9806W        W25990   4.194  12.113  13.804  0.0656  0.0621  0.0503
 9807W        W25991  15.418   9.797   1.145  0.0028 -0.4549  0.0528
 9808W        W25992   0.011  14.070   3.489 -0.1077 -0.2492  0.0781
 9809W        W25993   0.049  17.244  14.299 -0.0339 -0.0605  0.0393
 9810W        W25994   5.494   5.748  11.923 -0.0771  0.1085 -0.0192
 9811W        W25995   6.379   7.431   0.541 -0.2506  0.0666  0.0343
 9812W        W25996  17.941   1.165  13.830 -0.2938 -0.1212  0.0521
 9813W        W25997   8.399   5.444   1.528  0.1589 -0.1150  0.1185
 9814W        W25998  12.631   9.611  15.183 -0.2276  0.1152  0.4389
 9815W        W25999   4.551   3.083  16.319  0.0611 -0.0548  0.1937
 9816W        W26000   3.806  15.199   1.266 -0.0025  0.1830  0.1183
 9817W        W26001   7.927  14.149   1.463  0.1485 -0.0025 -0.5776
 9818W        W26002  10.097  15.714   1.372  0.0089  0.0227 -0.1832
 9819W        W26003   7.480   9.338  14.899  0.1411  0.0670 -0.0623
 9820W        W26004  15.687  17.380  14.316 -0.0589 -0.1113  0.1358
 9821W        W26005  11.164   0.375  14.742 -0.0878  0.0481 -0.0174
 9822W        W26006  10.478   3.573   5.593 -0.3140 -0.2174  0.1881
 9823W        W26007   7.582   6.698   0.488 -0.0112  0.1586 -0.1676
 9824W        W26008   1.406   0.592  15.964  0.1853  0.1282 -0.0531
 9825W        W26009   3.573   8.720   2.005  0.1012  0.1756 -0.3064
 9826W        W26010  10.615  10.291  13.432  0.1213 -0.1736 -0.0799
 9827W        W26011  15.506   9.192   1.749  0.1709 -0.0241  0.1988
 9828W        W26012  11.430  17.144   4.376  0.0528  0.1416 -0.0913
 9829W        W26013  13.694   4.844   6.531 -0.3129 -0.0086  0.1210
 9830W        W26014  12.156   0.799  15.968 -0.0003 -0.1237 -0.0259
 9831W        W26015   5.068   1.348   3.082  0.0151 -0.1025 -0.3740
 9832W        W26016   6.739   8.904   2.801 -0.1693 -0.1472 -0.1320
 9833W        W26017  12.255   0.240   0.013 -0.2634  0.1691  0.2246
 9834W        W26018   6.055   4.939   4.904  0.0302 -0.1709  0.0658
 9835W        W26019  12.347   4.266   6.187  0.0497  0.1265 -0.1058
 9836W        W26020   7.288  12.815   5.235 -0.1024  0.1190  0.1160
 9837W        W26021   8.467   4.952   5.705 -0.2433 -0.0646 -0.1710
 9838W        W26022  16.806  11.903  13.056 -0.0040  0.2596  0.1580
 9839W        W26023  16.463  11.347  14.051 -0.1388  0.2451 -0.0778
 9840W        W26024   4.441  16.039  14.053 -0.2119  0.0088  0.0465
 9841W        W26025  11.389   8.134   2.899  0.2183 -0.0162  0.0085
 9842W        W26026   2.245   9.059   2.698 -0.1431 -0.0644  0.1365
 9843W        W26027  13.925   1.346   5.656  0.3200 -0.4247  0.2492
 9844W        W26028  10.193   5.749  10.595  0.0418 -0.0555 -0.1512
 9845W        W26029   7.463   5.564   1.537  0.2390  0.0864 -0.1112
 9846W        W26030  16.235  11.007  12.304 -0.2243  0.1376 -0.0086
 9847W        W26031  12.315  16.239   3.171  0.1233  0.1329  0.0268
 9848W        W26032   4.421   2.637  15.181  0.2049  0.2155  0.3035
 9849W        W26033  15.974  17.089   3.227  0.1133 -0.0399  0.2196
 9850W        W26034   7.040   3.172   5.049 -0.1523 -0.1977 -0.2903
 9851W        W26035  15.050   7.623  14.698  0.0215 -0.4825  0.0387
 9852W        W26036   9.010   6.944   6.139 -0.1277  0.0917 -0.0941
 9853W        W26037  13.885   3.277   2.480  0.1388  0.1977 -0.1052
 9854W        W26038   9.991  14.407  12.049  0.1465  0.4422  0.0886
 9855W        W26039  16.959  14.381   2.685  0.1159  0.0666 -0.0442
 9856W        W26040   4.930   5.711   0.132 -0.0968  0.4170 -0.2535
 9857W        W26041   8.435   4.836  11.974 -0.2216  0.1364 -0.0833
 9858W        W26042  12.470  13.049  12.834 -0.2470  0.1391  0.1413
 9859W        W26043  17.237  15.147  15.272  0.1333 -0.2143  0.0450
 9860W        W26044   0.525  10.878  14.050  0.5105 -0.2375  0.0101
 9861W        W26045  16.987  13.799  11.831 -0.1963  0.1240  0.0110
 9862W        W26046   2.699  11.275   3.052 -0.0508  0.1969  0.2759
 9863W        W26047   8.304  10.510  11.954 -0.2704  0.2168  0.0415
 9864W        W26048  13.199  16.055   3.729  0.1031 -0.0284  0.1254
 9865W        W26049   3.352  17.137  12.371 -0.0234  0.0475 -0.0630
 9866W        W26050   9.872  15.462  11.111  0.2467  0.1395 -0.2139
 9867W        W26051  11.900   7.574   2.575 -0.2195 -0.0054 -0.0624
 9868W        W26052   4.412   6.968   6.151  0.4005 -0.1588  0.3424
 9869W        W26053   0.675   8.196  16.654  0.0087 -0.0342 -0.1663
 9870W        W26054  10.207  13.936  14.407 -0.3088  0.2118  0.1038
 9871W        W26055  12.474  17.806  10.443 -0.2204  0.3599  0.3571
 9872W        W26056   7.405  11.190   5.648  0.1691  0.1120  0.1068
 9873W        W26057   9.865  13.280   0.543  0.3416 -0.0125  0.0141
 9874W        W26058  10.502  13.048   2.046 -0.1057 -0.1210  0.1062
 9875W        W26059  12.823   8.515   0.828 -0.0012  0.4337 -0.0147
 9876W        W26060  14.181   6.641   5.423  0.6263 -0.3659 -0.1389
 9877W        W26061  11.070   8.011   3.780 -0.1493  0.0507 -0.0225
 9878W        W26062  12.597  12.122   1.011 -0.1049  0.2666  0.1286
 9879W        W26063   8.264   3.584  13.881  0.1870 -0.1057  0.0258
 9880W        W26064   7.626  17.331   5.567 -0.0359 -0.1120 -0.0369
 9881W        W26065   9.085  11.336  14.871 -0.1541 -0.1260 -0.2659
 9882W        W26066   3.680  15.277  16.639  0.2406  0.1537 -0.3167
 9883W        W26067  16.960  12.037   5.997 -0.0275 -0.0034 -0.5506
 9884W        W26068   0.549   7.118   0.694  0.1663  0.2102  0.0479
 9885W        W26069  12.382  14.280   1.256 -0.0919  0.0519 -0.0605
 9886W        W26070  11.519  11.460   1.444 -0.0964 -0.1633 -0.1733
 9887W        W26071   4.623  12.454   0.395  0.0874 -0.0181 -0.2087
 9888W        W26072  14.273  12.303  14.600 -0.4849 -0.1126  0.2279
 9889W        W26073   6.870  10.790   4.779  0.1454 -0.0219 -0.0896
 9890W        W26074  17.642   0.650  16.445 -0.1485  0.1511 -0.0306
 9891W        W26075   8.367   2.726   5.632  0.0070 -0.1044 -0.0542
 9892W        W26076  14.952   6.068   1.456 -0.2215  0.0508 -0.0822
 9893W        W26077   6.384  16.097  15.308  0.1108  0.1672  0.1888
 9894W        W26078   4.139  11.549  16.463  0.2696  0.2718  0.2034
 9895W        W26079  13.015   2.996  14.078  0.2440 -0.0752  0.1136
 9896W        W26080   5.194  10.955   4.426  0.0772  0.0753  0.1447
 9897W        W26081   6.088  10.164  13.962  0.2063 -0.0858 -0.2073
 9898W        W26082  11.874  15.893  12.850  0.1377  0.2077  0.1408
 9899W        W26083  13.730   4.367   1.885 -0.1517  0.1482  0.0535
 9900W        W26084   7.549  13.432  14.380 -0.1027  0.2304 -0.1372
 9901W        W26085   6.471  14.700  12.401 -0.3504 -0.1023 -0.1525
 9902W        W26086  17.388  10.802   0.572  0.4147 -0.2168  0.1041
 9903W        W26087   7.070   4.386  15.712 -0.2984  0.1572 -0.2915
 9904W        W26088   5.756  10.881  13.148 -0.0204 -0.0659  0.1730
 9905W        W26089   8.671   5.167   1.187  0.1069 -0.1799 -0.0981
 9906W        W26090  12.898   3.886   5.163  0.1031 -0.0642  0.3255
 9907W        W26091  15.977   3.003  15.548 -0.0420  0.2108 -0.1313
 9908W        W26092  12.596  12.696   5.455 -0.3528  0.0363  0.1272
 9909W        W26093   9.974   1.176   2.050  0.0250 -0.1101 -0.2905
 9910W        W26094  16.440   6.659   1.440 -0.2224  0.1188  0.1409
 9911W        W26095  11.164  16.611   0.147  0.4309  0.1034 -0.2692
 9912W        W26096  10.232  15.086   5.333 -0.1274 -0.0456 -0.0743
 9913W        W26097  13.547   5.748   3.727  0.0615 -0.3405  0.1910
 9914W        W26098   7.751  16.611  11.667  0.2231 -0.0148 -0.1169
 9915W        W26099  15.784   5.288   9.992  0.0615 -0.3549  0.2817
 9916W        W26100  10.972   2.926   2.456 -0.1605 -0.0039  0.1460
 9917W        W26101   0.478   8.466  10.735  0.0785 -0.0363  0.1371
 9918W        W26102   6.600   6.543  13.861 -0.0511 -0.1593 -0.2438
 9919W        W26103  14.665   6.768   2.857 -0.1075  0.0789  0.0127
 9920W        W26104   6.622  14.799  14.483  0.0143 -0.2329 -0.1579
 9921W        W26105   4.528   9.314  11.826 -0.0492 -0.0661  0.0708
 9922W        W26106   8.346   7.497   2.872  0.1988 -0.1278 -0.2323
 9923W        W26107  10.826   9.939   1.018 -0.1817 -0.0560 -0.1430
 9924W        W26108   0.492   6.937   1.798  0.1504  0.3376  0.1137
 9925W        W26109   8.782   6.014  14.899  0.0498 -0.3386  0.1351
 9926W        W26110   3.779  12.142   3.083  0.0059 -0.0526 -0.0206
 9927W        W26111   5.231  13.594  15.133 -0.3255  0.1054  0.1930
 9928W        W26112   0.298  16.129  15.608 -0.2128 -0.0824 -0.1960
 9929W        W26113   2.696   1.303  14.843  0.2602  0.0479 -0.5270
 9930W        W26114   7.037   6.635   4.224 -0.0820  0.0155  0.1855
 9931W        W26115   6.193   3.671   4.431  0.1660  0.2027 -0.3032
 9932W        W26116   3.769  15.358  14.718 -0.1195  0.0229 -0.2164
 9933W        W26117  14.704  12.499  11.508 -0.0527  0.1873 -0.2351
 9934W        W26118  14.757   8.561  12.202  0.0411 -0.1368 -0.0124
 9935W        W26119   3.780   6.652  11.647  0.0168  0.2533  0.0711
 9936W        W26120   6.674  14.430  12.762 -0.2942 -0.4602 -0.1657
 9937W        W26121   1.792   8.312   5.174 -0.1535  0.3016 -0.1203
 9938W        W26122  15.974  15.191  13.534  0.1067  0.2617 -0.1911
 9939W        W26123   0.336   1.943   3.280  0.0833  0.3416  0.2510
 9940W        W26124   1.345  15.413   3.432 -0.1949 -0.2216 -0.0424
 9941W        W26125  11.318   3.155   5.940 -0.0799 -0.1765  0.0237
 9942W        W26126  16.047  10.561  12.355 -0.1567  0.2316  0.1974
 9943W        W26127   2.716   8.294   5.021 -0.3657  0.2360 -0.1560
 9944W        W26128  17.550  10.310   5.656 -0.2415  0.2542  0.3731
 9945W        W26129  17.642  11.895   3.907 -0.1752 -0.0328  0.0659
 9946W        W26130  13.361  17.082   4.760 -0.1406 -0.1699  0.2394
 9947W        W26131   5.872   3.229  11.447 -0.4437  0.2035  0.0971
 9948W        W26132  13.202   5.093   3.427  0.1883  0.0958 -0.0450
 9949W        W26133   5.302  11.036  14.515 -0.0068  0.1466  0.1897
 9950W        W26134   1.288   6.762   4.529  0.0001 -0.2289 -0.1804
 9951W        W26135  12.194  11.270   0.519 -0.0154  0.2686  0.1028
 9952W        W26136  16.832  14.206  11.522 -0.1539  0.2866 -0.4676
 9953W        W26137   5.718  15.415  11.851 -0.3663  0.1704 -0.0065
 9954W        W26138  10.222   9.627  13.226  0.0176 -0.1238 -0.0741
 9955W        W26139   9.602  14.266  13.343 -0.0145  0.0100  0.0164
 9956W        W26140   7.830   9.477  15.852  0.1534  0.0386 -0.0682
 9957W        W26141  13.819   3.383   0.374  0.0688 -0.1325  0.1088
 9958W        W26142   3.457  12.532  14.167  0.1282 -0.0151 -0.0592
 9959W        W26143  13.270   0.174   4.133 -0.0925 -0.2988  0.1706
 9960W        W26144   4.211   4.247  15.696 -0.1291  0.1138  0.1218
 9961W        W26145  14.870   2.257  13.943 -0.1876 -0.0981  0.1117
 9962W        W26146  15.521  12.375   4.712  0.2264 -0.0230  0.1766
 9963W        W26147  16.686   8.020  13.331 -0.2154 -0.2638 -0.0830
 9964W        W26148   4.050   2.110  12.567  0.3397  0.5097 -0.0601
 9965W        W26149   1.711   9.774   4.321 -0.1032 -0.2753  0.0187
 9966W        W26150   1.898  11.201   2.729  0.0054  0.1427 -0.2599
 9967W        W26151  16.582  16.558   3.527  0.0306  0.0092 -0.2203
 9968W        W26152  12.207   5.612   4.816  0.0923  0.0313  0.1925
 9969W        W26153   0.434   2.642   1.560  0.1602 -0.1152 -0.0618
 9970W        W26154  12.406  10.125   1.024  0.1429 -0.0517  0.1016
 9971W        W26155   6.498  10.488   1.602 -0.0807  0.2411  0.1836
 9972W        W26156   9.110  12.012   2.096 -0.2695  0.1418  0.1165
 9973W        W26157  14.980  15.640   3.621  0.0918  0.1889 -0.1224
 9974W        W26158  12.129   8.224   1.480  0.1038  0.0856  0.1008
 9975W        W26159   1.887   2.850   0.346  0.1563  0.1105 -0.1130
 9976W        W26160  16.754  10.802  15.216 -0.0433 -0.2008  0.2574
 9977W        W26161   1.828   0.430  11.808 -0.2045  0.2745 -0.0987
 9978W        W26162  16.416  10.650  14.869 -0.0002 -0.4665 -0.2247
 9979W        W26163  15.428  15.578   3.910 -0.2681  0.0980  0.1229
 9980W        W26164   2.541  10.458  14.234 -0.0425 -0.1175 -0.3586
 9981W        W26165  16.347  15.230   3.565  0.0902 -0.0454 -0.0829
 9982W        W26166   2.856   7.038  13.573  0.1048  0.0329  0.1255
 9983W        W26167  11.358   7.355  12.986 -0.1446  0.5735  0.2283
 9984W        W26168   0.711  10.200  12.360 -0.0435 -0.0489 -0.0215
 9985W        W26169   7.025  17.237  16.257  0.2893 -0.0541 -0.4097
 9986W        W26170   6.810   7.187   1.931 -0.0969 -0.0426  0.2331
 9987W        W26171  16.331  16.433  16.200  0.1274  0.1270 -0.1218
 9988W        W26172  15.896  17.276  12.582  0.0196 -0.2324 -0.0830
 9989W        W26173  15.658   8.513   5.272  0.1003  0.1198 -0.0596
 9990W        W26174  10.574  16.494  14.060 -0.2642 -0.1749 -0.0351
 9991W        W26175   2.070   6.063   1.153  0.0718 -0.1661 -0.1769
 9992W        W26176   6.222  16.208  12.513 -0.0720  0.0041 -0.2664
 9993W        W26177  13.646  11.612   4.601  0.0006  0.2695 -0.3494
 9994W        W26178  17.508   5.064  13.634 -0.2910  0.1456  0.0951
 9995W        W26179   9.554  14.936   1.084 -0.1750 -0.3138 -0.0564
 9996W        W26180  14.027   9.381   0.062  0.0652 -0.0024 -0.1424
 9997W        W26181   2.852   9.278   5.012  0.0561 -0.2058 -0.3034
 9998W        W26182  10.892   2.562  16.214  0.1432 -0.1197 -0.0741
 9999W        W26183   9.417   3.887  11.835  0.0166 -0.0859 -0.0676
10000W        W26184   5.143  13.897  11.928  0.1270 -0.0672  0.2250
10001W        W26185   6.415   0.920   0.278 -0.0893  0.3667  0.0335
10002W        W26186  10.620   6.450   4.256 -0.0155 -0.1944 -0.3523
10003W        W26187   3.741   8.422   2.961 -0.1161 -0.0797 -0.1370
10004W        W26188   5.168   3.836   2.072 -0.1493  0.1258 -0.0725
10005W        W26189   3.253   9.705  16.584 -0.1396 -0.3065  0.1829
10006W        W26190  11.838  10.632  11.652  0.0292  0.0953  0.0115
10007W        W26191   1.245   2.324  16.648  0.1196 -0.0839 -0.1857
10008W        W26192   6.337  12.772  14.602  0.1627  0.0145  0.2368
10009W        W26193  14.108   3.366   0.893 -0.1333  0.1458 -0.2658
10010W        W26194   3.322   0.899   0.941 -0.1186  0.0469 -0.0750
10011W        W26195   8.838   2.126   0.685 -0.4301  0.0455 -0.1454
10012W        W26196   1.557   6.807   4.085  0.4590 -0.0549 -0.2095
10013W        W26197  14.721  17.516   2.639  0.0507  0.3460 -0.1250
10014W        W26198   2.430   2.645  15.754 -0.0246  0.2142 -0.1038
10015W        W26199   9.275   3.955   2.938  0.2379  0.1213 -0.1885
10016W        W26200  15.860   5.886   2.840  0.3372 -0.0907 -0.1432
10017W        W26201   1.990   3.258   1.750  0.1288  0.1260 -0.4828
10018W        W26202  11.619  17.516  13.687  0.0919 -0.3065  0.2822
10019W        W26203   3.542   2.779  13.550 -0.0271 -0.1212 -0.1277
10020W        W26204   0.900   3.883  15.418 -0.0565  0.2935 -0.1495
10021W        W26205  13.775  11.091   4.912 -0.0970  0.3199  0.1704
10022W        W26206   9.914   4.732  12.861  0.2363 -0.1387  0.4834
10023W        W26207   3.547  15.004   5.719 -0.1935 -0.0060 -0.6099
10024W        W26208   7.236   8.425   3.404 -0.0265  0.1840 -0.2734
10025W        W26209  17.658  15.780   1.004 -0.1891  0.3076  0.0792
10026W        W26210   7.870  14.102   0.081  0.1123  0.0628 -0.0664
10027W        W26211  17.142   4.146   2.099  0.0549 -0.1068 -0.0342
10028W        W26212  14.791  14.309   3.297  0.4734 -0.0644 -0.0155
10029W        W26213  12.183   3.602  11.726  0.0811  0.1283 -0.0379
10030W        W26214  13.060  10.245   5.325 -0.0532 -0.0263 -0.0545
10031W        W26215   1.994  12.470   1.177  0.0244 -0.0674  0.1614
10032W        W26216  10.965   2.347   3.961 -0.2225  0.1087 -0.1726
10033W        W26217  13.125   7.777   0.510  0.0902  0.0956  0.1365
10034W        W26218   4.239   8.702   0.711 -0.0999 -0.2129  0.3941
10035W        W26219   0.519   2.846   0.636  0.0429  0.0075  0.0433
10036W        W26220   6.545   4.486   3.216 -0.2161  0.0574  0.1197
10037W        W26221   3.182  12.527  11.314  0.1101  0.3682  0.1042
10038W        W26222   6.771  12.579   1.742  0.3566 -0.1287  0.2298
10039W        W26223   8.243  11.148   5.428  0.3290  0.0903 -0.0784
10040W        W26224   1.277   4.822  14.380  0.1395 -0.0303  0.0388
10041W        W26225  13.635   9.050   2.823  0.0842 -0.0664 -0.2803
10042W        W26226   9.574   5.993   5.881  0.0840 -0.1275  0.2479
10043W        W26227  15.301   7.461  15.526  0.0671  0.1900 -0.0405
10044W        W26228  17.586  11.629  13.385 -0.3350  0.0334  0.0028
10045W        W26229   9.179  17.019  15.063 -0.0935  0.1527  0.2233
10046W        W26230   6.319  17.460  14.220  0.0334 -0.1982 -0.0492
10047W        W26231   7.399  12.578  16.292  0.0301 -0.1560 -0.1311
10048W        W26232   0.173   9.468   3.244 -0.1579  0.0473 -0.1441
10049W        W26233  10.214   3.445   0.961 -0.1847 -0.2680  0.1799
10050W        W26234   7.754   0.499   1.209  0.2382  0.0883 -0.2612
10051W        W26235  13.874   2.563   3.235  0.4399 -0.0278  0.1832
10052W        W26236  11.565  10.782  12.542 -0.0670 -0.0153 -0.3282
10053W        W26237  14.502   3.537   6.393 -0.2068  0.2351  0.1936
10054W        W26238   9.625  15.108  13.591 -0.3246  0.0899  0.0499
10055W        W26239  11.420   6.079  12.538  0.3704 -0.1829  0.0798
10056W        W26240  17.218   8.818  15.426  0.2774  0.1050  0.1001
10057W        W26241   7.889   4.753  12.635  0.0862  0.2487  0.1337
10058W        W26242  11.664  13.464  13.020  0.0389  0.0599 -0.0348
10059W        W26243  17.053  16.011   1.196  0.0979 -0.1757 -0.0339
10060W        W26244  14.464  17.419   5.728 -0.1882 -0.0292  0.0157
10061W        W26245  16.102   2.598   4.260 -0.1998  0.0772  0.1418
10062W        W26246   4.584   5.653  14.092 -0.1489  0.2900 -0.1253
10063W        W26247   7.498   3.608  15.444  0.0572 -0.1748  0.0765
10064W        W26248  10.432  11.520   0.397 -0.1049  0.2906 -0.0051
10065W        W26249  15.305   5.541  16.700  0.4319  0.0383 -0.2728
10066W        W26250  12.050   9.215   2.963  0.2055  0.0344  0.1863
10067W        W26251   1.981  15.135  12.517  0.0787 -0.2138 -0.1006
10068W        W26252   2.875  16.092   3.288  0.0684  0.1543  0.1921
10069W        W26253  10.174   5.550   1.246 -0.1578 -0.0551 -0.2161
10070W        W26254   7.043   9.259   2.051  0.0888  0.0394  0.0981
10071W        W26255  10.064   8.490   3.922  0.0008  0.0818  0.0442
10072W        W26256  14.464  16.146  12.405  0.0021 -0.4966  0.0972
10073W        W26257   5.777  10.235  13.581  0.1971  0.1022  0.0881
10074W        W26258  13.604   3.861   1.854  0.0394 -0.0712 -0.1785
10075W        W26259   6.652  13.803   1.340 -0.0450 -0.1236 -0.2453
10076W        W26260  11.872  17.650   5.001 -0.2071 -0.0212 -0.1639
10077W        W26261   5.742  16.752  14.073  0.4268  0.1447  0.0517
10078W        W26262  11.163  15.080   2.793  0.0650  0.1804  0.1731
10079W        W26263   8.273  10.606   2.228 -0.0007 -0.2174  0.1538
10080W        W26264   9.001   5.086   3.735  0.1552  0.1905  0.2060
10081W        W26265   5.249  17.978  16.432 -0.0737  0.0188 -0.0511
10082W        W26266   5.805   0.763  13.240 -0.1949 -0.1514  0.3977
10083W        W26267  16.350   5.522   5.194  0.3433  0.0494  0.0560
10084W        W26268   9.542  12.912   1.896  0.0212 -0.1618 -0.0468
10085W        W26269   1.193  15.393  15.048 -0.2610  0.3017 -0.0227
10086W        W26270  16.902   6.210   0.746  0.0284  0.3285  0.0022
10087W        W26271  13.350  16.651   1.370  0.0438 -0.0092 -0.1538
10088W        W26272   1.003  13.464   2.947 -0.1292  0.1840 -0.1714
10089W        W26273   8.656   2.890  15.564  0.1165  0.0985 -0.2931
10090W        W26274  11.078  17.029   0.383 -0.1781  0.3004 -0.0551
10091W        W26275   5.122   6.486  14.241  0.1603  0.2133 -0.0141
10092W        W26276   2.113   9.940   1.881 -0.1663 -0.0449 -0.0925
10093W        W26277  17.625   8.291  13.188  0.1426  0.0584  0.2013
10094W        W26278   0.343  17.986  16.542 -0.0674  0.1274 -0.2402
10095W        W26279  10.901   6.320   3.729 -0.0847 -0.0703  0.0647
10096W        W26280  15.950  17.336  15.556 -0.1327  0.0495 -0.0644
10097W        W26281   2.171  15.391  15.119  0.1685  0.2223  0.3113
10098W        W26282  15.759  15.076  14.176 -0.2529  0.1562 -0.0137
10099W        W26283  13.199   8.893   0.597  0.3706  0.2176  0.1919
10100W        W26284   0.451   3.607  15.558 -0.2778  0.0678  0.1754
10101W        W26285   2.879   1.641   0.324 -0.1381  0.3002 -0.4450
10102W        W26286   1.681  12.650   2.625  0.1330 -0.2689 -0.1053
10103W        W26287  17.378   7.138  16.097  0.1425  0.0893 -0.1576
10104W        W26288  15.679   5.266   0.225  0.1071 -0.3361 -0.2063
10105W        W26289  14.687   6.693  12.881 -0.0075 -0.3906  0.0328
10106W        W26290   2.090  13.873   0.581 -0.0274 -0.1156  0.3034
10107W        W26291  16.756   4.508   5.103  0.1000  0.0115  0.1996
10108W        W26292   7.678  10.339  16.183  0.0079 -0.0537  0.3056
10109W        W26293  17.719  16.813  12.323  0.2277  0.0398  0.2549
10110W        W26294   1.658   1.944  13.837  0.2054  0.0053  0.1810
10111W        W26295   2.178  10.588  15.096 -0.0101 -0.0323 -0.0104
10112W        W26296  12.809  13.402   0.795 -0.3824 -0.0159 -0.0876
10113W        W26297   9.855  16.665   4.560  0.1587  0.0245 -0.0543
10114W        W26298   2.344  17.722  15.387 -0.0808  0.3657 -0.1247
10115W        W26299   2.383   6.573  16.017 -0.3128  0.0163 -0.1358
10116W        W26300  17.803  13.857   5.246  0.2594  0.3227 -0.1562
10117W        W26301   9.650   9.722  13.373 -0.3669 -0.2068  0.0052
10118W        W26302   4.695   1.368   6.158 -0.0237  0.0409 -0.1444
10119W        W26303  10.951  16.540  11.856 -0.1359 -0.0997  0.0860
10120W        W26304  15.773   6.579  13.129  0.2801 -0.1098 -0.1119
10121W        W26305   0.074   1.446   4.366  0.3586 -0.1049 -0.2149
10122W        W26306   0.427   2.661   4.986 -0.0555  0.2128 -0.0822
10123W        W26307  15.094   9.074  13.224 -0.3537 -0.0593  0.1322
10124W        W26308  15.883   2.832  11.412  0.1991 -0.0449 -0.1766
10125W        W26309  14.047  17.165  12.354  0.0017 -0.0898 -0.0128
10126W        W26310   6.512  17.958   2.040  0.0249  0.1937  0.1170
10127W        W26311  13.571  10.105  16.254  0.1986  0.1356  0.2817
10128W        W26312  12.773  10.717  13.593 -0.0926  0.3206 -0.2105
10129W        W26313   5.830  12.174   4.349  0.1502 -0.3711  0.0330
10130W        W26314   2.072  14.819   1.202  0.2985  0.1224 -0.2527
10131W        W26315  10.775   8.377  11.908  0.0579 -0.0347  0.2801
10132W        W26316  15.874  14.034   4.144  0.0974 -0.0337  0.2615
10133W        W26317  17.353  17.390  13.594  0.1609 -0.1287 -0.0670
10134W        W26318  15.485   8.301  12.026 -0.0856  0.0465 -0.1620
10135W        W26319  14.807  12.225   0.706  0.0618 -0.3286  0.0198
10136W        W26320  12.184   6.123   1.187 -0.2115  0.3367 -0.0980
10137W        W26321   1.175   6.287   4.319 -0.2833 -0.1063  0.0459
10138W        W26322  15.593   7.287   5.339 -0.0409 -0.0120 -0.2432
10139W        W26323   3.934  10.478  10.189 -0.0657 -0.1303  0.1287
10140W        W26324   7.443   2.991   2.673 -0.1329  0.4816 -0.1206
10141W        W26325   7.917   4.018  12.731  0.1765  0.2718 -0.2116
10142W        W26326   5.557  11.507   0.447 -0.2169  0.3104 -0.1360
10143W        W26327   0.428   4.933  15.065  0.1375  0.0207 -0.0028
10144W        W26328  15.054   5.613   0.491 -0.1833  0.0302 -0.3238
10145W        W26329  10.949   5.737  16.646 -0.0188 -0.1324 -0.0430
10146W        W26330  17.207  14.830   3.861  0.3343  0.3140  0.0141
10147W        W26331   2.419   5.835   1.500 -0.0157 -0.0859 -0.2132
10148W        W26332   5.361   8.892   6.710 -0.1417 -0.0051 -0.0155
10149W        W26333   3.518   0.262  15.061  0.0299 -0.1983  0.1487
10150W        W26334  10.513   9.322  14.618  0.1318 -0.1475  0.0671
10151W        W26335  16.601   1.612   1.966 -0.0505  0.1176 -0.1084
10152W        W26336   7.884  14.670  12.928  0.0992 -0.2006 -0.4469
10153W        W26337   3.103   8.249  14.329  0.2704 -0.1727 -0.0012
10154W        W26338   6.607   5.706  13.539  0.1297 -0.0149  0.2036
10155W        W26339   8.180   8.529   5.132 -0.0432  0.1425  0.3916
10156W        W26340   9.688   4.111   5.481  0.0071  0.2532 -0.1269
10157W        W26341  12.296   0.206   3.540 -0.1913 -0.1793  0.0465
10158W        W26342   2.957  14.320  13.756 -0.3139 -0.1110  0.0382
10159W        W26343   3.064  17.812  13.536 -0.1776  0.1238  0.3773
10160W        W26344   1.735  12.540   1.787 -0.0897 -0.2279 -0.0660
10161W        W26345   1.898   9.773  11.866  0.1810  0.1916 -0.0400
10162W        W26346   4.258  12.101  16.426  0.1067 -0.0417  0.3316
10163W        W26347  13.659  16.625  11.694  0.1827  0.0662  0.0282
10164W        W26348   0.218  15.285  12.964 -0.2733 -0.0511 -0.2544
10165W        W26349   6.925   8.849  12.150 -0.0762  0.0388  0.3275
10166W        W26350   2.827   5.960   3.655 -0.2039  0.2262 -0.2364
10167W        W26351   7.079   6.831   0.480  0.0337 -0.0332  0.0261
10168W        W26352   5.281  12.806  14.054  0.1107 -0.0349 -0.2183
10169W        W26353  12.951   9.978  15.412  0.1482 -0.0062  0.1412
10170W        W26354   2.903  16.399   4.610  0.3033 -0.1656 -0.2840
10171W        W26355  17.523  16.399   1.289  0.2360  0.0501  0.1675
10172W        W26356   6.107  14.181  11.675  0.0077  0.0378  0.1498
10173W        W26357  14.088  11.549   4.877  0.1831  0.0579  0.0505
10174W        W26358   3.128   9.281   0.832  0.0818 -0.0212  0.0718
10175W        W26359  10.873  15.769   0.254 -0.3768  0.1741  0.0829
10176W        W26360   6.385  14.058   0.076  0.0322  0.1508  0.0158
10177W        W26361  14.643  17.005   3.996 -0.1216  0.2699  0.0053
10178W        W26362   1.307  13.611  15.760  0.1511  0.0912  0.1637
10179W        W26363   2.061   7.349  13.827  0.0433 -0.2279  0.0440
10180W        W26364   5.404  13.003  12.716 -0.0077 -0.0017  0.4997
10181W        W26365   3.034  14.688  15.431  0.1008 -0.0413  0.0915
10182W        W26366  17.220   9.264   5.728  0.1566 -0.0100 -0.2384
10183W        W26367  12.699  14.751  15.796  0.3258  0.1679  0.0239
10184W        W26368  13.832  10.806   5.324 -0.1817 -0.1486  0.1398
10185W        W26369  15.334  16.522  12.265  0.0473 -0.2382 -0.0002
10186W        W26370   0.454   9.735  14.619  0.0924  0.0669  0.1685
10187W        W26371   9.389  17.619   1.503  0.2093 -0.1655 -0.3013
10188W        W26372  15.404  15.918   3.461 -0.1246 -0.3127 -0.3683
10189W        W26373   8.870   3.858   3.660 -0.3835  0.0612 -0.1128
10190W        W26374   2.853   2.556   0.247 -0.0264 -0.0979  0.0819
10191W        W26375   5.730  15.493   5.214 -0.0084  0.2680 -0.1309
10192W        W26376   8.984   4.828   1.010  0.0251 -0.0830 -0.0233
10193W        W26377  16.320   3.161   0.921 -0.0725  0.0254  0.0055
10194W        W26378  11.622   8.459   1.540  0.2222 -0.2857 -0.0997
10195W        W26379   9.302   2.475   2.071 -0.0522 -0.1542 -0.2109
10196W        W26380  16.563  17.305  14.111  0.0316  0.0359  0.2057
10197W        W26381   1.887   3.429   4.745 -0.1758 -0.2568  0.4773
10198W        W26382  12.136   3.197   3.418  0.0979 -0.1764 -0.1742
10199W        W26383  11.193   8.708  15.094 -0.4771  0.4226 -0.3659
10200W        W26384   9.525  17.984  16.283 -0.2672 -0.1067 -0.4004
10201W        W26385  14.300   5.792  15.145 -0.1884  0.0378  0.0830
10202W        W26386   8.618  15.123  14.969 -0.1728 -0.1782 -0.0391
10203W        W26387  10.728  13.773   4.798 -0.3108  0.0998  0.0390
10204W        W26388   6.214   1.923   1.663 -0.5513 -0.2793 -0.1355
10205W        W26389   8.404   2.836   2.733  0.0636 -0.0008  0.0382
10206W        W26390  14.989   3.776  11.953  0.1586 -0.1268  0.1521
10207W        W26391  11.332  11.894   2.305 -0.0370 -0.0620 -0.1447
10208W        W26392  17.358  16.484   4.754 -0.0684  0.0460 -0.2859
10209W        W26393   6.982  15.838  13.224  0.3077  0.2471 -0.1000
10210W        W26394  11.633   7.377   4.423 -0.1000  0.0587 -0.0185
10211W        W26395  15.284  16.367  15.640 -0.0250 -0.0842  0.3704
10212W        W26396  17.742   4.564  12.388 -0.1003  0.0370  0.1700
10213W        W26397  17.446   1.400   1.676 -0.0669 -0.3041  0.1014
10214W        W26398   1.143  15.329  13.302  0.1873  0.1135 -0.2561
10215W        W26399   7.246   6.963  14.272  0.1461  0.1212  0.2531
10216W        W26400   1.541   7.051   0.535 -0.3607 -0.0040 -0.2409
10217W        W26401   3.581  14.163   2.536  0.1084 -0.1855 -0.1767
10218W        W26402   9.748   1.352   3.278 -0.0932 -0.0589 -0.0856
10219W        W26403   8.726  10.374  14.459 -0.1068 -0.2728 -0.1256
10220W        W26404   1.057   8.504  12.952  0.1325  0.0594  0.2464
10221W        W26405  12.978   6.686   4.425  0.1383 -0.7076 -0.2926
10222W        W26406   0.075  10.164  16.365 -0.0485  0.0485  0.1501
10223W        W26407   2.042  14.746   2.256 -0.2299  0.0649  0.0356
10224W        W26408  15.465   2.456   2.103 -0.0723  0.0891  0.2199
10225W        W26409   7.619   1.316  15.690 -0.2083  0.0592  0.0989
10226W        W26410   3.768   6.490  13.571  0.0340 -0.2355  0.0645
10227W        W26411   1.031  17.654   0.070 -0.1269 -0.0868  0.0521
10228W        W26412   6.441  17.918  14.030 -0.2748  0.5350 -0.0258
10229W        W26413  10.826  15.210  10.630 -0.1410 -0.1342 -0.0259
10230W        W26414   2.934   8.469   0.715  0.1319 -0.0809 -0.0766
10231W        W26415  11.002   7.113  12.331 -0.1140 -0.0995  0.1881
10232W        W26416  13.026  14.515  16.177  0.1687 -0.0955 -0.2997
10233W        W26417   7.243   1.055  13.426  0.0130  0.2415  0.1347
10234W        W26418   3.036   7.612   5.885  0.0113  0.0321 -0.0235
10235W        W26419   1.344  16.052   0.862  0.1103 -0.0175  0.0988
10236W        W26420  11.423  12.798  14.282 -0.0818  0.0880  0.1143
10237W        W26421  15.549   6.992   0.128 -0.0532  0.1332 -0.0537
10238W        W26422   3.525  10.417   0.226 -0.0220 -0.1851  0.0264
10239W        W26423  11.807  16.479   1.922  0.0178  0.2700 -0.0040
10240W        W26424   4.510   7.405  12.661  0.0880 -0.1283 -0.0877
10241W        W26425   7.115   0.334   0.025  0.0168  0.0079 -0.2417
10242W        W26426   4.856   7.970   4.334  0.0738  0.0631 -0.3848
10243W        W26427  10.131  11.915   1.021  0.0241 -0.1309  0.0587
10244W        W26428   7.651  13.475   2.614  0.2108 -0.5585 -0.1506
10245W        W26429   3.479  11.742   0.295 -0.1884 -0.3163  0.2663
10246W        W26430  16.871  12.019   2.749  0.0349  0.1912  0.2735
10247W        W26431  16.759   4.247   1.269 -0.2202  0.3287 -0.4569
10248W        W26432   9.315  12.112   4.389 -0.2126 -0.0871  0.0924
10249W        W26433  16.433  11.572  13.131  0.0232 -0.1701  0.2223
10250W        W26434   5.780   6.997   2.761  0.0373 -0.0722 -0.0341
10251W        W26435  15.129  12.811   4.271  0.1638 -0.0659  0.2470
10252W        W26436   8.736   9.517  13.459 -0.0829  0.0504 -0.0490
10253W        W26437  10.644   0.245  12.570 -0.1870  0.1686  0.1709
10254W        W26438   6.872   5.905   5.484  0.0289  0.5574 -0.1560
10255W        W26439  16.053  15.962  11.334  0.1061  0.2633  0.1114
10256W        W26440   8.738   8.241  11.709 -0.0459  0.0801  0.1382
10257W        W26441  16.851  15.674  11.903 -0.1459 -0.2860 -0.3005
10258W        W26442  17.620  13.414  15.681 -0.1412 -0.0661 -0.2437
10259W        W26443   4.632  14.932   3.540 -0.1529 -0.0303  0.2691
10260W        W26444  17.002   6.989   4.331  0.0402 -0.0510  0.1482
10261W        W26445  17.462   9.382   5.329 -0.2589 -0.0550 -0.2349
10262W        W26446   3.661   6.102   0.841  0.2727 -0.0558  0.1072
10263W        W26447  13.723  17.892   3.030 -0.1719 -0.2074  0.1189
10264W        W26448   2.849  14.939  15.840  0.0444 -0.2491  0.1283
10265W        W26449  15.956   0.902   1.431  0.2579  0.0418  0.0244
10266W        W26450   1.442   3.993   0.410  0.1156  0.0939  0.0731
10267W        W26451  17.293  15.133  13.950  0.2371 -0.2671  0.1643
10268W        W26452   0.399   5.811   5.121 -0.1408 -0.2063  0.2164
10269W        W26453  14.680   5.777   1.847 -0.3145 -0.0654  0.0307
10270W        W26454  13.693   2.250  16.256 -0.4042 -0.2226  0.1560
10271W        W26455  14.783  15.766  12.268  0.0007 -0.1228  0.1801
10272W        W26456   9.541  11.287  15.140 -0.0986  0.2875 -0.0758
10273W        W26457  15.933   9.973  11.174 -0.0590  0.0153 -0.0847
10274W        W26458  13.475   4.666  14.049  0.1100  0.0742 -0.4671
10275W        W26459   3.601  17.640  15.593 -0.1335 -0.2431  0.2064
10276W        W26460  16.823  17.877  15.807 -0.0224 -0.2931  0.1337
10277W        W26461   0.695  10.573   0.818  0.0545 -0.1918  0.3840
10278W        W26462   7.699   2.876  12.223 -0.0026  0.1033 -0.1396
10279W        W26463   8.118   9.359   0.560 -0.0903 -0.2301  0.0078
10280W        W26464   1.742  14.803  13.877 -0.0295 -0.2334 -0.0189
10281W        W26465  12.605   8.357   1.572 -0.2075 -0.2287  0.0446
10282W        W26466  14.974  11.133   0.035 -0.0619 -0.0613 -0.2816
10283W        W26467   2.516  14.968   3.843  0.1545 -0.1217 -0.2588
10284W        W26468   6.301   7.253  12.748 -0.2287  0.0834 -0.0403
10285W        W26469   4.265   3.231  15.864  0.1226 -0.0054  0.0075
10286W        W26470   0.396   0.976   1.799 -0.1036 -0.0296 -0.3097
10287W        W26471   3.621  16.854   2.054  0.0655 -0.0287  0.0740
10288W        W26472  10.974  10.304   2.305 -0.0960 -0.1370 -0.0465
10289W        W26473  17.590  10.698   1.315  0.1632  0.1176  0.0701
10290W        W26474   9.834  15.703   2.141 -0.1114  0.3632  0.0259
10291W        W26475   0.492  14.682   0.041 -0.0111  0.0600 -0.0800
10292W        W26476  12.673  15.451  14.078  0.3569 -0.0906 -0.1261
10293W        W26477   3.461  15.198  15.284  0.2058 -0.3251 -0.2578
10294W        W26478   2.715   1.745   1.840  0.0386 -0.0239  0.0601
10295W        W26479   8.620  14.858   0.391 -0.0260  0.0799  0.1383
10296W        W26480  16.335   2.543  11.447  0.0538  0.2788 -0.0342
10297W        W26481   8.933   9.334  15.456 -0.0496 -0.1647  0.3526
10298W        W26482   1.567   8.703  16.470  0.3573  0.1470 -0.1346
10299W        W26483   5.308   5.101   4.097 -0.1956  0.0177 -0.1134
10300W        W26484   4.976   8.372  14.321  0.1854 -0.2516 -0.0616
10301W        W26485  17.467  14.348   4.025  0.2942 -0.1376 -0.0144
10302W        W26486   1.391  14.357  16.654 -0.3673 -0.0366  0.1109
10303W        W26487   2.920   5.004  15.344 -0.1600 -0.1135 -0.0111
10304W        W26488  15.068   5.226  15.642 -0.1663 -0.2172  0.0249
10305W        W26489   4.050   8.266  12.319 -0.0157  0.2544  0.2896
10306W        W26490   8.226   3.773   2.937  0.0981 -0.2052  0.1904
10307W        W26491   5.425   4.815   0.359 -0.0444 -0.1165 -0.1247
10308W        W26492   4.477   3.467   1.797 -0.0124 -0.0764 -0.4207
10309W        W26493   2.669  14.712  14.183 -0.1543  0.4172  0.0727
10310W        W26494   5.783  13.451   2.621  0.0815 -0.2494 -0.0894
10311W        W26495   7.085  11.294   2.586 -0.2474  0.0708 -0.0247
10312W        W26496  17.306   9.139  13.333 -0.0786  0.1987  0.0594
10313W        W26497  17.150   6.719   5.099  0.1202  0.4247 -0.1590
10314W        W26498  10.768   1.120  12.471  0.2387 -0.2470 -0.0568
10315W        W26499  12.362  10.255   1.961 -0.2334  0.2660  0.1377
10316W        W26500   8.921   6.627   2.815  0.0436 -0.0114 -0.0080
10317W        W26501  15.465  11.608   1.003 -0.0219  0.3741 -0.1023
10318W        W26502   3.385   1.380   2.583  0.1150  0.3114 -0.0790
10319W        W26503   3.441   8.650   0.126  0.0011  0.5374  0.1629
10320W        W26504   3.457   2.440   0.934 -0.0854 -0.0332  0.0987
10321W        W26505  16.948  10.703   4.773  0.0761 -0.2090  0.0798
10322W        W26506   7.200  15.298   4.244 -0.0285 -0.1337  0.1073
10323W        W26507   7.768  11.766   2.833 -0.4305 -0.2167 -0.0111
10324W        W26508   8.644   7.522   1.150  0.0227 -0.0287 -0.2454
10325W        W26509  14.408   0.115  13.086 -0.4595  0.1081  0.1042
10326W        W26510   9.679   9.271   3.601 -0.2330 -0.4203  0.0271
10327W        W26511  15.214  14.031  13.015 -0.0580 -0.0373 -0.2447
10328W        W26512   0.964   7.010   3.735  0.0396 -0.4619  0.3480
10329W        W26513   6.034   7.875   1.531  0.0227 -0.1120  0.3279
10330W        W26514   1.619   3.368  14.861  0.1489  0.0952 -0.1972
10331W        W26515  14.535   0.518   2.362  0.2113 -0.1461  0.1569
10332W        W26516   4.700  12.786   1.692  0.1594  0.1211 -0.2558
10333W        W26517  16.513   6.875   2.619  0.1549 -0.2532 -0.1844
10334W        W26518  15.249  10.677  16.575 -0.1982  0.0181 -0.2639
10335W        W26519   2.327   7.118   1.918  0.1149  0.0576  0.1139
10336W        W26520   1.589   5.948   2.038  0.4444  0.0311 -0.0026
10337W        W26521  14.170   7.232   2.052 -0.1275  0.1071 -0.0822
10338W        W26522   3.673   0.861  15.984  0.1452 -0.2012  0.3036
10339W        W26523  17.438   5.806  12.428  0.4064  0.2455  0.1462
10340W        W26524  12.042   7.379   3.537  0.3053 -0.0977 -0.2828
10341W        W26525   2.214  11.098   3.181 -0.1584  0.3031 -0.0634
10342W        W26526  12.182   7.844   5.425 -0.0970 -0.1549 -0.1129
10343W        W26527   0.678   3.330   0.727  0.1244  0.1622  0.4335
10344W        W26528   8.913   2.293   1.780  0.1957 -0.2269  0.2635
10345W        W26529  12.589   3.381   4.575  0.1912 -0.0027 -0.0468
10346W        W26530   9.390   2.482  12.246  0.0378  0.3179 -0.3081
10347W        W26531   2.614   8.598  14.133  0.0470  0.0963 -0.0059
10348W        W26532  11.715   7.939   2.290  0.3170 -0.0990 -0.1896
10349W        W26533   2.071  15.812   1.629  0.2380 -0.2026  0.3207
10350W        W26534   8.747   4.812   5.312  0.1290 -0.1559  0.0204
10351W        W26535   4.898   1.072  15.861 -0.1770  0.2539  0.1224
10352W        W26536   9.929   7.221   5.294  0.2484  0.2707 -0.1546
10353W        W26537  17.085  12.541  16.342  0.3998 -0.0979  0.0522
10354W        W26538  15.787  13.424  13.342  0.0065  0.0371 -0.2226
10355W        W26539   6.801   6.298  11.892  0.1983 -0.1967  0.2040
10356W        W26540   2.114   9.883   4.787  0.0593 -0.0888  0.0209
10357W        W26541   4.740  16.820   4.199 -0.2379  0.1739 -0.2366
10358W        W26542  16.927  17.140  12.655  0.0066 -0.3297  0.0871
10359W        W26543  11.067   1.535  12.283  0.0183 -0.1072  0.0366
10360W        W26544  13.815  13.036  12.429 -0.0724 -0.1024 -0.0390
10361W        W26545   4.473   5.285  13.119 -0.1167 -0.2115  0.2031
10362W        W26546   9.579   5.678   2.171  0.0047  0.0790 -0.0460
10363W        W26547  16.852   4.621  15.739  0.0715  0.1623 -0.1674
10364W        W26548  15.789  16.781  12.298 -0.0233 -0.0776  0.1188
10365W        W26549   7.350  16.865   1.302 -0.0360  0.1199 -0.1475
10366W        W26550  12.459  13.745  14.074  0.1815  0.3015  0.0430
10367W        W26551   1.093   6.115  16.302 -0.0212 -0.1076 -0.0736
10368W        W26552  17.999   8.857  14.672  0.0236 -0.1884 -0.0394
10369W        W26553  11.260   6.738   3.723 -0.0795 -0.0557 -0.3184
10370W        W26554   0.522   7.605   0.587 -0.2131  0.4229 -0.0499
10371W        W26555   1.043   1.515  14.073  0.0170 -0.0120 -0.4287
10372W        W26556   5.187  10.260   5.622 -0.1400 -0.0550  0.1764
10373W        W26557   4.327  12.502   2.287  0.0925 -0.2324  0.2590
10374W        W26558   8.941  17.728  13.766 -0.0049  0.1723  0.0193
10375W        W26559   0.103   6.753   5.213 -0.1419  0.2201 -0.5257
10376W        W26560   5.346   4.065   2.572 -0.5735 -0.0901 -0.1169
10377W        W26561  12.838   1.879   0.927 -0.0659  0.0240  0.1117
10378W        W26562   3.006   4.100  16.385 -0.1681 -0.1284 -0.1910
10379W        W26563  10.322  12.570   2.188  0.3314  0.0996  0.1634
10380W        W26564   8.748  17.429   2.565  0.2585  0.0815  0.1349
10381W        W26565   8.991   8.200  14.046 -0.1555 -0.0377 -0.2428
10382W        W26566   5.519   0.228   1.750 -0.1639  0.1623 -0.0829
10383W        W26567  11.023   4.160   3.379 -0.0618  0.0275  0.2686
10384W        W26568  11.436   5.171   4.572  0.2410 -0.2030 -0.1419
10385W        W26569  16.089  12.547  15.001 -0.2178 -0.3889  0.1202
10386W        W26570   2.117  12.965  15.568 -0.1940 -0.0209 -0.2426
10387W        W26571  14.340  13.991   0.542 -0.1752  0.1781 -0.1490
10388W        W26572  10.498   6.510  14.516  0.1925  0.0577  0.1955
10389W        W26573  12.077  16.927   4.379 -0.3743 -0.0186 -0.2748
10390W        W26574   3.445   7.525   6.240 -0.2761  0.0786  0.1543
10391W        W26575  16.554   6.726  13.423 -0.0343  0.0106 -0.0018
10392W        W26576  10.310  10.690  10.606 -0.1256 -0.1217 -0.0170
10393W        W26577   8.580   7.434  14.484 -0.0147 -0.0041  0.0924
10394W        W26578  13.540   9.711  16.575 -0.3060 -0.1768 -0.1149
10395W        W26579   4.123  13.525  12.479  0.0540 -0.0301 -0.3528
10396W        W26580  17.995  16.125   5.122 -0.4006  0.0283 -0.0594
10397W        W26581   1.738  15.360  11.684  0.2193 -0.0999 -0.1512
10398W        W26582  13.270   2.749  14.867  0.0664 -0.3567  0.0084
10399W        W26583   7.825   8.827  12.273  0.1507 -0.0381 -0.0312
10400W        W26584   6.216  16.906   5.189  0.2091 -0.0239 -0.4609
10401W        W26585  13.134   0.656   4.181 -0.0812 -0.3107  0.0968
10402W        W26586  15.610   0.214   3.298  0.3756  0.0419 -0.1892
10403W        W26587   1.255   2.410  13.204  0.1075 -0.1993 -0.1557
10404W        W26588  15.072   9.747   5.514  0.1612 -0.0462 -0.1982
10405W        W26589   9.362  16.170  15.251  0.0938  0.2012 -0.1150
10406W        W26590   1.487   9.770   3.847  0.3335 -0.0656 -0.4214
10407W        W26591   5.306   5.853   5.337 -0.0284 -0.0780 -0.1457
10408W        W26592  15.873  14.365   5.125 -0.0550  0.0824 -0.2011
10409W        W26593  16.857  12.572   4.339  0.0010  0.0541 -0.0657
10410W        W26594   7.546   7.963  11.033  0.2841 -0.0221 -0.0062
10411W        W26595  14.079  12.530   3.879  0.0477  0.1628  0.0080
10412W        W26596  16.937   6.899   1.842  0.1775  0.1557 -0.0216
10413W        W26597  15.847   4.481  16.437  0.2042 -0.1226 -0.1685
10414W        W26598  11.009   6.679  16.501  0.0491  0.0751 -0.1836
10415W        W26599  10.388  12.683  13.556 -0.1827 -0.2916 -0.0525
10416W        W26600   3.741  16.317  13.365 -0.0906 -0.0763 -0.1061
10417W        W26601  13.258   4.306  13.721  0.0276 -0.1881  0.2296
10418W        W26602  17.482   4.643  13.991 -0.0572  0.0459 -0.0647
10419W        W26603   5.863  12.917   0.358  0.0231 -0.1317  0.2070
10420W        W26604   3.136   3.687   0.078  0.1979  0.3727  0.1427
10421W        W26605   4.799   8.114  12.831  0.2567 -0.1542 -0.2380
10422W        W26606  13.314  12.644  13.053 -0.1157 -0.3099 -0.0498
10423W        W26607  17.589   0.681   3.747  0.2847 -0.1891 -0.2412
10424W        W26608   6.574   8.945   5.542 -0.3076  0.0768  0.0333
10425W        W26609   5.216  15.118  15.444  0.0323  0.0027  0.0924
10426W        W26610   3.585   5.067   4.782 -0.2650  0.0595  0.0579
10427W        W26611   3.763  10.671  12.277 -0.0553  0.0882 -0.1284
10428W        W26612   8.858  12.154   6.085  0.2564  0.2251  0.0689
10429W        W26613  12.905  10.894  12.436  0.0667 -0.2747 -0.0453
10430W        W26614  10.625   9.809  14.855  0.0258 -0.1262 -0.1380
10431W        W26615  17.778   1.319   3.216 -0.0506  0.0126  0.3394
10432W        W26616   5.040   6.993   1.262  0.2406 -0.0002  0.2302
10433W        W26617  13.119  12.479  13.913  0.1883 -0.2058  0.0471
10434W        W26618  14.892  16.388   5.600  0.2575  0.0867 -0.1596
10435W        W26619  12.323   3.528   3.751  0.0757 -0.1086  0.1717
10436W        W26620   3.649  11.196  13.953 -0.2062 -0.1266  0.1098
10437W        W26621  15.350   3.318   4.462 -0.4440 -0.1560 -0.0970
10438W        W26622  17.743   4.780   2.770  0.0444  0.2059 -0.2307
10439W        W26623  17.173  16.339   4.239 -0.2156  0.3526  0.2246
10440W        W26624  13.180  11.704   0.168 -0.0045  0.1264  0.1516
10441W        W26625   5.592  11.090  16.363 -0.2501  0.0972  0.3778
10442W        W26626   2.380  17.478   5.121 -0.0722  0.0891 -0.3055
10443W        W26627  12.898   6.568   1.779  0.2627 -0.0321  0.0706
10444W        W26628  16.175  10.945   0.750  0.1396  0.2753 -0.0146
10445W        W26629  17.251   6.666  16.095 -0.1454 -0.3561 -0.1254
10446W        W26630   7.754   5.925  16.536  0.0435  0.2648 -0.0051
10447W        W26631   5.302   5.632  15.604  0.0110 -0.0411  0.0830
10448W        W26632   3.243  16.709   6.086  0.1486 -0.0282 -0.3092
10449W        W26633  13.169  10.680   0.087  0.0063  0.0065  0.1692
10450W        W26634   3.800   8.975  12.919  0.2791  0.0986 -0.1481
10451W        W26635   7.534  16.938   3.440 -0.3321 -0.1755 -0.0897
10452W        W26636   4.121  17.328  11.917  0.0008  0.1787 -0.0044
10453W        W26637   2.107   1.489  11.853  0.1064  0.1121  0.0995
10454W        W26638   5.368   7.541  15.985 -0.1055 -0.1965  0.2187
10455W        W26639  17.450  14.388  12.852 -0.0826 -0.0758  0.0434
10456W        W26640   5.733   0.329   4.186  0.4285 -0.0732  0.0112
10457W        W26641  15.161   1.693  11.191  0.0132  0.0152  0.0737
10458W        W26642   2.502  16.509   4.300 -0.0889  0.0661  0.0925
10459W        W26643  15.490  15.360  11.637 -0.0380 -0.2823 -0.2744
10460W        W26644   5.219   8.101   3.258  0.1675 -0.1813  0.2008
10461W        W26645  13.552  14.825   4.868  0.1662  0.0039  0.0682
10462W        W26646   4.435  17.912   2.370 -0.0334 -0.1182  0.2078
10463W        W26647   8.444   5.102  15.059  0.0847  0.0904 -0.0733
10464W        W26648  12.358   8.597  12.191  0.1899  0.0363 -0.1880
10465W        W26649  14.162   1.447  14.424  0.0938  0.0481  0.3903
10466W        W26650   0.647  14.857   2.761  0.0515  0.1204  0.2453
10467W        W26651  13.142  12.280   3.991 -0.1035  0.3188 -0.0183
10468W        W26652  12.169   3.799   1.183 -0.0762  0.0480  0.0664
10469W        W26653   1.047  13.741  12.995  0.1558  0.1755  0.3414
10470W        W26654  13.678  17.747  11.374  0.1902 -0.1888  0.2471
10471W        W26655  13.860  14.393   0.514 -0.2472  0.1152 -0.1028
10472W        W26656   9.766  14.465   5.616  0.3331  0.1904  0.0621
10473W        W26657   9.720  10.953  13.745 -0.1075  0.0425 -0.1533
10474W        W26658   9.174  15.184  13.321 -0.2404  0.0298  0.0692
10475W        W26659  16.208   2.588  15.661  0.2197 -0.0642 -0.2209
10476W        W26660   6.231  14.266  12.209  0.0939  0.2413 -0.1266
10477W        W26661   7.679   7.411   2.059 -0.1781 -0.0277  0.0328
10478W        W26662  15.455   5.851   6.105  0.1998 -0.0985 -0.1092
10479W        W26663   8.166  12.131  16.052 -0.0173 -0.0803 -0.3757
10480W        W26664  16.715   8.137   0.168 -0.1438 -0.2511 -0.2549
10481W        W26665   9.092  10.509  14.889  0.1919  0.5288  0.2061
10482W        W26666  17.635   7.872   4.686  0.0140  0.3147  0.0748
10483W        W26667   2.642  15.352   2.169  0.1031 -0.0208  0.0471
10484W        W26668  15.075  13.257  12.309  0.0349  0.1754  0.2256
10485W        W26669   7.145   0.730   1.365  0.1237 -0.1276  0.0412
10486W        W26670  13.314  15.825  15.369 -0.1753 -0.0626 -0.2716
10487W        W26671   3.651   9.276   0.861  0.2540 -0.0490 -0.0808
10488W        W26672   1.769  17.248   1.271 -0.0564 -0.1925 -0.1981
10489W        W26673  10.156   0.372  14.458 -0.2007 -0.4381 -0.0790
10490W        W26674   0.778   8.274   5.160  0.1267  0.0084 -0.1189
10491W        W26675  13.732  14.183   0.018  0.0272 -0.0971 -0.2154
10492W        W26676   0.448   4.653  14.064 -0.1502 -0.0941 -0.3081
10493W        W26677  17.365   7.123  16.565  0.3762  0.2116  0.1673
10494W        W26678   1.129   6.052  11.851 -0.2956  0.0347  0.0335
10495W        W26679  11.389   1.632  15.052  0.2091 -0.1336  0.0787
10496W        W26680   0.668  10.511   4.604 -0.3741  0.0037  0.1002
10497W        W26681   0.418  16.171   3.901  0.0638  0.2171 -0.2700
10498W        W26682  10.092  17.948   1.842 -0.2102  0.0835  0.0952
10499W        W26683  12.471  10.697  12.125 -0.2853  0.1004 -0.3726
10500W        W26684  17.165  16.493   2.110 -0.1338 -0.1551  0.2948
10501W        W26685   1.400   9.412   2.323 -0.0157 -0.5191  0.3251
10502W        W26686   3.661  17.860  14.059  0.0189  0.4226  0.1365
10503W        W26687  16.758  12.188  14.069  0.0752 -0.0124  0.1909
10504W        W26688  13.660   8.630   5.282  0.0466 -0.1021  0.0609
10505W        W26689   3.654  16.940   2.928  0.1382 -0.1504  0.1519
10506W        W26690   5.141   9.407   3.011 -0.0637  0.0085  0.3717
10507W        W26691  11.467  13.166   0.494  0.2279 -0.0173  0.1126
10508W        W26692   3.458  13.251   0.593 -0.0211 -0.1484 -0.1078
10509W        W26693  14.614  15.278  13.400 -0.1170 -0.2050  0.1635
10510W        W26694   1.944   7.670  11.565 -0.0672 -0.3875  0.2042
10511W        W26695   3.724  12.672   0.256 -0.3189 -0.1203  0.0764
10512W        W26696   4.630  12.499   2.689 -0.2060 -0.1380 -0.0166
10513W        W26697  16.497  11.233   5.456  0.1215  0.0337  0.2720
10514W        W26698   9.523  16.100   0.668 -0.1616 -0.4988  0.1323
10515W        W26699  16.216   4.840   3.774  0.2489  0.0053 -0.0371
10516W        W26700  16.240  12.834  13.509 -0.1301 -0.3828 -0.0581
10517W        W26701  15.021   5.765  12.899 -0.2099  0.0433  0.1968
10518W        W26702  10.990  16.604   3.159 -0.0402 -0.0183  0.0336
10519W        W26703  14.924   9.383   3.325 -0.2827  0.1125 -0.1722
10520W        W26704  13.457   0.054  14.592  0.0002  0.1024  0.2003
10521W        W26705   0.328  14.978  14.975 -0.1840 -0.1660  0.2972
10522W        W26706  14.918  10.736  12.350  0.1364 -0.3561  0.0149
10523W        W26707   4.482   7.481  14.041  0.1360 -0.2517 -0.2206
10524W        W26708  16.118  11.285  11.864 -0.1504  0.0847  0.0950
10525W        W26709   3.013   8.471  16.611 -0.0007  0.0167 -0.0492
10526W        W26710   8.462  16.512   0.770 -0.0894  0.1658  0.1182
10527W        W26711   6.929  17.247   2.994 -0.1456 -0.0808  0.0881
10528W        W26712   3.844  17.643   5.918  0.3240 -0.1155 -0.0131
10529W        W26713   8.328   2.779   3.241 -0.1905 -0.0396 -0.2068
10530W        W26714  12.139  15.775   3.339  0.1634 -0.1972  0.4157
10531W        W26715   3.611   5.647  14.257 -0.3490 -0.0567 -0.0199
10532W        W26716  17.481  17.600  14.130  0.3550  0.1951  0.4628
10533W        W26717  15.726  17.821   3.673 -0.1113 -0.2334 -0.1485
10534W        W26718  17.071  15.716   4.075  0.1832 -0.0867  0.1974
10535W        W26719   5.422   1.339  13.995 -0.2330 -0.0019  0.1617
10536W        W26720  15.940   4.686   0.232 -0.0003 -0.0799  0.0984
10537W        W26721   2.399   4.715   2.209  0.2850  0.1559  0.0316
10538W        W26722   3.583   5.684  12.653 -0.1495 -0.0656 -0.2815
10539W        W26723   0.531   7.778  13.968  0.2261  0.0183  0.0582
10540W        W26724   2.525  14.865   4.676  0.0175  0.2079 -0.1103
10541W        W26725  16.302   6.630  13.026 -0.0340 -0.0279  0.0435
10542W        W26726  10.992   1.867   3.776 -0.1764 -0.1622 -0.0247
10543W        W26727  16.151  16.678  16.623 -0.2217  0.2216  0.1017
10544W        W26728   5.964   7.723  15.415  0.1583 -0.2045  0.2366
10545W        W26729  11.980  11.662   0.144 -0.0237 -0.2260  0.0222
10546W        W26730  12.153  15.143  12.625  0.1116  0.2136  0.0744
10547W        W26731  16.118   4.086   1.475 -0.0345 -0.2187 -0.0920
10548W        W26732   7.169  16.275   4.463 -0.0171  0.0055  0.1696
10549W        W26733  11.868   8.568   3.696 -0.0829 -0.0186 -0.2728
10550W        W26734  14.650  11.184  14.501 -0.1380 -0.0079 -0.0157
10551W        W26735  12.599   4.330   4.376  0.1523  0.0338  0.0238
10552W        W26736   2.604  14.207  16.057  0.0256 -0.3237  0.1450
10553W        W26737   3.979  17.030   3.704 -0.2350 -0.1798  0.1190
10554W        W26738  17.431   0.365   0.165 -0.1710  0.1465 -0.2688
10555W        W26739   9.062  11.030   2.205 -0.1352  0.0606  0.0111
10556W        W26740  16.332   6.611  16.261  0.1615 -0.0742 -0.3422
10557W        W26741  13.485  13.809   2.913 -0.2584 -0.0425  0.2850
10558W        W26742   5.543   9.466   4.257 -0.2474 -0.0347 -0.2522
10559W        W26743  12.248   1.066   4.140  0.0370  0.1420 -0.0390
10560W        W26744  17.287  17.885  15.580 -0.2078  0.0262 -0.1252
10561W        W26745  14.265  16.826  15.566 -0.1074 -0.3041  0.4040
10562W        W26746   0.354   1.691   4.761  0.0115  0.0325 -0.2120
10563W        W26747  16.711  12.040  15.942 -0.0227  0.1084 -0.2270
10564W        W26748   0.291  17.977  11.881 -0.2681  0.0197 -0.0992
10565W        W26749   8.724  14.762  12.847  0.2125 -0.0224 -0.4257
10566W        W26750  14.886   8.716   1.010 -0.0819  0.1416 -0.0504
10567W        W26751   6.996   0.216  15.734  0.5292  0.0022  0.0989
10568W        W26752   3.755   8.470  12.762  0.0997  0.3650  0.0290
10569W        W26753   8.101   5.661  15.166 -0.0199  0.0876 -0.0599
10570W        W26754   6.163   7.638  12.212 -0.1108  0.0480 -0.3282
10571W        W26755  17.733   0.053   2.362  0.3969 -0.0050  0.1352
10572W        W26756  13.972  17.630  13.845 -0.0703 -0.0606  0.1193
10573W        W26757  16.910  10.270   3.123 -0.0786 -0.0687 -0.0995
10574W        W26758   0.399  15.465  14.827  0.0693  0.0356  0.0296
10575W        W26759  17.538  11.355   5.271 -0.0646 -0.0878 -0.1786
10576W        W26760  16.594  11.555   2.874  0.1712  0.2631  0.1404
10577W        W26761  16.984  12.780   1.458 -0.0517  0.3825  0.3047
10578W        W26762   0.343   2.241   1.296  0.0176 -0.0118 -0.0343
10579W        W26763   4.281  11.765  12.319 -0.0289  0.0446  0.1483
10580W        W26764  14.014   0.772  15.489  0.0890 -0.1205  0.3097
10581W        W26765  16.970   6.272   1.261 -0.0620 -0.0353 -0.1720
10582W        W26766  12.264  14.627  14.550  0.1607  0.2730  0.2873
10583W        W26767   0.395   9.543   2.396  0.0224  0.0860 -0.0684
10584W        W26768   3.033   1.197   0.666 -0.1254 -0.1895 -0.3833
10585W        W26769  13.661   6.101  16.388 -0.0155  0.0863  0.1940
10586W        W26770   0.222  12.345  11.990 -0.2535 -0.1629  0.1212
10587W        W26771  15.068  10.973  15.244 -0.3263  0.0459  0.0576
10588W        W26772  11.307   6.571  13.431  0.1110 -0.2639 -0.0124
10589W        W26773  10.092  14.123   0.074 -0.1158  0.0827 -0.0402
10590W        W26774  16.483   3.355  15.147 -0.3808 -0.1732 -0.0224
10591W        W26775   3.726   4.596   4.739  0.0487  0.0569 -0.3926
10592W        W26776   9.223   6.108   2.270 -0.0741  0.2915  0.1107
10593W        W26777  13.621   7.672  10.481 -0.4498 -0.3591  0.0668
10594W        W26778   7.408  10.452  15.095 -0.1382  0.0267  0.1489
10595W        W26779   2.588  11.585   2.368 -0.0577 -0.0180  0.4757
10596W        W26780  15.744   6.329   2.648 -0.1680 -0.2914 -0.2479
10597W        W26781   4.214   2.922  16.692 -0.2922  0.1298  0.1006
10598W        W26782   1.733  13.917  16.476  0.1037 -0.1333 -0.0357
10599W        W26783   7.199   6.366   0.539 -0.2349 -0.0178 -0.0562
10600W        W26784  17.230  11.964  12.366  0.3271 -0.0966  0.1034
10601W        W26785   0.935  16.774   0.587 -0.2593  0.1427 -0.0344
10602W        W26786  14.750  13.333  11.982  0.1604 -0.1339 -0.0915
10603W        W26787  13.835  17.081  11.904  0.1790  0.0905 -0.1797
10604W        W26788   9.823   3.704  13.787 -0.4809  0.0694 -0.1177
10605W        W26789   0.976   9.461   5.170  0.2751  0.3270 -0.1437
10606W        W26790  13.749  17.994  15.029  0.2465 -0.0878  0.1572
10607W        W26791  11.422   4.709   2.186  0.3475  0.1481  0.1707
10608W        W26792   9.161   5.359   4.117 -0.1548  0.2184  0.2356
10609W        W26793   8.890   4.172   4.751  0.0228 -0.2662 -0.0033
10610W        W26794   0.021  13.780  16.506  0.0088  0.0820 -0.0803
10611W        W26795  16.972   4.549  11.343  0.3301  0.1171  0.0561
10612W        W26796  15.869  17.420   2.850 -0.1030  0.1883 -0.3425
10613W        W26797   8.899  15.380   4.946  0.0644  0.0017 -0.1324
10614W        W26798   5.368  12.935   0.219 -0.2065 -0.1478  0.1240
10615W        W26799  12.213  10.380  16.245  0.0658 -0.1605  0.3324
10616W        W26800   8.613  16.282  11.405 -0.1361  0.2457  0.1369
10617W        W26801   9.676  17.505  16.307  0.0208 -0.1540 -0.1405
10618W        W26802  15.008   8.680  12.674 -0.1329  0.1798 -0.1505
10619W        W26803   0.592  10.207  11.891 -0.0237  0.0446  0.1191
10620W        W26804   3.462  14.379   1.760  0.3755 -0.0492 -0.0879
10621W        W26805  12.132   9.986  10.962  0.0805  0.1512 -0.3878
10622W        W26806  16.008  16.963  12.925 -0.1336  0.0337  0.2139
10623W        W26807  17.921   4.220   5.854 -0.1773 -0.2037  0.1475
10624W        W26808   3.768  13.247  12.051 -0.1796  0.0184 -0.1865
10625W        W26809   4.548   9.076   4.998  0.1420 -0.1917  0.1608
10626W        W26810  13.957   2.107   0.598 -0.0703 -0.0997  0.2636
10627W        W26811  11.961   8.614   1.174  0.1608  0.1140 -0.2091
10628W        W26812  16.677  17.658  10.646 -0.0513  0.1738  0.3381
10629W        W26813  17.925   2.480  16.036  0.2523 -0.0659 -0.0486
10630W        W26814  15.206  10.923   3.861 -0.0501  0.1120 -0.2284
10631W        W26815   7.343  14.202  12.417  0.0246 -0.1315 -0.1078
10632W        W26816   1.357   7.875   1.046  0.1514 -0.0290  0.2118
10633W        W26817   5.373   8.640   4.121 -0.2533 -0.2334  0.1770
10634W        W26818   0.169  10.419   5.661  0.2617 -0.3543 -0.1050
10635W        W26819   6.174  16.597  15.326  0.1136  0.0567  0.0217
10636W        W26820   2.347  17.239   1.823 -0.2766 -0.2971 -0.0832
10637W        W26821  13.751   4.375   3.298  0.0463 -0.0104 -0.0065
10638W        W26822  14.739   3.175   4.256 -0.0748 -0.0622  0.2360
10639W        W26823   7.202   3.872  14.452  0.0978 -0.0870 -0.0818
10640W        W26824  14.449  15.376   2.309 -0.1854 -0.2129 -0.2378
10641W        W26825  17.217  13.872   4.059  0.2798 -0.0759  0.1317
10642W        W26826   0.808  12.202   1.784 -0.0830 -0.1200  0.1883
10643W        W26827   7.249  14.692  13.704 -0.3509 -0.1962  0.0832
10644W        W26828  16.872  17.541   0.767 -0.0991  0.2852 -0.2526
10645W        W26829  15.109   9.500  15.391  0.0521 -0.0764  0.0688
10646W        W26830   2.123  13.337   4.100  0.2834  0.2258  0.1387
10647W        W26831  11.102   4.883   4.200  0.1976 -0.0080 -0.1859
10648W        W26832  15.877   0.979   4.297  0.1214  0.2713  0.2845
10649W        W26833   4.729  12.056   3.993  0.2754 -0.0833 -0.0611
10650W        W26834   8.245   9.716   2.539  0.1427  0.0434 -0.3579
10651W        W26835  17.494   3.526  11.291 -0.0764 -0.1157  0.2240
10652W        W26836   0.377  16.382   1.425  0.0012 -0.0690 -0.2878
10653W        W26837  13.724   0.617   3.340 -0.1110  0.1239 -0.1249
10654W        W26838   3.409  10.890  13.077 -0.0364 -0.3700  0.0739
10655W        W26839   6.581  17.328  13.179 -0.2813  0.0181 -0.0472
10656W        W26840  17.841   2.608  11.639  0.1529 -0.0409  0.2277
10657W        W26841  14.879   5.139   0.673  0.1348 -0.1661  0.2502
10658W        W26842  11.241   6.552   4.193 -0.0283 -0.0652 -0.0240
10659W        W26843  13.121   4.211  14.706  0.0510 -0.1544 -0.0987
10660W        W26844   9.018  13.567   4.417  0.0286  0.3855 -0.1164
10661W        W26845  10.920   1.449  12.793 -0.1620  0.5626  0.0983
10662W        W26846  13.675  15.201   2.878  0.1659  0.4133  0.0661
10663W        W26847   9.505   8.211   2.739  0.1101  0.3263  0.2250
10664W        W26848   4.839   2.627   4.498  0.0999 -0.0598  0.2944
10665W        W26849   4.195  14.884   2.911  0.0559 -0.0388 -0.1228
10666W        W26850   3.480   8.580   3.456 -0.0932  0.0992  0.0683
10667W        W26851  13.433  16.343  14.874  0.1548  0.2083  0.0210
10668W        W26852   7.406  15.621  15.293  0.0521 -0.1642 -0.0406
10669W        W26853   3.188   8.072  13.467  0.0720  0.0283  0.1175
10670W        W26854   9.892  10.696   1.726 -0.0688  0.2417 -0.1344
10671W        W26855  15.730   0.808  16.647 -0.0845  0.1854 -0.3237
10672W        W26856  12.678   0.637   4.483  0.1985  0.3062  0.1610
10673W        W26857   4.875  17.853  11.595  0.0424 -0.1196  0.1139
10674W        W26858   5.770   0.392   2.859  0.0163  0.0024 -0.1008
10675W        W26859  16.498  12.894   2.754  0.1288  0.3367  0.2241
10676W        W26860   6.706   4.598  12.044  0.1443  0.0010 -0.1156
10677W        W26861  12.676  12.379  11.950 -0.2348 -0.0686  0.0501
10678W        W26862   1.749   7.199   6.029  0.1668  0.0976 -0.1804
10679W        W26863   6.587   0.946   1.248 -0.2384  0.0022  0.1795
10680W        W26864  11.581   4.514   1.192 -0.0796 -0.0991 -0.0986
10681W        W26865   0.673  17.458  13.095 -0.4122  0.0666 -0.1685
10682W        W26866  12.814   3.555  12.106 -0.0188 -0.1335 -0.0705
10683W        W26867   4.119   7.519   6.176  0.2053  0.3822  0.1719
10684W        W26868   1.707  17.791   3.335  0.0268  0.1467 -0.0436
10685W        W26869  17.751   3.535   4.613  0.0121 -0.0034 -0.0324
10686W        W26870   6.317   4.474   5.842  0.1655 -0.2078  0.1308
10687W        W26871  13.093   5.679   4.489  0.0448  0.2411  0.1827
10688W        W26872  11.766   1.989   1.540  0.1416 -0.0742 -0.1890
10689W        W26873  14.496   2.530  10.923 -0.0775 -0.1255 -0.1223
10690W        W26874   2.023   1.152  13.021  0.1079  0.1409  0.1392
10691W        W26875   0.059  14.657   2.670  0.0052  0.0736 -0.2225
10692W        W26876   2.692  17.884  13.894 -0.2481  0.1307 -0.0077
10693W        W26877   8.018   5.456   3.336  0.1533  0.0731 -0.0391
10694W        W26878  17.345  11.316  16.106  0.0649 -0.0195  0.0900
10695W        W26879  16.314   2.417   6.019  0.1771  0.0431  0.3164
10696W        W26880   7.024  14.020   1.565  0.1176 -0.2547  0.0719
10697W        W26881  10.681  14.141   0.233  0.3106 -0.0398  0.2627
10698W        W26882  15.091  13.648   3.719 -0.1515 -0.0155 -0.0731
10699W        W26883   1.928   1.498   4.751  0.0422 -0.1508 -0.0085
10700W        W26884  11.013   7.222  11.817 -0.1107 -0.1628 -0.3387
10701W        W26885   7.634   1.234   4.272  0.3757  0.0786  0.1196
10702W        W26886   4.376   7.431   2.119  0.1019 -0.1695 -0.0475
10703W        W26887  10.306   0.551  13.314 -0.3276 -0.0227  0.0039
10704W        W26888   2.722   9.302  13.603  0.1130 -0.1787  0.3446
10705W        W26889   3.691   4.485   5.507 -0.0243  0.1185 -0.0643
10706W        W26890  10.429   0.733   5.478  0.0418 -0.1537 -0.0698
10707W        W26891   1.879  13.831  11.676 -0.2701  0.1243  0.1154
10708W        W26892  15.809   9.178  14.854 -0.0392 -0.0857  0.0051
10709W        W26893  16.179   2.212  13.063  0.0357 -0.1452 -0.2198
10710W        W26894   9.727  16.197  14.363  0.0753  0.1261  0.0858
10711W        W26895  15.079  13.372  16.109  0.2315 -0.2218  0.1338
10712W        W26896   1.870   2.046   1.814 -0.5906  0.0570  0.1901
10713W        W26897   4.791   3.989  11.869  0.1957 -0.3235 -0.2167
10714W        W26898   6.430   2.263  13.944  0.0289 -0.0360  0.1386
10715W        W26899  17.153  14.597   1.964  0.1049  0.0073  0.3620
10716W        W26900  14.479   9.279  16.537  0.0395  0.0203  0.3183
10717W        W26901   2.916  16.827   1.251  0.0155 -0.1918 -0.0689
10718W        W26902   2.036  15.726   0.174  0.2418 -0.0512  0.4038
10719W        W26903  17.134   0.989   4.939 -0.0643 -0.0380  0.1519
10720W        W26904  10.649  14.552   4.274  0.2806 -0.2131 -0.2473
10721W        W26905   1.351   0.113  13.205 -0.1366 -0.1864  0.0120
10722W        W26906   5.567  13.717  14.749 -0.1824  0.0769  0.1260
10723W        W26907  13.968   7.803   2.995  0.1373  0.0988 -0.0500
10724W        W26908   0.632   2.578   2.011  0.1549  0.0838  0.0136
10725W        W26909   2.008  11.652  13.402  0.3519 -0.0937  0.2644
10726W        W26910   1.611   4.472  14.236  0.4562 -0.0471 -0.1044
10727W        W26911  15.344  10.026   5.062  0.1682  0.1049  0.0402
10728W        W26912  17.211   5.020   2.730 -0.1441 -0.2646  0.0348
10729W        W26913  13.226   4.780   4.736 -0.1252  0.1705  0.0040
10730W        W26914   8.550   7.644   5.951 -0.1867 -0.0892  0.0245
10731W        W26915   0.012  12.928  12.402  0.0373 -0.1466  0.0902
10732W        W26916  15.311   4.675  15.610  0.1695  0.0750  0.2252
10733W        W26917  14.621   8.048   4.221 -0.0492  0.2348  0.0359
10734W        W26918   5.701  12.897  16.300  0.0247 -0.1235 -0.2955
10735W        W26919   4.855  10.794  15.939  0.0496 -0.0018 -0.2067
10736W        W26920  11.282   1.513  15.537  0.0208 -0.1832  0.2732
10737W        W26921   6.357  17.591   3.711 -0.0143 -0.1983 -0.0271
10738W        W26922   2.671   0.372  14.009  0.5334 -0.0035  0.2281
10739W        W26923  11.398  11.003   4.721 -0.2125 -0.2378 -0.0152
10740W        W26924  14.703  11.518  12.641 -0.3059  0.0240 -0.0192
10741W        W26925  14.655   8.239  16.270  0.1343 -0.0969 -0.0390
10742W        W26926  10.220   4.824  15.115 -0.1725  0.1367 -0.1657
10743W        W26927  14.722   3.092   1.202  0.1948 -0.0947  0.0467
10744W        W26928  16.625   0.416   3.318 -0.1762 -0.0964 -0.2248
10745W        W26929   3.079   7.803  12.492  0.0106  0.0480 -0.0296
10746W        W26930   1.613  15.589   0.684 -0.0297 -0.0608 -0.0534
10747W        W26931   1.568  10.381   0.344  0.1182  0.0280  0.1292
10748W        W26932  15.113   4.008   5.595  0.0401 -0.3660 -0.2450
10749W        W26933  11.162  15.493  15.717 -0.1943  0.0092 -0.1717
10750W        W26934   3.493   0.457  14.226  0.0613  0.0964 -0.2090
10751W        W26935   3.715   4.542   2.422 -0.0566 -0.1335  0.0108
10752W        W26936   6.758  17.480  13.997 -0.2209 -0.0233  0.0252
10753W        W26937  16.529  14.413  14.037  0.0313  0.0772  0.1603
10754W        W26938   1.896   1.981   2.486  0.1647  0.1509  0.1941
10755W        W26939   2.899   1.254  12.866 -0.1347  0.1741 -0.2475
10756W        W26940   5.119   5.574  16.398  0.1359  0.1914 -0.3087
10757W        W26941   4.492  11.036  12.941 -0.1565  0.1822 -0.0126
10758W        W26942   6.632  11.790  13.281 -0.0391  0.0426  0.0325
10759W        W26943  11.650  13.353  15.321 -0.1664  0.0952 -0.2092
10760W        W26944   3.099   5.697  12.765 -0.0170  0.0621  0.1089
10761W        W26945  13.550  15.781   1.398  0.0048  0.2195  0.0600
10762W        W26946   5.001   7.427  13.975 -0.1448  0.1430  0.0894
10763W        W26947   5.148   8.849  12.393 -0.0515  0.2436  0.6274
10764W        W26948  10.191  16.390  11.499  0.1648  0.1152  0.2596
10765W        W26949  15.433  12.329   4.214  0.3510 -0.1791  0.0854
10766W        W26950   9.515   8.280  11.644  0.1276  0.1375 -0.1487
10767W        W26951   4.871   8.952   3.258  0.0097  0.0194 -0.1880
10768W        W26952  14.763  14.880  11.570 -0.0801 -0.0173 -0.3104
10769W        W26953  16.973  11.632  12.657  0.5499  0.1609 -0.1989
10770W        W26954   8.482  17.076   0.378 -0.1476 -0.0753 -0.2288
10771W        W26955  14.107   1.718   0.901 -0.0848 -0.0048 -0.2705
10772W        W26956  16.828   4.309  16.160  0.0797  0.0466  0.1094
10773W        W26957  16.362   4.154  13.280 -0.2772  0.1287  0.1489
10774W        W26958  11.176   9.081  14.753  0.3246  0.2355 -0.1018
10775W        W26959   0.751   3.094  12.524  0.2876  0.0909 -0.4175
10776W        W26960   6.348  14.259  13.192 -0.2088 -0.0184  0.0321
10777W        W26961  16.066   7.884   0.960  0.0829  0.0076 -0.0224
10778W        W26962   9.523  15.295  14.213  0.1610 -0.1614 -0.0037
10779W        W26963   0.052   3.994   4.175 -0.1555 -0.0252  0.0635
10780W        W26964  16.345   4.879  15.140  0.2007 -0.2625 -0.2117
10781W        W26965   5.118  14.763   5.565  0.1871 -0.3403  0.0203
10782W        W26966   1.684   4.515  16.368  0.1441 -0.0765 -0.0162
10783W        W26967   6.009  14.297  16.021 -0.1562  0.0166  0.0494
10784W        W26968  15.387   8.675  12.355  0.2651 -0.1704 -0.0464
10785W        W26969   1.550  14.109  12.018  0.0539  0.0239  0.4328
10786W        W26970  11.994   9.046   1.099 -0.1344 -0.0573  0.2198
10787W        W26971   2.540   1.428   2.197  0.5594 -0.1170 -0.2658
10788W        W26972  17.225  11.066   1.397 -0.2759 -0.2834 -0.0513
10789W        W26973  13.706   1.961   4.851 -0.3364  0.0732 -0.0588
10790W        W26974  10.087   6.322  13.626 -0.0980  0.3211  0.0820
10791W        W26975   9.568  16.497   1.813 -0.0234 -0.0017 -0.1098
10792W        W26976  16.451   5.900   2.106  0.1787  0.2405 -0.2788
10793W        W26977  16.837   0.238  14.033 -0.0209  0.1508 -0.2567
10794W        W26978   3.306  16.577   3.064  0.0438  0.2571  0.3130
10795W        W26979  16.778   1.342   3.716  0.2307  0.3307  0.1602
10796W        W26980   3.697   4.774  15.194  0.0743  0.0018  0.0360
10797W        W26981  13.344   2.122   2.535 -0.0973  0.1056  0.0269
10798W        W26982  15.039   4.657  15.050 -0.1002  0.0234  0.0587
10799W        W26983  16.228   0.833  15.541 -0.0786  0.1153 -0.0914
10800W        W26984  16.527   5.194   4.876  0.1567 -0.0603  0.0972
10801W        W26985  13.434  15.708   2.243 -0.0673  0.0572 -0.0242
10802W        W26986  11.715  11.479   5.512  0.1990  0.0122 -0.1303
10803W        W26987  10.196  10.133   0.620 -0.3589 -0.2892  0.1220
10804W        W26988  12.874   8.906   3.236 -0.1195 -0.1058  0.0796
10805W        W26989  10.137   7.730  16.114 -0.2886  0.1468 -0.0526
10806W        W26990   5.378   5.228  12.207 -0.1252 -0.5360 -0.1576
10807W        W26991  13.997   4.724  12.655 -0.0072 -0.2289 -0.1537
10808W        W26992   2.032   0.611   0.622 -0.0432  0.2182 -0.0293
10809W        W26993  11.789   7.082  15.482 -0.0671  0.0530 -0.2463
10810W        W26994  11.956   2.172  13.455 -0.1934  0.1325  0.0679
10811W        W26995  11.946   7.384  12.444  0.1332  0.0360 -0.2784
10812W        W26996  15.560   4.601  15.143  0.3110 -0.1657  0.0091
10813W        W26997   4.822   5.889   3.739 -0.2135  0.0305 -0.0180
10814W        W26998   6.661   3.600  14.664 -0.1971  0.0836  0.5243
10815W        W26999   9.893   6.710   5.417  0.1598  0.0997  0.2726
10816W        W27000   4.106  16.167  12.554 -0.1190 -0.1227 -0.0661
10817W        W27001   2.408   2.142  15.503  0.1479  0.1990  0.1882
10818W        W27002  15.164  10.426  12.084  0.2590  0.0708 -0.1242
10819W        W27003   0.184  13.240   1.000  0.1845 -0.1190 -0.1330
10820W        W27004  14.424   5.210  11.766 -0.0589 -0.0871 -0.1399
10821W        W27005  12.550  17.267   3.527 -0.2563 -0.1027  0.0778
10822W        W27006  10.653   2.962  13.024  0.3211 -0.0240  0.2337
10823W        W27007   4.528  14.969  16.170  0.3047 -0.0070 -0.1125
10824W        W27008  11.854   5.973   0.836 -0.0954  0.0770 -0.1395
10825W        W27009   5.410  14.533  14.006  0.0060  0.0184 -0.1367
10826W        W27010   8.926  13.052   4.421 -0.1308  0.2167  0.1760
10827W        W27011  14.313   4.158   0.939 -0.2032 -0.1436 -0.0440
10828W        W27012   5.688  13.015   2.860 -0.0425  0.0736  0.0256
10829W        W27013   5.898   7.250   0.477  0.1779 -0.2364  0.0337
10830W        W27014   2.996   7.788   4.868  0.3219  0.3575  0.3016
10831W        W27015   2.499  10.584  16.061 -0.0437 -0.1131  0.1017
10832W        W27016  16.379   0.818  12.862  0.1549  0.2799 -0.2665
10833W        W27017   8.249   6.076   4.024 -0.1405 -0.1502 -0.1082
10834W        W27018   7.028  16.714   4.582 -0.2082  0.0200 -0.0366
10835W        W27019   5.879  13.806  12.658 -0.0478  0.0175 -0.2278
10836W        W27020   5.427   2.006   0.548 -0.1085 -0.1123  0.1111
10837W        W27021  10.740  11.928  11.669  0.0720 -0.0873  0.1247
10838W        W27022   8.468  16.668   5.428 -0.2128  0.3734 -0.1084
10839W        W27023  16.443   2.865  14.810  0.1680 -0.0259 -0.2247
10840W        W27024   7.068  13.742  15.491  0.3239  0.0467 -0.0374
10841W        W27025   0.883   5.684   2.284 -0.1584  0.1023  0.3272
10842W        W27026  10.070   0.510   1.269  0.3562 -0.1346  0.0256
10843W        W27027  12.149   5.106  15.063 -0.2315 -0.1053  0.1681
10844W        W27028  16.256  14.147   0.301 -0.2243  0.1160 -0.0926
10845W        W27029   9.993   5.348   0.646  0.0441 -0.1831  0.2875
10846W        W27030  11.777   6.114  13.069  0.1115  0.0402 -0.1961
10847W        W27031   0.493  10.391   5.169 -0.0889 -0.2763  0.0214
10848W        W27032   3.336  10.607  11.991 -0.0533 -0.0335  0.1385
10849W        W27033  15.907  12.039   5.019  0.1552  0.1592  0.1757
10850W        W27034   2.966   8.101  12.849 -0.0047  0.0137  0.1090
10851W        W27035   9.516   7.917  11.004  0.2154 -0.2581  0.0401
10852W        W27036   5.512   0.594   5.519  0.3969 -0.1856 -0.0792
10853W        W27037  17.328   5.843   5.615 -0.2898 -0.2256  0.3394
10854W        W27038   7.505   5.111  13.673 -0.3426  0.1359 -0.0653
10855W        W27039   1.806  11.204  12.446 -0.0290  0.0184 -0.4944
10856W        W27040   5.280  14.149  14.508 -0.3575 -0.0697  0.0692
10857W        W27041   8.439   3.889   4.863  0.1868  0.1744  0.0022
10858W        W27042  16.036   8.848   6.136  0.2089 -0.1005  0.3278
10859W        W27043  11.921   7.803  13.836 -0.2708 -0.0002 -0.0811
10860W        W27044  12.806   6.110   3.768  0.0488 -0.0348 -0.0925
10861W        W27045  14.895   5.835  16.419  0.1142 -0.1766  0.0351
10862W        W27046   1.230  14.428  15.221 -0.0597 -0.0020 -0.0644
10863W        W27047  16.031   6.363  15.039  0.3915 -0.2730  0.1229
10864W        W27048   9.250  16.501  12.466  0.3578 -0.0498  0.2927
10865W        W27049  15.822  12.448  16.697 -0.0311  0.1968 -0.0004
10866W        W27050   0.529   5.506  14.245 -0.0693  0.1463 -0.0083
10867W        W27051  12.381   6.144   2.504  0.3185  0.2829 -0.0940
10868W        W27052   9.686  10.202   1.596  0.1803  0.1547  0.1907
10869W        W27053   3.483   2.806  14.138  0.1954  0.0262 -0.0176
10870W        W27054   0.087   9.239  15.588  0.0676 -0.1386  0.0333
10871W        W27055   3.018   4.378   4.431 -0.0653  0.0330  0.1080
10872W        W27056   3.199  15.589   5.042 -0.0828  0.0545 -0.2535
10873W        W27057   0.870   0.338  13.292 -0.3127 -0.1695 -0.4341
10874W        W27058   3.304   9.120   1.782 -0.0961 -0.0478  0.1436
10875W        W27059   4.513  10.430  12.413 -0.0504 -0.0311 -0.2966
10876W        W27060   0.445  11.268   5.874 -0.1902 -0.0305 -0.4237
10877W        W27061  15.232   3.116   5.585  0.0649 -0.0042  0.1252
10878W        W27062  16.316  11.577  16.303 -0.0131 -0.0147 -0.4189
10879W        W27063   1.371  16.954  14.237  0.0282  0.0379  0.4449
10880W        W27064   2.978   8.450  13.322  0.1993  0.0727 -0.2544
10881W        W27065   4.538   2.949   3.548  0.1585  0.0862  0.0818
10882W        W27066   3.782  11.519  12.407 -0.1443  0.0491 -0.4023
10883W        W27067   7.765   3.746  13.157 -0.0258 -0.0208 -0.0355
10884W        W27068  10.847   1.097   4.128 -0.1390  0.0596  0.3641
10885W        W27069   6.145   1.744   5.137  0.1511  0.0553 -0.2499
10886W        W27070   7.410   5.080  14.213 -0.0095 -0.2188 -0.0168
10887W        W27071  10.236   1.443  16.553  0.1268  0.2708  0.0468
10888W        W27072   5.829   4.462  13.378  0.0711 -0.2886 -0.1057
10889W        W27073  16.696   8.509   2.976 -0.1745  0.1303 -0.1140
10890W        W27074   4.922  16.071   1.528 -0.0934 -0.0632 -0.2226
10891W        W27075   5.411  13.435   4.179 -0.3174 -0.0824  0.1979
10892W        W27076  14.940   4.593   4.431  0.2084 -0.0663  0.0464
10893W        W27077   6.713   4.236   5.032 -0.2215  0.1258 -0.2409
10894W        W27078   6.970  12.103  14.535 -0.1474  0.0327  0.0066
10895W        W27079   2.873   3.031   0.376 -0.3290  0.3820 -0.0185
10896W        W27080   0.092  10.219   0.173 -0.2851 -0.0942 -0.0510
10897W        W27081   6.231   6.535  14.211 -0.2656 -0.0564 -0.2882
10898W        W27082  16.904   4.581   2.122 -0.0314 -0.2851  0.2603
10899W        W27083  15.572   8.375   1.390 -0.4202 -0.1800 -0.0478
10900W        W27084   2.934   1.073   5.377 -0.0084 -0.0438 -0.1541
10901W        W27085   9.241  17.191   5.602  0.0416 -0.1386 -0.1015
10902W        W27086   4.984   9.462   4.582 -0.1078 -0.0496 -0.1191
10903W        W27087   8.794   4.984  11.578 -0.1952  0.0884 -0.0133
10904W        W27088   6.487  12.468  15.880  0.1696  0.0603  0.0138
10905W        W27089  14.703   9.766  13.749  0.0803 -0.0089  0.0501
10906W        W27090  11.025  10.717  12.573 -0.2578 -0.0427 -0.1942
10907W        W27091  15.000   2.778   2.058 -0.2278  0.1809 -0.1905
10908W        W27092  10.383  14.751   4.699 -0.2987  0.1224 -0.0363
10909W        W27093  16.485  13.062  14.665  0.1909  0.2672 -0.2128
10910W        W27094   5.301   4.701   1.699  0.1362  0.0614  0.3590
10911W        W27095   0.630  15.566   5.378  0.0668  0.2121  0.0453
10912W        W27096  10.887  15.188   1.957 -0.0307  0.0359  0.3724
10913W        W27097   6.721  16.902  16.511 -0.1218  0.1244  0.0291
10914W        W27098   1.306   3.702   4.639  0.3224 -0.0342 -0.1076
10915W        W27099   0.666   6.917   0.212 -0.0192 -0.0959 -0.3506
10916W        W27100   6.495   3.881   2.637  0.2451 -0.1906 -0.0240
10917W        W27101   3.078  10.935   1.338  0.0102  0.0427 -0.1395
10918W        W27102   9.364  12.286   3.439  0.3077  0.0943  0.1029
10919W        W27103   2.874  17.424   3.748  0.1282 -0.0831 -0.1366
10920W        W27104   7.511  14.029  16.246  0.1454  0.0620 -0.3052
10921W        W27105  12.216  16.293   3.715 -0.0472  0.2868  0.2018
10922W        W27106   4.419   3.096  14.092 -0.2934  0.1296 -0.2329
10923W        W27107   2.658  11.541  11.406  0.0087 -0.1030 -0.1412
10924W        W27108  13.024   5.348  13.380 -0.4199 -0.1243  0.0955
10925W        W27109   1.087  12.356  13.369  0.0943 -0.1951 -0.0011
10926W        W27110  13.865   8.364   0.255 -0.2369 -0.2813  0.0542
10927W        W27111   1.741  10.357   2.592 -0.1519  0.2468  0.5139
10928W        W27112  13.200   5.047  16.353 -0.1591 -0.3476 -0.1376
10929W        W27113   9.599  15.697  13.578  0.0024  0.2130 -0.0422
10930W        W27114   1.394   8.892   4.201  0.1671  0.0864  0.2765
10931W        W27115  13.891   7.012   3.942  0.0466  0.0446 -0.1464
10932W        W27116  15.192   7.831   0.153  0.0354  0.2518  0.0529
10933W        W27117   7.601  16.490  12.278  0.1566  0.4150 -0.3176
10934W        W27118   0.433   9.836   1.965 -0.0222  0.1129 -0.1432
10935W        W27119  16.891   2.167  14.344 -0.0273 -0.1789 -0.0851
10936W        W27120   7.763  17.242  16.628  0.1500  0.5844  0.1513
10937W        W27121  12.973   6.150   2.740  0.0671 -0.0827  0.0391
10938W        W27122  11.017  13.407  12.620  0.1435 -0.0733 -0.1331
10939W        W27123  16.280  13.518  15.311  0.0478  0.0996 -0.1302
10940W        W27124  12.312  11.358  13.915 -0.1867 -0.0324  0.0057
10941W        W27125   5.207  15.942  11.900 -0.0247  0.1449  0.2509
10942W        W27126   3.881   4.233   3.906 -0.1459  0.0149  0.2028
10943W        W27127  12.655   6.570   2.577 -0.3573 -0.3865 -0.0918
10944W        W27128  15.699   2.586  15.789 -0.0083  0.4115  0.0843
10945W        W27129   5.513   9.613   0.142  0.2041  0.3554 -0.1520
10946W        W27130   8.191  17.045   3.745  0.5296  0.3223  0.0691
10947W        W27131  11.237   6.460   3.270 -0.0764 -0.1091  0.0965
10948W        W27132   5.040   8.191  13.396 -0.2323 -0.1785 -0.0176
10949W        W27133  11.944  15.208  15.313  0.1498 -0.2655 -0.0468
10950W        W27134  16.938  13.696  12.778  0.2696 -0.0195 -0.0568
10951W        W27135   1.772   7.172   2.683  0.1670 -0.0825 -0.0021
10952W        W27136   3.520  15.927   5.252  0.0909  0.0298 -0.0883
10953W        W27137  16.203   3.958   4.106 -0.0218 -0.2424  0.1967
10954W        W27138  13.998  14.481   3.667 -0.1224 -0.2055 -0.2572
10955W        W27139   8.877   5.924  14.112 -0.1603 -0.0270 -0.1468
10956W        W27140   8.059  10.518  15.037 -0.0646 -0.3452 -0.0014
10957W        W27141   8.235   2.991   4.492 -0.2189  0.2647 -0.2236
10958W        W27142  10.468   0.917   4.925  0.1296  0.2215 -0.1123
10959W        W27143   8.045  10.207   2.010 -0.1339 -0.1323 -0.1914
10960W        W27144  14.200  13.599   0.806 -0.3256 -0.2988  0.2000
10961W        W27145   6.705   3.972   0.394 -0.0425  0.3267  0.2734
10962W        W27146  15.342  13.066   4.645  0.1046  0.0044  0.0066
10963W        W27147   1.460   9.338   5.266 -0.0377  0.2225  0.0490
10964W        W27148   3.277   7.683  12.972  0.2144 -0.1352  0.1606
10965W        W27149   9.850   1.747  13.206  0.1496 -0.0101  0.1366
10966W        W27150  11.785   8.512   5.802 -0.3282 -0.0047  0.0446
10967W        W27151   7.162   6.927   3.797 -0.2294 -0.0699  0.0971
10968W        W27152  17.349   0.384  15.425  0.0762 -0.0471 -0.2084
10969W        W27153  11.031  17.093  14.807  0.0014 -0.2856  0.0519
10970W        W27154   6.279   3.195   4.514  0.1956  0.1236 -0.1612
10971W        W27155   1.642  15.349   4.221  0.0627  0.1265  0.2103
10972W        W27156   4.198  11.046   3.766  0.1042 -0.1987 -0.0966
10973W        W27157  14.056  14.218   2.109  0.0299  0.0009  0.0063
10974W        W27158   4.167  14.856   2.341  0.0350  0.2935  0.2666
10975W        W27159  15.148  16.689   5.919 -0.4122 -0.3913  0.0413
10976W        W27160  17.370  15.683  12.098  0.0129 -0.0271 -0.3411
10977W        W27161   4.499   0.443   2.442 -0.0321  0.0883  0.1333
10978W        W27162   5.413   8.841  16.249  0.1287 -0.0615  0.1212
10979W        W27163   8.796   0.726   3.197  0.1741 -0.1001  0.1198
10980W        W27164   2.339   3.289   3.871 -0.1891 -0.1477 -0.1005
10981W        W27165   3.920  14.555   2.629 -0.0048 -0.1460 -0.2783
10982W        W27166  17.896   4.666  13.366 -0.0906 -0.2500 -0.1421
10983W        W27167   1.595   1.964   5.330  0.0212 -0.3262 -0.2947
10984W        W27168  14.716  15.170   0.345 -0.1404 -0.2409 -0.1328
10985W        W27169  13.189  14.498  12.653 -0.1315  0.0882  0.1576
10986W        W27170  17.408  14.585   4.843  0.0421 -0.2487 -0.0417
10987W        W27171   8.988  10.849   1.243  0.0758  0.0048 -0.3892
10988W        W27172   3.301   0.979   1.464 -0.0424 -0.2503  0.3292
10989W        W27173   7.544   8.175  16.070  0.0990  0.1444 -0.1094
10990W        W27174   2.756   2.020   0.762 -0.0419  0.0570 -0.1365
10991W        W27175   8.942  12.303  14.579 -0.1521 -0.2378 -0.0695
10992W        W27176  13.387  11.839  12.036 -0.4501  0.2542 -0.0238
10993W        W27177  15.372  16.144  14.861  0.0471 -0.2946  0.0872
10994W        W27178   0.079   6.200   4.273 -0.0533  0.1403 -0.1999
10995W        W27179   0.538  17.468   3.294  0.2357  0.3163 -0.0109
10996W        W27180   2.891  17.035  15.849 -0.2428  0.0946  0.0197
10997W        W27181   8.334   1.951   2.596  0.2406  0.0771  0.2099
10998W        W27182  17.356   6.205   4.805 -0.3098  0.0734 -0.1228
10999W        W27183   0.454   1.105   0.231 -0.0384  0.1529 -0.1933
11000W        W27184   6.308   9.775  15.624  0.0984 -0.1655  0.4125
11001W        W27185   2.952  11.586  15.494  0.0514  0.0132 -0.4575
11002W        W27186  13.687  11.292   5.375 -0.1569  0.3282 -0.0564
11003W        W27187  15.871   1.062   0.405 -0.2828 -0.2445 -0.1880
11004W        W27188   8.705  15.194   2.156  0.2444 -0.0085  0.2212
11005W        W27189  16.302   1.778  11.664  0.0112  0.2932 -0.0706
11006W        W27190   2.086   6.008  11.448  0.0220  0.1549 -0.2984
11007W        W27191   2.460  13.392  13.906 -0.0238  0.0145 -0.1805
11008W        W27192  15.667  17.940   4.152 -0.1923 -0.0464 -0.0185
11009W        W27193   3.798  12.841  14.497  0.0182  0.2642 -0.0424
11010W        W27194  13.781   2.698  12.522 -0.0900  0.2405  0.1641
11011W        W27195  10.056   3.315  12.696  0.0014  0.1126  0.2213
11012W        W27196   2.118   5.340   1.687 -0.0111 -0.0067 -0.1619
11013W        W27197   3.827  16.422  15.457  0.0653  0.0307  0.0333
11014W        W27198   4.493   4.779   0.114  0.0135  0.4377 -0.2892
11015W        W27199   8.558   8.784  13.283 -0.0186  0.1565 -0.0067
11016W        W27200  14.289  11.946   2.467  0.0716  0.2236 -0.2510
11017W        W27201   5.800   3.400  13.187  0.2334 -0.2417  0.2880
11018W        W27202  17.055   8.143   2.320  0.1737  0.1591 -0.3635
11019W        W27203  11.920  12.290   2.826  0.2700 -0.0679 -0.2595
11020W        W27204  15.285   0.115   5.726  0.0312  0.1459 -0.0036
11021W        W27205  13.232  11.623   4.940  0.0036 -0.0796  0.1324
11022W        W27206   7.123  10.351   5.207 -0.1005 -0.0912 -0.1537
11023W        W27207  14.400   6.111   1.490 -0.1883 -0.2390 -0.2207
11024W        W27208   7.656  17.194   3.845  0.0426  0.1081 -0.1636
11025W        W27209   9.837   9.146  16.031  0.1233 -0.1916  0.1688
11026W        W27210  11.827  16.560   2.926 -0.1054  0.2953  0.0793
11027W        W27211   1.309   5.517   4.923  0.1319 -0.0680 -0.0353
11028W        W27212   9.110   3.187  15.531 -0.0031  0.0191 -0.2502
11029W        W27213   7.047   7.365   0.597  0.1205 -0.0056 -0.0419
11030W        W27214  16.267  10.593  16.066 -0.0046 -0.2543  0.1139
11031W        W27215   7.856   5.002   5.722  0.0322 -0.1290  0.0714
11032W        W27216   7.778  10.772   5.805 -0.0712  0.1737  0.5838
11033W        W27217  13.728  14.483  12.668 -0.0847 -0.3166  0.2191
11034W        W27218  13.493  11.616   2.991  0.1044  0.1195 -0.0699
11035W        W27219   8.178   8.120   2.872 -0.0793  0.0126  0.1405
11036W        W27220  10.061  11.838   0.412 -0.1436  0.0906  0.1884
11037W        W27221  13.056   2.979  13.458  0.1000 -0.2450  0.3052
11038W        W27222  12.156  12.146   1.594 -0.2004  0.1574  0.0726
11039W        W27223   4.288  10.173   0.314 -0.0464  0.0928  0.1355
11040W        W27224   2.763   4.595   5.846  0.0845  0.0594  0.1051
11041W        W27225   0.273  12.752   1.685  0.1979 -0.1186 -0.1853
11042W        W27226  12.435  10.327  13.976  0.2665  0.1888 -0.0394
11043W        W27227   4.720  11.036   3.980  0.2370  0.0616 -0.1769
11044W        W27228   9.451   0.770  13.566  0.5881 -0.1072  0.5360
11045W        W27229  12.136  11.091   5.258 -0.3461  0.1780 -0.1472
11046W        W27230   1.612  15.492   1.623 -0.0033  0.2002 -0.1620
11047W        W27231   4.977  15.121  12.731  0.4367  0.0827  0.1787
11048W        W27232   5.726   1.930   3.520 -0.0358 -0.0760  0.0953
11049W        W27233   2.842   5.100  13.271 -0.0574 -0.2606  0.0389
11050W        W27234   9.533  12.023  16.201  0.2266  0.1669 -0.0639
11051W        W27235  14.520  13.858  14.242  0.0770  0.1552  0.1236
11052W        W27236   3.640   8.992  16.084  0.0904  0.0859 -0.0864
11053W        W27237   4.023   4.399  10.804  0.0135  0.1150 -0.1195
11054W        W27238   5.129   0.849  16.302  0.1745  0.0517  0.0132
11055W        W27239   7.609   0.880  15.477  0.4971  0.0820  0.0012
11056W        W27240   7.741  15.073  11.844 -0.1803  0.0211  0.2319
11057W        W27241  15.450   2.223  11.775 -0.1472  0.1992 -0.0209
11058W        W27242   5.601   1.445  12.085 -0.1180  0.0917 -0.1381
11059W        W27243  13.703   4.566  13.029  0.3618 -0.0104 -0.1059
11060W        W27244   3.997  16.248  16.440  0.2337 -0.0246  0.0054
11061W        W27245   3.291  11.836  16.507  0.0310  0.1527  0.0285
11062W        W27246   4.921  15.694  13.791 -0.1918  0.2588  0.0941
11063W        W27247   0.524   1.233  14.058  0.3875 -0.1480 -0.0344
11064W        W27248  11.630   1.966   0.052  0.1397 -0.0503 -0.0741
11065W        W27249  12.901   0.417   2.302  0.0566  0.0481 -0.3432
11066W        W27250  12.641   8.781   0.409  0.0569 -0.1777  0.2706
11067W        W27251   5.465   4.538   5.600  0.1520 -0.1237 -0.0945
11068W        W27252   0.472  17.492  14.275  0.0492  0.0463  0.0973
11069W        W27253  15.477  16.468   0.365  0.2809  0.0596 -0.0431
11070W        W27254  10.651  13.002   1.142 -0.1085  0.1517 -0.2953
11071W        W27255  11.381  11.588   5.192 -0.0114  0.0343  0.0660
11072W        W27256  13.745   0.355   4.650 -0.0014 -0.3215  0.2820
11073W        W27257  14.839  10.740  13.730  0.0972  0.0025  0.1013
11074W        W27258  11.770  11.891   5.024 -0.1366 -0.0966  0.1911
11075W        W27259   6.217   5.064  11.966  0.2031 -0.0061 -0.2258
11076W        W27260  16.971   9.954  12.672  0.0885 -0.0182 -0.2436
11077W        W27261   8.721  15.108  11.737 -0.2978  0.1603 -0.0378
11078W        W27262   9.515   3.117   1.322  0.3945  0.3190 -0.4169
11079W        W27263   1.876   4.712  14.577  0.1559  0.1148 -0.0168
11080W        W27264  11.636  11.276   0.424 -0.1291  0.0876 -0.1212
11081W        W27265  10.224   6.803  15.413  0.2174 -0.0107 -0.0010
11082W        W27266  12.867   4.684   2.054  0.2479  0.1110 -0.0481
11083W        W27267  17.085   2.544   3.252  0.0024 -0.0498 -0.1322
11084W        W27268  14.591  16.618   5.200 -0.0184 -0.4075  0.1416
11085W        W27269  10.117   4.857   1.858 -0.4108 -0.0818 -0.1383
11086W        W27270  13.926  17.977  11.827 -0.1225 -0.0208  0.1609
11087W        W27271   2.427  12.593   4.358 -0.1636 -0.2621 -0.2729
11088W        W27272   4.862   7.700  12.470  0.2440 -0.1576  0.0365
11089W        W27273  14.850   7.246   3.792 -0.2489 -0.3708 -0.1260
11090W        W27274   7.793  12.749   5.050 -0.0176  0.0130  0.0602
11091W        W27275   7.915   6.726   6.509  0.0697 -0.2818 -0.1365
11092W        W27276   0.309   9.785   4.182 -0.2957 -0.1470  0.0024
11093W        W27277   1.548   8.337   0.988  0.0215  0.0470  0.1775
11094W        W27278   5.381  10.459  13.325 -0.0112  0.0215  0.1117
11095W        W27279  15.124   4.768   3.652  0.0911 -0.1325  0.0904
11096W        W27280   4.862   0.194   1.292  0.1566  0.2213  0.0638
11097W        W27281  17.864   7.621   4.352  0.0570 -0.2191 -0.0038
11098W        W27282   1.081   3.387  16.141  0.0297  0.1004  0.3201
11099W        W27283   1.349  13.199   2.237  0.1573  0.0731  0.1512
11100W        W27284  17.881   3.081   3.689  0.0977  0.1438  0.0422
11101W        W27285   3.962   7.566   2.502  0.0842 -0.1505 -0.0788
11102W        W27286  11.906  14.559   4.727 -0.2684  0.0944 -0.1239
11103W        W27287  15.111  14.543  14.768  0.0925 -0.3473  0.2278
11104W        W27288  14.532  13.979  16.436  0.2454  0.1161 -0.2235
11105W        W27289   8.753  13.984   4.733 -0.2815  0.1090 -0.3189
11106W        W27290   4.057   0.519  15.830 -0.1156  0.0311 -0.2476
11107W        W27291   4.214   2.209   0.596  0.2910 -0.2302  0.0356
11108W        W27292  14.440  13.805   1.485 -0.2246  0.1055  0.1544
11109W        W27293   3.481   4.505  13.373  0.1426 -0.3769 -0.0503
11110W        W27294  10.068  12.829  13.930  0.0228 -0.1071  0.1096
11111W        W27295  14.494  16.920  12.656  0.1009 -0.0799  0.0074
11112W        W27296  14.484   9.830   4.712  0.3636  0.1059  0.1136
11113W        W27297   4.971   7.623  15.468  0.0506  0.4972  0.1847
11114W        W27298  15.630   2.538  14.161 -0.2193  0.0364  0.0617
11115W        W27299   8.039   2.642   0.796  0.0062 -0.2402 -0.0239
11116W        W27300   8.641   6.036  12.147  0.1168  0.1334  0.0489
11117W        W27301   8.233   1.858  12.353  0.0920 -0.1594  0.2744
11118W        W27302   0.443   5.342   1.042 -0.2567  0.1563 -0.0865
11119W        W27303   6.904  13.017   5.583 -0.1601 -0.1145 -0.0249
11120W        W27304  17.042  12.582  14.238 -0.2574 -0.0256  0.6267
11121W        W27305   9.012   9.131  16.400  0.2633 -0.0391  0.1877
11122W        W27306   9.491   8.882   1.397  0.1058  0.0367  0.0344
11123W        W27307  15.963  12.095   1.742 -0.0814  0.0323  0.1474
11124W        W27308   2.947  12.942  16.459 -0.1629 -0.0960 -0.0858
11125W        W27309   6.720  16.480   0.333  0.0676  0.0350  0.1171
11126W        W27310   5.138   9.203   2.319  0.2118 -0.0468 -0.0643
11127W        W27311   7.317  11.776   2.445  0.0960 -0.0643  0.0465
11128W        W27312  14.687  14.308  12.939  0.0669 -0.0940  0.2271
11129W        W27313   7.553   4.209  16.648 -0.0358  0.1937 -0.2636
11130W        W27314   3.676   5.722   6.094 -0.0956 -0.0651  0.0553
11131W        W27315   6.510  10.130   3.032  0.2833 -0.0475  0.0186
11132W        W27316  17.177  17.822   6.145  0.0531 -0.1572 -0.1382
11133W        W27317  16.516   3.935  12.767  0.2609 -0.0615 -0.0981
11134W        W27318   6.103  13.515   2.186 -0.1636  0.1865 -0.1120
11135W        W27319   2.521  11.166  16.523  0.0282  0.3331  0.0606
11136W        W27320   5.994   6.165   6.033  0.4734 -0.1394  0.2726
11137W        W27321  12.262  17.680  13.139  0.0824 -0.0367  0.0544
11138W        W27322   6.962   6.537  10.871 -0.1410  0.1253  0.0742
11139W        W27323   8.047   1.245   1.897 -0.1327 -0.0963 -0.2502
11140W        W27324  11.825  10.391   0.523 -0.1354 -0.2809  0.2415
11141W        W27325   3.328   6.290  15.054 -0.0607  0.2737  0.1642
11142W        W27326   3.267   5.649   4.418  0.0435 -0.4175  0.1174
11143W        W27327  12.106  13.444  11.681 -0.2593 -0.0510 -0.0299
11144W        W27328   0.763  14.024   0.356 -0.0313 -0.1391 -0.0568
11145W        W27329   2.069   3.525  12.897  0.3035 -0.0472 -0.0171
11146W        W27330   1.413  11.939  16.129 -0.2512 -0.2559 -0.2230
11147W        W27331  13.406   7.137   2.668  0.0604 -0.2129 -0.1449
11148W        W27332  15.590   6.213   1.487  0.2136 -0.1427 -0.1607
11149W        W27333   6.507   5.762   4.595 -0.2216 -0.3038 -0.1786
11150W        W27334  16.251   8.300   2.717  0.1426 -0.0053 -0.3510
11151W        W27335  10.293   5.930   5.378 -0.2986 -0.0494  0.0538
11152W        W27336   7.433   3.297   1.336 -0.1491  0.0073  0.3091
11153W        W27337  10.918  13.905   1.224 -0.3883  0.0010 -0.0470
11154W        W27338  11.702   1.867   5.012  0.1870 -0.1682 -0.2800
11155W        W27339  12.722   1.679  16.156  0.1134 -0.0147  0.0725
11156W        W27340  13.673  14.942  16.592 -0.0380  0.0244  0.2836
11157W        W27341   0.971   6.742   4.184  0.1506  0.0204  0.1288
11158W        W27342  15.501  16.182   2.667 -0.1874 -0.2828 -0.0556
11159W        W27343   5.660   0.738   4.982 -0.2164  0.3797  0.1742
11160W        W27344   8.043   5.296  11.886 -0.1940 -0.2773  0.0632
11161W        W27345   7.414   8.299   2.363 -0.1081 -0.2620 -0.1934
11162W        W27346   0.548   5.381  12.241 -0.2270 -0.0566 -0.1650
11163W        W27347  15.055   0.463  15.071  0.2446 -0.0530  0.0772
11164W        W27348  13.721   1.678  13.633 -0.0229 -0.1388 -0.0053
11165W        W27349   2.613  14.362   3.406 -0.2219 -0.0901 -0.1406
11166W        W27350  12.817  13.784  13.683 -0.0244 -0.1186 -0.0367
11167W        W27351  16.391   3.288  14.069  0.0632 -0.1746  0.0217
11168W        W27352  17.523   0.161   1.151 -0.0018  0.1366  0.1518
11169W        W27353  12.728  11.607  12.715  0.1356 -0.0010 -0.0723
11170W        W27354   9.038   4.525  13.263 -0.0109  0.1454 -0.2489
11171W        W27355   1.366   1.467   0.443  0.0291 -0.0378  0.0093
11172W        W27356   7.498  17.772   0.775  0.2192 -0.0002  0.2764
11173W        W27357   6.392  14.903   1.485  0.0357  0.2152 -0.4390
11174W        W27358   3.274   6.037  16.567 -0.0193  0.0732 -0.0037
11175W        W27359  15.964   7.140  12.981  0.1004 -0.0901  0.1819
11176W        W27360   9.851  13.766   5.205  0.1271 -0.1190  0.1141
11177W        W27361   0.397  16.291   4.724  0.0317  0.1453 -0.0743
11178W        W27362   8.253  13.933   5.399 -0.2363  0.2107  0.3337
11179W        W27363  15.409   3.797   0.203  0.0479  0.0071 -0.2264
11180W        W27364   8.817  15.295   0.487  0.1561  0.1272 -0.2030
11181W        W27365  15.209  13.130  15.739 -0.3096  0.0389 -0.0244
11182W        W27366   5.613  11.577  14.463 -0.1310 -0.1365 -0.1677
11183W        W27367   1.309   7.633   5.587 -0.2125 -0.0146 -0.1171
11184W        W27368   4.737  14.274   0.737  0.0026  0.1952  0.2053
11185W        W27369  11.928   0.637   3.223 -0.1731  0.2850 -0.1798
11186W        W27370   5.083   3.282   4.278  0.2530 -0.0640  0.0665
11187W        W27371   4.341   6.984   1.805 -0.0327  0.0729  0.0535
11188W        W27372  15.051   3.023   0.267 -0.2298 -0.1841 -0.2639
11189W        W27373   8.006  14.006  16.297 -0.0317 -0.3369 -0.2322
11190W        W27374  16.435  13.745   2.867  0.0250 -0.0325  0.0819
11191W        W27375   0.622  11.016   2.022  0.0675 -0.3584  0.0860
11192W        W27376  13.419  10.939  12.444  0.2245 -0.0651  0.3385
11193W        W27377  10.139   1.453   2.501  0.0415 -0.0285  0.1341
11194W        W27378   7.703  11.213  16.202  0.1117  0.0041  0.1465
11195W        W27379  15.884   1.174  13.837 -0.0331 -0.0464  0.2433
11196W        W27380   2.121  14.514   3.205  0.2698 -0.4026 -0.1099
11197W        W27381   2.882  15.678  16.460 -0.0926 -0.1162 -0.0798
11198W        W27382  14.603  15.683  13.703 -0.1032  0.2479  0.0695
11199W        W27383  16.415   5.495   0.376  0.1587  0.1831 -0.3502
11200W        W27384   2.052   9.230   0.804  0.2795 -0.2752  0.0603
11201W        W27385  11.066   9.028   4.444 -0.0960 -0.3478 -0.1425
11202W        W27386   6.126  16.969  16.622 -0.0296 -0.0157  0.1680
11203W        W27387   2.444   6.005  13.307  0.1528  0.2518 -0.0390
11204W        W27388   5.367   8.318   5.709  0.0872 -0.0574  0.0452
11205W        W27389  15.971   2.836  13.896  0.0800 -0.0018  0.0863
11206W        W27390  13.896  13.505  15.845  0.2179  0.0814 -0.0765
11207W        W27391   8.319  11.849  16.477  0.1483 -0.0548 -0.2604
11208W        W27392   2.665  11.178  14.491 -0.1589 -0.0168  0.2264
11209W        W27393   0.295  14.517  12.212  0.0393  0.1491  0.3361
11210W        W27394   8.049  13.841  11.815 -0.3114  0.4329 -0.0427
11211W        W27395   5.342  15.681  14.728 -0.3719 -0.4493 -0.1917
11212W        W27396  10.759   6.541  11.365 -0.0053  0.2560 -0.1427
11213W        W27397   7.789   2.278  14.931 -0.0121  0.0211 -0.0149
11214W        W27398   7.145  16.379   0.680  0.0639 -0.0842  0.0396
11215W        W27399   5.553   3.692   5.162 -0.0181 -0.0232 -0.2508
11216W        W27400  12.473   7.639  16.276 -0.1114  0.0367 -0.1866
11217W        W27401  14.638   2.975   3.283  0.2182 -0.2498  0.0766
11218W        W27402   0.154   9.071   2.657  0.0428  0.2360 -0.0485
11219W        W27403   5.095   1.989   5.664 -0.1203  0.0769 -0.3351
11220W        W27404   9.314  11.329   3.668 -0.1698 -0.2840  0.2306
11221W        W27405   7.363  17.775  13.293 -0.1445 -0.2789  0.4018
11222W        W27406  14.952  13.371   3.299 -0.1866 -0.0961 -0.1737
11223W        W27407  16.742   9.834  16.627  0.0446 -0.0145 -0.1330
11224W        W27408  10.467   6.172  16.285  0.1236 -0.0928 -0.2353
11225W        W27409   9.667  12.040   0.012  0.0309 -0.1246 -0.1725
11226W        W27410  17.965   9.110   1.226  0.1846 -0.1638 -0.1212
11227W        W27411  17.032   4.751   0.663  0.0183  0.2883 -0.4151
11228W        W27412  16.144   0.746   3.860 -0.0824 -0.0720 -0.0537
11229W        W27413   9.196   1.021  16.287 -0.1619 -0.0843 -0.0618
11230W        W27414  13.967  10.258  15.177  0.0154 -0.0538 -0.1048
11231W        W27415  14.790  16.170  15.489  0.2377  0.0163 -0.1495
11232W        W27416  16.780   1.406   2.973 -0.2216  0.2750  0.1094
11233W        W27417   3.703   4.955   5.267 -0.0012  0.2305  0.0952
11234W        W27418  15.668   2.025  16.356 -0.1899  0.0004  0.2319
11235W        W27419  13.283   2.971  12.398 -0.1946 -0.0831  0.0781
11236W        W27420  12.675   2.616  14.944  0.3801  0.1434  0.0181
11237W        W27421  12.195   0.279  12.188 -0.2074  0.3650  0.1460
11238W        W27422   4.853   9.512   1.096 -0.0494  0.1250  0.4184
11239W        W27423  10.633  10.235   2.861 -0.0627 -0.0988  0.0795
11240W        W27424  12.656  16.902   5.972  0.1937 -0.0470 -0.1311
11241W        W27425   3.113  16.716   2.653  0.0592 -0.1387  0.2176
11242W        W27426   8.153   6.832  15.905 -0.2054  0.2733 -0.0494
11243W        W27427  11.237   1.830  13.611 -0.1192 -0.1140  0.2691
11244W        W27428   1.599  16.855  14.737 -0.1789  0.1261  0.1673
11245W        W27429   6.720   3.970  12.160 -0.1318 -0.3118  0.0001
11246W        W27430   4.631   5.841   0.563 -0.2016  0.1152  0.1595
11247W        W27431   4.240  17.534   4.534  0.0824 -0.0727 -0.1840
11248W        W27432  13.817  13.002   1.928  0.1064  0.0190 -0.0627
11249W        W27433   1.870   7.006  16.088 -0.2255 -0.0319  0.0199
11250W        W27434  10.426   5.834  13.525 -0.2882  0.1377 -0.0243
11251W        W27435   1.179  13.664   3.816  0.1041 -0.2379 -0.1597
11252W        W27436   5.684   4.653  15.980  0.2248  0.0715  0.2000
11253W        W27437  15.109  16.949   4.136 -0.2156 -0.1138  0.1668
11254W        W27438   4.261  10.909  15.992 -0.5802 -0.1805  0.0079
11255W        W27439   7.872  10.744  15.995 -0.2450  0.0305  0.1509
11256W        W27440  13.923  17.532  12.093 -0.0404  0.1654  0.3022
11257W        W27441  15.998   3.347   2.896  0.2312  0.2330 -0.2749
11258W        W27442   6.630   7.036   0.804  0.0534  0.1147  0.3088
11259W        W27443  11.464   2.558   2.723 -0.2561 -0.1575  0.2146
11260W        W27444   2.280  17.402   2.801  0.1937  0.1003 -0.0855
11261W        W27445  15.125   9.564  13.041 -0.1086  0.1567  0.0773
11262W        W27446   3.916   8.793  16.532 -0.0319 -0.1344  0.0420
11263W        W27447   0.525   7.375  12.734  0.2475 -0.1875  0.1577
11264W        W27448  16.280   0.292   6.493  0.1740 -0.0876 -0.0042
11265W        W27449  14.749  11.630   0.764  0.1509 -0.1304  0.1164
11266W        W27450   8.190  12.504   3.945 -0.0487 -0.0162 -0.2102
11267W        W27451  11.602  14.509   1.660 -0.3633 -0.1190  0.0523
11268W        W27452   9.578  13.193  10.872 -0.0857 -0.0001  0.1613
11269W        W27453   9.133  15.862   4.738 -0.1805 -0.0538  0.1646
11270W        W27454   8.618   0.512   0.616 -0.3193  0.0240  0.2424
11271W        W27455   9.424  15.464   2.241 -0.0928  0.0903  0.0750
11272W        W27456  14.696   5.357  12.577  0.0051 -0.0446 -0.0165
11273W        W27457   7.063   1.829  13.177 -0.1323  0.1008 -0.3094
11274W        W27458   1.935  13.924   5.617 -0.0880  0.0304  0.0287
11275W        W27459  17.804   0.615   4.335 -0.3046  0.0288 -0.1607
11276W        W27460  10.051   4.266   3.939 -0.0810 -0.1206 -0.2137
11277W        W27461   2.371   4.703   5.480  0.1774  0.1177  0.0373
11278W        W27462   0.692  14.781   0.856 -0.0172  0.2976 -0.1272
11279W        W27463   5.037   2.263   3.987  0.0327 -0.0716  0.2182
11280W        W27464   9.278   7.607   4.615  0.4585  0.1678 -0.0761
11281W        W27465  13.444   1.395  15.881 -0.0002  0.0921  0.0152
11282W        W27466   3.767   3.905  12.663 -0.1769 -0.0593 -0.0213
11283W        W27467  11.030   7.606   0.906 -0.1509 -0.1190 -0.2794
11284W        W27468  15.012  17.707  15.317  0.0312 -0.0739 -0.0339
11285W        W27469  12.693  14.716  14.798 -0.0388  0.0043 -0.0761
11286W        W27470  11.380  16.251  12.017 -0.1530 -0.1636  0.1771
11287W        W27471   7.574  17.888   4.291 -0.1186  0.1557  0.2039
11288W        W27472   3.886   5.287   0.778 -0.0521  0.0053  0.2102
11289W        W27473  10.406   2.534   1.790  0.0269  0.1309 -0.0918
11290W        W27474   8.939   5.076  13.245 -0.1408 -0.1423  0.2297
11291W        W27475   2.268   3.054   4.767  0.1879  0.0567 -0.1338
11292W        W27476   9.725   2.547   3.921 -0.1413  0.0687 -0.0240
11293W        W27477  17.721   3.917  14.443  0.3406 -0.4119  0.1596
11294W        W27478  16.903   0.773  16.138 -0.1906  0.0081 -0.0163
11295W        W27479   0.505   0.531   5.347  0.3030  0.5512  0.2358
11296W        W27480  15.282  17.960  12.237  0.0317  0.2564 -0.1690
11297W        W27481   3.862  12.918  14.000 -0.0231  0.0664  0.0746
11298W        W27482   0.196   3.754   0.555 -0.2392  0.0038 -0.1288
11299W        W27483   5.008   2.068  13.778  0.1656 -0.0919 -0.0947
11300W        W27484  13.888  17.165  13.959  0.1289  0.0473 -0.1178
11301W        W27485   8.122   2.088  11.256 -0.0146 -0.0099 -0.2554
11302W        W27486   0.151   7.356  13.079  0.1935 -0.1978  0.1126
11303W        W27487  17.243   5.673   5.154  0.0426  0.0526 -0.1578
11304W        W27488  17.487   9.887  11.477  0.4152  0.0264  0.0958
11305W        W27489  14.606   1.774  15.557 -0.1469 -0.1144  0.3718
11306W        W27490  12.548  16.018  12.304  0.0584  0.2772 -0.1518
11307W        W27491   4.161   0.880  11.995  0.4681  0.0178 -0.0795
11308W        W27492   3.285   6.004  14.342  0.3336 -0.0130 -0.2236
11309W        W27493   6.251   6.956   3.688 -0.0280  0.1336 -0.0981
11310W        W27494  16.952  17.443  12.281 -0.1717  0.1560  0.0550
11311W        W27495   6.200  14.660  12.983 -0.1216 -0.1170 -0.0273
11312W        W27496   3.112   0.732   0.027  0.1716 -0.1232  0.3355
11313W        W27497   2.127  17.131  12.354 -0.1414  0.0059  0.0224
11314W        W27498   3.273   8.531  15.842  0.1495 -0.3953 -0.0529
11315W        W27499   0.126  11.727  13.558 -0.0438 -0.0531  0.0154
11316W        W27500   0.955  12.484   3.233 -0.1767  0.1889  0.1765
11317W        W27501   4.247   8.252  15.539 -0.0997 -0.0064  0.1386
11318W        W27502   0.361   7.487  16.188 -0.0753 -0.0383 -0.1041
11319W        W27503  14.652   4.693   3.058  0.0447  0.2575 -0.1388
11320W        W27504  11.543  14.708   0.802 -0.0964 -0.6118  0.0897
11321W        W27505   4.460   1.470   1.650 -0.1233 -0.1280 -0.0932
11322W        W27506   1.056  13.451  11.490  0.0181 -0.1022  0.2784
11323W        W27507   0.168   4.476  15.048  0.0310 -0.1339  0.1486
11324W        W27508  10.774   8.986   2.398  0.1697  0.0039  0.1775
11325W        W27509  14.470  12.004  13.097  0.1945  0.1580  0.1749
11326W        W27510   7.599   4.383  11.948  0.1104 -0.2580 -0.1764
11327W        W27511   7.414  13.695  16.560 -0.0818  0.0992 -0.3375
11328W        W27512  11.625   9.718   0.943  0.3079  0.0822 -0.1169
11329W        W27513  10.826   0.175  11.489 -0.0322  0.2242  0.2182
11330W        W27514  13.790   4.663  13.631  0.1828  0.1083 -0.1378
11331W        W27515   2.541   1.638  11.639  0.0394  0.0346 -0.1777
11332W        W27516  10.398  10.583   3.146  0.2291  0.0422 -0.1000
11333W        W27517   5.828   5.917   5.179 -0.0865 -0.1423 -0.1392
11334W        W27518   0.505  11.551   4.323 -0.1342  0.2074  0.1762
11335W        W27519  12.860  15.076  13.800 -0.0479 -0.1285  0.1465
11336W        W27520   4.895   2.711  16.433 -0.1164 -0.0247  0.0316
11337W        W27521   4.205  15.357   2.711 -0.1747 -0.1817 -0.0869
11338W        W27522  10.762  14.243   3.355 -0.2528  0.2295 -0.0658
11339W        W27523  16.537   6.265   3.710  0.2088 -0.0214 -0.1717
11340W        W27524  16.262   6.778   3.666 -0.2151 -0.2784 -0.3108
11341W        W27525   6.075  15.671  15.878  0.1579  0.1154 -0.1402
11342W        W27526   0.270  17.187   5.658 -0.0844 -0.1221 -0.1819
11343W        W27527  16.682   7.262   4.109  0.2630 -0.1711  0.0434
11344W        W27528  13.161   9.943   0.716 -0.3764 -0.1177 -0.0192
11345W        W27529   8.349   7.616  12.240  0.3090 -0.2225  0.1786
11346W        W27530   4.255  17.509   0.717 -0.2638  0.0908  0.2152
11347W        W27531   4.168   7.829   0.009 -0.0622  0.1922 -0.1265
11348W        W27532  13.947  11.642  12.504 -0.2138 -0.3109 -0.0508
11349W        W27533  14.076  16.901  11.496 -0.1227 -0.0508 -0.0090
11350W        W27534  15.734  15.505  16.133 -0.0569  0.5526 -0.0684
11351W        W27535  12.553   9.554  13.160  0.2027 -0.3163  0.0422
11352W        W27536   5.317   3.782   4.427  0.0107  0.1877  0.2839
11353W        W27537   0.430  17.548   0.129  0.1342 -0.3026  0.0177
11354W        W27538  13.750   7.743   4.441  0.1990  0.2679  0.2841
11355W        W27539  13.614  16.303   1.604 -0.0016 -0.0922  0.2309
11356W        W27540   6.810  10.674   4.308 -0.0244 -0.1127  0.0982
11357W        W27541   3.260  10.466   1.172 -0.3056  0.0107  0.3746
11358W        W27542   7.454   8.853   3.734  0.1173 -0.2406  0.2089
11359W        W27543   8.457   5.941   1.850  0.0087  0.0021 -0.0568
11360W        W27544   5.843   4.112  15.569 -0.2172  0.2074 -0.1111
11361W        W27545  15.897   3.756  14.921  0.2379 -0.0535 -0.1881
11362W        W27546   0.143   2.035   6.079  0.1530  0.1179 -0.2540
11363W        W27547   8.864   6.334  14.433  0.0376  0.2038  0.0160
11364W        W27548  14.361   7.226  11.502 -0.1218  0.0530 -0.1757
11365W        W27549  12.509   6.285   2.978 -0.0384 -0.1890  0.1614
11366W        W27550  16.416   7.473  12.796 -0.0601  0.4555  0.3874
11367W        W27551   4.705   1.675   3.401 -0.0211 -0.1248 -0.0380
11368W        W27552  14.942   4.116   4.426 -0.1710 -0.1368 -0.1445
11369W        W27553  10.172   8.233  15.916 -0.0734  0.0194 -0.0293
11370W        W27554  16.356  14.814  13.382 -0.1148 -0.2133 -0.2262
11371W        W27555   9.410   6.705   1.387  0.1496 -0.0485 -0.0560
11372W        W27556   0.686   2.177   5.948 -0.0517  0.2362  0.0875
11373W        W27557   0.110   6.088  13.662  0.2211 -0.1757 -0.2403
11374W        W27558  14.456  12.930   2.579  0.1103  0.2219 -0.3524
11375W        W27559  10.686   8.820  12.897  0.0913  0.0020 -0.0861
11376W        W27560   0.860  15.535   0.315 -0.3720 -0.0981 -0.2676
11377W        W27561  14.078  15.337   1.974  0.0494  0.2164 -0.0428
11378W        W27562   3.852   9.155  15.039  0.1657 -0.0537  0.2685
11379W        W27563   5.377   0.181   3.797  0.0677  0.0847 -0.1344
11380W        W27564  17.873   4.368   4.473 -0.1627 -0.3125 -0.0460
11381W        W27565  10.696   7.753   4.034  0.0596 -0.3961 -0.0316
11382W        W27566   5.054   3.185  13.916 -0.0972  0.2738 -0.1107
11383W        W27567  12.237   7.840   0.623 -0.0022  0.1378 -0.4104
11384W        W27568   9.339  14.377   5.809 -0.0575 -0.1001 -0.1047
11385W        W27569  14.080  10.332  13.365  0.1905 -0.0242 -0.0479
11386W        W27570  13.952  17.279   1.394  0.0200 -0.1249  0.4464
11387W        W27571   0.555  15.388  14.205 -0.2742  0.0009  0.4138
11388W        W27572   6.532  13.780   4.962  0.1001 -0.2041 -0.0516
11389W        W27573  13.619  15.681  15.825 -0.0584  0.0221 -0.1083
11390W        W27574   2.952  17.939   4.760 -0.3785  0.1048 -0.1864
11391W        W27575  13.309   5.209  13.906 -0.2381  0.5639 -0.4029
11392W        W27576   7.701  13.091  14.046 -0.0151 -0.0489 -0.1544
11393W        W27577   0.860   3.509   1.925 -0.1214  0.2416  0.0748
11394W        W27578  14.056  15.012   4.865 -0.3808  0.3083  0.1789
11395W        W27579   6.237   6.481   3.486  0.1666 -0.0328 -0.0528
11396W        W27580  17.748   6.013  12.005  0.0139 -0.1387  0.0509
11397W        W27581   6.228  13.160  13.163  0.1879 -0.1040  0.0816
11398W        W27582   5.460  13.828  16.675  0.0731  0.2653  0.1887
11399W        W27583   1.181   5.185   3.155 -0.0588  0.1258 -0.2027
11400W        W27584   0.072   2.483  13.877 -0.0796 -0.3286 -0.0047
11401W        W27585  17.650   7.670   0.050 -0.0291  0.0244  0.2423
11402W        W27586  12.365  11.843   6.244  0.3003 -0.1180 -0.0987
11403W        W27587   4.332   1.255   0.597  0.0436 -0.0952 -0.0945
11404W        W27588  10.053  12.460  11.830  0.1403  0.3015  0.3101
11405W        W27589   3.483  13.631  13.330 -0.0907 -0.2183 -0.2500
11406W        W27590   8.874  11.399   1.652 -0.0059 -0.0534 -0.0545
11407W        W27591   7.263   2.366  14.609 -0.0775 -0.0605 -0.1916
11408W        W27592  12.636   0.788   0.217 -0.0871 -0.1764  0.2210
11409W        W27593   5.939   1.475  13.859  0.1968  0.1543  0.1281
11410W        W27594   5.909   5.835   0.291 -0.0643  0.1458  0.0102
11411W        W27595   3.097  12.538   1.642  0.2725 -0.2402  0.3137
11412W        W27596  17.488   8.620   4.132 -0.3350 -0.1721 -0.0341
11413W        W27597  11.240   8.613   3.521  0.0449  0.0015  0.0372
11414W        W27598   5.608   5.039  15.252  0.0305  0.0049 -0.1648
11415W        W27599   6.737   2.262  16.694 -0.1286 -0.1255 -0.0280
11416W        W27600  11.102  11.662  12.567  0.0257  0.0548  0.1573
11417W        W27601  14.293  17.401   4.842 -0.2106 -0.0440  0.0124
11418W        W27602  15.240   5.929   5.139  0.0350  0.3448 -0.1157
11419W        W27603  12.563   2.493   3.578  0.2726  0.1009  0.3707
11420W        W27604  12.331   7.826   2.696  0.1660 -0.1342 -0.1383
11421W        W27605   6.586   4.943  13.312 -0.3093  0.4987 -0.3324
11422W        W27606  12.956   4.147   3.484  0.2115 -0.0914  0.1961
11423W        W27607  15.484   3.302   0.084 -0.2217 -0.2990  0.2296
11424W        W27608   2.239   9.802   4.251  0.1120  0.2010 -0.1566
11425W        W27609  11.308  17.577   2.725  0.1751 -0.2359 -0.0475
11426W        W27610   4.083   5.851   2.196  0.3802  0.1040  0.0508
11427W        W27611   6.186   8.992   0.907  0.1945 -0.1219 -0.1315
11428W        W27612   6.543   1.564  15.547  0.0274  0.0150 -0.1808
11429W        W27613   9.216  12.907  12.533  0.0544  0.1066  0.1782
11430W        W27614   1.943  10.402  14.216  0.1396  0.3528  0.2598
11431W        W27615  11.161   5.661  16.174  0.4378 -0.2062 -0.1382
11432W        W27616  10.460   9.264   2.717  0.1322  0.2291  0.1346
11433W        W27617   3.342   2.006  13.660 -0.4503 -0.0566 -0.2757
11434W        W27618   0.205   4.852   6.007  0.1188  0.0869 -0.1604
11435W        W27619  16.761   4.555   4.425  0.3021 -0.0271 -0.0670
11436W        W27620  12.471   0.096  12.985 -0.0642  0.2961  0.0046
11437W        W27621  10.695   8.572   3.207  0.1453 -0.0730  0.0458
11438W        W27622   3.285   4.398   3.927  0.3206  0.0560  0.0263
11439W        W27623   8.275  16.322  15.413  0.2568  0.0925 -0.0182
11440W        W27624   4.462  12.039  12.841  0.4381  0.2586 -0.0903
11441W        W27625  10.214  12.433  13.163  0.0487 -0.1296 -0.2195
11442W        W27626   8.027  14.085  15.479 -0.0830 -0.0989 -0.2908
11443W        W27627  14.191   6.052  11.333  0.0378  0.1587 -0.0626
11444W        W27628   4.877   6.515   5.341  0.0752  0.2827 -0.1149
11445W        W27629  11.579  14.666  14.042 -0.0892  0.0218 -0.0835
11446W        W27630   8.811   2.231  14.795  0.2334 -0.1634  0.1339
11447W        W27631  11.695  10.394   2.258 -0.0622  0.0564 -0.0671
11448W        W27632   8.445   2.374  13.675 -0.1497 -0.3831  0.3073
11449W        W27633  16.428   3.734  15.943  0.1883 -0.1189  0.0343
11450W        W27634  14.557   8.557   4.973  0.1348  0.0439  0.0072
11451W        W27635  13.016  10.931   6.272 -0.2686  0.0428 -0.1593
11452W        W27636  14.108  12.337   2.762 -0.3910  0.0352 -0.3653
11453W        W27637  11.525   7.244   0.791  0.2626  0.1914 -0.3377
11454W        W27638  13.024   5.215   6.053 -0.2406  0.1632 -0.1152
11455W        W27639   8.458   9.633  12.606  0.3760  0.2387 -0.1406
11456W        W27640  10.804  16.556  12.708 -0.3251 -0.3770 -0.1389
11457W        W27641  16.812   2.797  11.542  0.3582  0.4040 -0.0386
11458W        W27642   1.380   2.994  12.418 -0.0354  0.3429  0.2233
11459W        W27643  15.064  11.648  16.490 -0.0131 -0.0108 -0.0875
11460W        W27644   6.249   2.239  12.578 -0.2161  0.0238 -0.1409
11461W        W27645   3.378   5.489   4.930 -0.0878 -0.1513 -0.3480
11462W        W27646   2.268   0.053   1.279  0.1163  0.1061 -0.0036
11463W        W27647   9.117   9.972   1.355 -0.1691  0.0110  0.0416
11464W        W27648  11.657   4.272   2.381 -0.3613 -0.4690  0.4075
11465W        W27649   0.702  15.079  13.211 -0.1953 -0.0364 -0.0615
11466W        W27650  10.144  13.938   4.462 -0.2013  0.2999 -0.2330
11467W        W27651  15.118  15.663  12.662  0.1045 -0.1433  0.0235
11468W        W27652   1.014   2.710   0.695  0.0092  0.3728  0.0775
11469W        W27653  17.649   7.205  14.896  0.3730 -0.2216 -0.0869
11470W        W27654   9.915   0.295  12.763  0.2212  0.0432  0.2385
11471W        W27655   0.200  12.331   3.191 -0.0544  0.2372 -0.0812
11472W        W27656  16.572   9.689  12.585  0.1670  0.2103 -0.1046
11473W        W27657   3.636   2.613  12.058 -0.1926 -0.2698  0.0228
11474W        W27658   3.123   1.452   5.190 -0.1886 -0.3585  0.3358
11475W        W27659  14.037  10.533   3.714 -0.2554  0.1231 -0.0991
11476W        W27660   8.172   1.769   1.323  0.0627 -0.1937 -0.0829
11477W        W27661  16.744   3.040  13.827  0.0256  0.1172 -0.2468
11478W        W27662  11.368   4.147   0.453 -0.0225 -0.1588 -0.2997
11479W        W27663   4.310  10.747   3.159  0.0716  0.2516  0.1541
11480W        W27664   9.734   7.478   5.684 -0.0051 -0.1618  0.0106
11481W        W27665  13.150  17.115   0.883  0.0679  0.1575  0.0417
11482W        W27666  11.225   9.660   2.347 -0.1540  0.0750  0.2126
11483W        W27667  16.532  14.826   4.556 -0.0256 -0.0011 -0.0036
11484W        W27668   2.921   3.062   3.132  0.0539  0.2349  0.1987
11485W        W27669  14.394   6.967   2.432  0.0777  0.0005 -0.1459
11486W        W27670   4.538  10.366   4.396 -0.1300 -0.2198  0.1192
11487W        W27671   4.803  12.226  15.792 -0.0706  0.3546 -0.0971
11488W        W27672  11.773  17.361   2.627 -0.0183  0.1908  0.2229
11489W        W27673   7.821   2.911   1.260  0.1585 -0.0059 -0.3247
11490W        W27674  16.054   3.113   1.421  0.1008  0.0984  0.0295
11491W        W27675  14.375   2.878   0.896  0.1142 -0.2205  0.0014
11492W        W27676   2.287   5.989   1.990  0.1112 -0.2417 -0.1480
11493W        W27677  10.804   0.645   3.225  0.0657 -0.1198  0.1049
11494W        W27678   9.122  14.047  16.344  0.0368  0.1813  0.1010
11495W        W27679  16.124  13.841  13.506 -0.2618 -0.0836 -0.2443
11496W        W27680  15.343   1.766   6.116  0.0868  0.1408 -0.1961
11497W        W27681   2.118  14.727   1.684  0.0423  0.0215  0.0109
11498W        W27682   1.845  11.770  16.085  0.2331 -0.1753 -0.0111
11499W        W27683  13.962  13.710   1.259 -0.1668  0.0597 -0.0913
11500W        W27684  16.760   2.347  11.206 -0.0838  0.1478 -0.0245
11501W        W27685  10.512   0.916  13.648  0.0527  0.0590 -0.1236
11502W        W27686   8.692   4.853   4.716 -0.0517  0.3356 -0.0583
11503W        W27687  17.843  11.405  15.978 -0.1101  0.1629  0.2227
11504W        W27688  11.737  12.418  14.590  0.1738  0.0521 -0.1801
11505W        W27689   2.065   3.243  15.238  0.2011 -0.2467  0.0918
11506W        W27690   7.674  10.871  12.603  0.2123  0.1112  0.0117
11507W        W27691  16.870   3.164   4.502 -0.2066  0.1001  0.0445
11508W        W27692   9.109  15.441   4.511  0.2015 -0.4416  0.1002
11509W        W27693   1.524  11.000  15.526  0.1204 -0.2555 -0.1378
11510W        W27694   9.122  15.279   3.650 -0.0068  0.2666  0.2463
11511W        W27695   8.958  14.238   3.629 -0.1507 -0.1535  0.4080
11512W        W27696  14.103  13.204   2.340  0.0565 -0.0988  0.0923
11513W        W27697   9.171  15.882  16.588 -0.0525  0.0552  0.1623
11514W        W27698   5.908  15.342   1.966  0.1617  0.3353 -0.0518
11515W        W27699   0.476  15.319  11.391  0.2452 -0.0073 -0.1625
11516W        W27700  17.911  17.557  13.837  0.0127  0.1670  0.2881
11517W        W27701   1.451  11.729  12.579 -0.1340 -0.1605 -0.5060
11518W        W27702   1.871   2.760   3.848 -0.1821  0.0693 -0.2670
11519W        W27703   3.137  12.239  14.444 -0.1000 -0.1865 -0.1057
11520W        W27704  15.682   8.821   4.682 -0.2057 -0.0432  0.0836
11521W        W27705   0.064  17.072  11.666  0.0736 -0.0335  0.0864
11522W        W27706   4.508   8.906   1.911  0.1702  0.1268 -0.0634
11523W        W27707   9.978  17.072  16.349 -0.0034  0.2784 -0.0881
11524W        W27708   1.542   7.488   2.253 -0.0289 -0.0259  0.0009
11525W        W27709  15.493   7.386   4.521 -0.1704  0.3022  0.1331
11526W        W27710   4.946   3.487  14.915  0.3048 -0.1116  0.0102
11527W        W27711  17.391   2.074  12.757 -0.1427 -0.0358  0.3136
11528W        W27712  14.651   0.902   1.798 -0.0152 -0.0292  0.1455
11529W        W27713  13.020  12.657  16.437  0.0421 -0.2074 -0.0152
11530W        W27714   6.713  15.353   2.965 -0.1364 -0.0804  0.1950
11531W        W27715   6.717   2.029   3.974  0.1664 -0.0017  0.2310
11532W        W27716  12.054  10.068  13.690 -0.1291 -0.1287 -0.0645
11533W        W27717  15.696  13.348   6.550  0.1499 -0.0772  0.1048
11534W        W27718   6.598  15.633  13.975  0.1975 -0.1692 -0.2278
11535W        W27719   2.916  17.295  13.152 -0.1900 -0.2197 -0.1822
11536W        W27720  16.394   2.934   5.919  0.4561 -0.1913  0.1380
11537W        W27721  11.064  16.029   2.341 -0.1834 -0.2341  0.1626
11538W        W27722   4.678  17.893   5.724  0.0415  0.3401 -0.1327
11539W        W27723   5.167   7.400   1.531 -0.1798  0.3215  0.0524
11540W        W27724  10.529  13.152  13.970 -0.3081 -0.3808 -0.2176
11541W        W27725  12.356  14.434   3.005 -0.0058  0.2061 -0.1182
11542W        W27726  10.398   9.512  12.749  0.1895  0.2439 -0.1104
11543W        W27727  15.405   4.366   2.685 -0.0718  0.2438  0.2078
11544W        W27728  15.957   9.424  15.635 -0.1179 -0.3775  0.0579
11545W        W27729   4.530   8.793   5.753  0.2041 -0.0715 -0.3551
11546W        W27730   4.072  11.044   1.281 -0.1037 -0.2564 -0.3828
11547W        W27731   4.519  14.372   1.548  0.3783 -0.3192  0.1033
11548W        W27732  14.628   4.827  12.541  0.4200 -0.4565  0.1131
11549W        W27733  13.384   5.666   1.799  0.2448 -0.0725 -0.3521
11550W        W27734   1.442   1.139  14.138 -0.3402  0.0300  0.3084
11551W        W27735   2.929  12.420   4.180 -0.2950 -0.1562  0.2783
11552W        W27736   0.718   0.195  15.054  0.1070  0.0561  0.2306
11553W        W27737   7.419   8.488  12.327  0.0014 -0.1979 -0.2048
11554W        W27738  13.961  13.977   2.772 -0.1197  0.0794 -0.0342
11555W        W27739   8.701   5.841  12.682  0.0068 -0.0145 -0.1248
11556W        W27740  13.169  13.746  11.862  0.2636  0.0631 -0.0883
11557W        W27741   2.852   2.594   2.938  0.1053  0.1303  0.3642
11558W        W27742  13.043  10.522   1.014 -0.1948 -0.1510  0.0914
11559W        W27743   0.531   3.380   1.276  0.1381 -0.2142  0.0556
11560W        W27744   7.147   4.246  12.165  0.0934  0.2148  0.0557
11561W        W27745  10.364  12.834   3.121  0.0600 -0.1342  0.0218
11562W        W27746   8.192   0.739   1.675 -0.4059 -0.2735 -0.0572
11563W        W27747  16.853   7.421   1.266 -0.0518 -0.0004 -0.3341
11564W        W27748  15.308  16.161  11.753 -0.0971  0.0478 -0.3248
11565W        W27749  15.073  11.205  15.761 -0.0670  0.2533  0.1595
11566W        W27750  14.013  14.821   3.111 -0.2452  0.2340  0.0426
11567W        W27751  15.815   8.006   0.114  0.2592 -0.1477 -0.0847
11568W        W27752  12.734   2.182  15.917 -0.3123  0.1311 -0.2958
11569W        W27753   2.252  17.308   4.032 -0.1797 -0.0356 -0.1640
11570W        W27754  16.422  15.489   5.198  0.0187 -0.0411  0.2081
11571W        W27755   9.947   2.691   3.023 -0.3271 -0.0394  0.1059
11572W        W27756   1.303  15.081   5.694 -0.0514 -0.2611 -0.0057
11573W        W27757  14.096   9.488   3.819  0.1640 -0.2028  0.0250
11574W        W27758  12.909   8.009  10.577 -0.2015 -0.1692  0.0969
11575W        W27759  17.188   5.757   3.427  0.1737  0.1253 -0.1205
11576W        W27760  17.109  11.031   2.481  0.1096  0.0168  0.0385
11577W        W27761   9.020   7.901   1.415  0.2315 -0.1879  0.0417
11578W        W27762  17.624   2.295   4.978  0.0383  0.1321 -0.1426
11579W        W27763  17.676   8.617  15.357 -0.1375 -0.0512 -0.1344
11580W        W27764   6.611  17.683   4.742  0.0828 -0.2052 -0.1623
11581W        W27765  16.428   3.816   5.142 -0.0620  0.2162 -0.0527
11582W        W27766  14.798  15.900  14.130  0.0629 -0.0934 -0.1244
11583W        W27767   3.182  16.147  14.326  0.0370  0.3943 -0.0786
11584W        W27768   0.431   1.197   2.504  0.1994  0.0829 -0.3283
11585W        W27769   6.678  15.140  15.742 -0.0742  0.0945  0.0674
11586W        W27770  11.593   1.515   4.155 -0.0469 -0.0624 -0.0567
11587W        W27771   9.214  17.537   6.017 -0.0467 -0.1187 -0.0187
11588W        W27772   2.877  15.548  11.887  0.3171 -0.0468  0.0747
11589W        W27773  13.440   8.977   4.982 -0.1097 -0.1237 -0.2791
11590W        W27774  15.146   3.648  12.995  0.0896  0.1271  0.2523
11591W        W27775   5.319   6.722   4.988  0.3943  0.0939  0.2837
11592W        W27776  15.905  14.621   2.504  0.1740  0.0289  0.2485
11593W        W27777   1.964   9.040  16.534  0.0310 -0.1670  0.3240
11594W        W27778   0.015  14.759   5.489 -0.2539  0.1326 -0.0948
11595W        W27779  16.546   2.733   3.431 -0.0827 -0.0221  0.1158
11596W        W27780   9.096   5.630   2.438  0.0925  0.3233  0.1523
11597W        W27781   9.232   3.959   5.531  0.1018 -0.1441  0.0549
11598W        W27782  13.614  12.374  14.777  0.0091 -0.2235 -0.2333
11599W        W27783   7.024  15.195  16.077 -0.1303 -0.4344 -0.0608
11600W        W27784   0.996  14.772  16.541 -0.1505  0.0223  0.1593
11601W        W27785   0.997   9.451  16.067  0.2014 -0.0464  0.2258
11602W        W27786  13.562  16.884  14.738 -0.1039 -0.0587  0.0325
11603W        W27787   2.204   0.034  16.006  0.3510 -0.1077 -0.2848
11604W        W27788  10.300  12.946  13.150  0.0226 -0.2142 -0.1421
11605W        W27789  11.812   4.017  13.276  0.0708  0.1909 -0.0254
11606W        W27790  13.059  11.963  14.106 -0.2383 -0.0882 -0.2932
11607W        W27791  10.072  12.653  12.316  0.0028  0.3162 -0.0081
11608W        W27792  15.000   5.509   3.205  0.1062  0.0913 -0.0520
11609W        W27793   6.751  17.164  15.019  0.0666 -0.1996 -0.0954
11610W        W27794  16.319  15.912   0.314 -0.2107  0.0692 -0.1931
11611W        W27795  17.893  14.686  15.513  0.2770 -0.0102 -0.0184
11612W        W27796  17.074  14.166   1.213 -0.1909  0.0526  0.2304
11613W        W27797   4.623   9.902   3.320 -0.2698  0.0183 -0.2004
11614W        W27798  16.182   2.613   1.331  0.2357  0.1152 -0.2183
11615W        W27799   6.212   3.400   2.509 -0.0960 -0.1112 -0.0877
11616W        W27800  10.268   2.816  14.630 -0.0184  0.0795  0.0646
11617W        W27801   3.493   3.376  13.477  0.2348 -0.1369 -0.3636
11618W        W27802  16.240  10.488  16.559 -0.0118 -0.3083 -0.0945
11619W        W27803   4.706   4.604   4.414 -0.1788  0.1234  0.1509
11620W        W27804   2.706  10.154   3.257 -0.2757 -0.0170  0.0566
11621W        W27805  14.757   1.632   3.387  0.0816 -0.0839 -0.1454
11622W        W27806   4.794   6.491  16.351  0.1797 -0.2079  0.3983
11623W        W27807   7.025  16.185   5.249 -0.1581  0.3000  0.0817
11624W        W27808  10.713   0.185   0.604 -0.0008 -0.3024  0.2479
11625W        W27809  11.736   6.802   0.866 -0.1963 -0.0948  0.0020
11626W        W27810   0.663  14.629  13.605  0.1719  0.1258 -0.1630
11627W        W27811   1.604   6.597  16.207  0.1194  0.2036 -0.2913
11628W        W27812  16.997   6.474  13.482 -0.1305 -0.0325 -0.0472
11629W        W27813  10.585   9.683   5.431 -0.2881  0.0572 -0.0294
11630W        W27814   1.789   1.455  13.660  0.1300 -0.0570  0.0324
11631W        W27815  17.703   4.480   3.229  0.2170 -0.2130 -0.0040
11632W        W27816   5.835  11.716   4.533 -0.3974 -0.1333  0.0950
11633W        W27817   3.580  11.858  12.710 -0.0968  0.0688  0.2436
11634W        W27818   3.552   8.879  11.553  0.0461  0.0623 -0.3037
11635W        W27819  10.378  15.432  13.724  0.0272 -0.1555 -0.1235
11636W        W27820   4.683  16.135   1.958  0.2778 -0.1703  0.2290
11637W        W27821   2.296   9.428  14.376  0.1539  0.1011  0.0377
11638W        W27822   6.385   3.629   3.960 -0.0640 -0.1652  0.1818
11639W        W27823   2.623   5.783  12.531 -0.2348  0.0983  0.3839
11640W        W27824  11.881   4.863   2.991  0.0318 -0.0412  0.2547
11641W        W27825   4.813  16.909   3.275  0.3170 -0.0000  0.4335
11642W        W27826  12.864   5.083   0.347  0.0422  0.0814 -0.0059
11643W        W27827   4.296  11.950   4.299 -0.2744  0.0669  0.1510
11644W        W27828  10.819   9.254   6.223 -0.1140  0.4128  0.0256
11645W        W27829   6.851   7.335  14.037  0.0133 -0.2190  0.1246
11646W        W27830  10.960   0.306  16.420 -0.2264  0.2673  0.1505
11647W        W27831   0.437   8.089   0.429  0.2757  0.2837 -0.0284
11648W        W27832   7.094   5.738  13.307  0.2779 -0.2553  0.3645
11649W        W27833  14.044   2.397   3.685 -0.0934 -0.1736 -0.1043
11650W        W27834  15.138  17.783  11.255 -0.0056 -0.0076 -0.1638
11651W        W27835  15.612   6.503   1.010 -0.0124 -0.0398 -0.0465
11652W        W27836  17.351  13.418   2.578 -0.3311  0.1904 -0.1521
11653W        W27837  15.491   6.602   2.958 -0.1139 -0.2490  0.1074
11654W        W27838   9.511  15.019   2.639  0.0977 -0.3087  0.1782
11655W        W27839   1.131   0.230   0.033 -0.1194  0.1982  0.0220
11656W        W27840   8.711   3.791   2.933  0.0758 -0.3588  0.1824
11657W        W27841  13.889   5.430  14.955  0.0864  0.1431  0.1138
11658W        W27842  12.122   7.354   1.469 -0.0547  0.1593  0.0653
11659W        W27843  15.634  15.108   2.473 -0.0447 -0.1052 -0.1952
11660W        W27844   2.146  16.376   0.634  0.2163 -0.0622 -0.0859
11661W        W27845   4.887   0.573   2.110 -0.2323 -0.0456  0.1626
11662W        W27846  13.065  17.444   3.605  0.0388  0.0370 -0.0103
11663W        W27847   0.589  11.100   3.283 -0.0296 -0.2388  0.2362
11664W        W27848   3.449  15.589  10.040  0.2120 -0.0585  0.2242
11665W        W27849  11.201   9.854  13.264  0.0528 -0.1535 -0.0448
11666W        W27850  15.507   4.095  15.041 -0.0679 -0.2027  0.1247
11667W        W27851   3.853   9.849   4.268 -0.1791  0.2700  0.4468
11668W        W27852   6.325   3.555   1.514  0.0660 -0.0014  0.1751
11669W        W27853   5.066  14.826  15.899 -0.1133 -0.2973 -0.0455
11670W        W27854  11.347   7.852  16.271 -0.2236  0.1205  0.3450
11671W        W27855   8.969   1.177  12.368  0.0443 -0.1302 -0.0683
11672W        W27856  16.807  10.177   1.607 -0.0825  0.1571  0.2072
11673W        W27857   3.419  16.076  15.282  0.0998 -0.1403 -0.0665
11674W        W27858   7.005  10.780  13.797  0.1351 -0.0221  0.1287
11675W        W27859   8.904   0.821  12.798 -0.2097  0.0851 -0.3907
11676W        W27860  15.389   8.136   5.086  0.0816  0.3920  0.1196
11677W        W27861  13.136   9.484   2.190  0.1338 -0.1763  0.0500
11678W        W27862   4.727   8.085  15.606  0.4153  0.0456  0.1370
11679W        W27863  15.806   7.861  13.367 -0.1423  0.0868 -0.3200
11680W        W27864   9.573   1.374   5.421 -0.1726 -0.1964  0.2270
11681W        W27865  16.306   6.018  14.821 -0.1880  0.2028 -0.2225
11682W        W27866   2.465  17.165   4.671 -0.2274 -0.0775  0.1991
11683W        W27867  17.576  12.015   1.260  0.0410 -0.0446  0.0130
11684W        W27868  10.002  12.212   5.093  0.1264  0.1229  0.0870
11685W        W27869  15.567   8.115  11.229  0.0852  0.2826  0.2500
11686W        W27870   1.569  16.993   1.944 -0.1359 -0.0591  0.0499
11687W        W27871  11.814  10.364   4.071  0.0910  0.3110  0.1341
11688W        W27872  12.393   9.644   3.041  0.2540  0.1228  0.0559
11689W        W27873   7.928   8.719   4.507 -0.2694 -0.1616 -0.0078
11690W        W27874   2.257   5.586  16.458  0.0047 -0.3254  0.2739
11691W        W27875   7.414   4.853   0.727 -0.0359 -0.3413  0.0501
11692W        W27876   6.175   0.664   3.613 -0.0872 -0.2179  0.0927
11693W        W27877   7.736   4.662  13.534  0.1646 -0.1022 -0.0154
11694W        W27878   9.528   0.633  15.576  0.2385 -0.0517 -0.2987
11695W        W27879   2.192  17.179  16.427 -0.2669 -0.1010  0.1723
11696W        W27880   6.596  16.876   4.889 -0.1162  0.0405 -0.0186
11697W        W27881   6.115   2.290  16.009 -0.1103  0.4474 -0.0231
11698W        W27882  17.452   9.455  11.971 -0.0096 -0.1523  0.2409
11699W        W27883   9.099   4.808   0.278  0.0279  0.0215  0.0794
11700W        W27884   2.298  17.918  12.542 -0.2312  0.0999 -0.4286
11701W        W27885   9.590   5.070   3.490  0.0875 -0.1138 -0.3495
11702W        W27886   1.804   8.077   1.349  0.0633 -0.2283 -0.2427
11703W        W27887   0.248   3.756   1.065  0.3014 -0.1938  0.0498
11704W        W27888  10.132  11.625  13.805 -0.0380  0.0347  0.0309
11705W        W27889   6.103  10.771   3.136  0.0179  0.1380 -0.1289
11706W        W27890  14.916  10.521   3.589  0.0753 -0.2516  0.1332
11707W        W27891   6.454   1.602   3.897 -0.2326  0.0583  0.0574
11708W        W27892  14.719   1.569   4.389 -0.0116 -0.0407 -0.1845
11709W        W27893   1.280   7.705   0.603  0.2019  0.3089  0.1018
11710W        W27894  12.872   1.273  11.631  0.0615 -0.1412  0.1069
11711W        W27895  15.882   9.169  13.811  0.3839 -0.2431  0.3035
11712W        W27896   0.744   8.121   3.217 -0.0839 -0.2054  0.0288
11713W        W27897  17.357   8.982  12.793  0.2459  0.0648  0.1872
11714W        W27898   0.822   8.633   2.557  0.1557  0.2069  0.0752
11715W        W27899   8.977  14.808  12.389  0.0950  0.0714 -0.3445
11716W        W27900  14.991   1.885  14.725 -0.0277  0.2233  0.0170
11717W        W27901   0.285   7.035   5.557  0.0876 -0.1926 -0.1603
11718W        W27902  10.526  13.624  14.200 -0.3545 -0.1381  0.1252
11719W        W27903  16.967  13.486   5.539  0.1781  0.0166  0.4059
11720W        W27904   7.737   1.344  15.194 -0.0364 -0.4549  0.2076
11721W        W27905   4.760  12.091  16.276 -0.1210  0.1360 -0.0074
11722W        W27906   5.080  17.685  13.551 -0.0771 -0.0299 -0.1671
11723W        W27907   5.193   2.529   3.039  0.0456  0.0433 -0.1457
11724W        W27908   2.052  10.254   3.021  0.0255  0.0043  0.2995
11725W        W27909   6.730  14.758  11.051  0.0468 -0.2032  0.1233
11726W        W27910  10.058   2.361   1.137  0.0428 -0.1335  0.1053
11727W        W27911   9.123  13.419   5.560  0.1334 -0.0651 -0.1662
11728W        W27912   8.500   6.103  16.639 -0.0893  0.2605  0.2897
11729W        W27913  14.019  17.195  13.386 -0.1141 -0.2579 -0.1763
11730W        W27914   7.064  10.305  12.114 -0.1354  0.0097  0.0101
11731W        W27915   9.996   2.809   5.514 -0.1339 -0.1118 -0.1850
11732W        W27916   1.549   3.523   1.731 -0.1958  0.1921  0.3708
11733W        W27917   0.468  16.142   5.269 -0.0944  0.1645 -0.3172
11734W        W27918  12.329   4.736  14.627 -0.0296 -0.1857  0.1494
11735W        W27919   4.614   3.396  13.770  0.2762  0.1436 -0.0512
11736W        W27920   2.104   2.484  12.134 -0.2722  0.0471 -0.0312
11737W        W27921   5.829   8.130   3.474  0.1221 -0.2292 -0.0211
11738W        W27922   2.419   5.718   3.367  0.0187 -0.1896  0.1916
11739W        W27923   9.226   6.060   6.275  0.3407  0.4051 -0.2270
11740W        W27924   8.156  13.754  12.791  0.1243  0.1832  0.1706
11741W        W27925  15.524   7.118  12.757  0.0880  0.0023  0.0225
11742W        W27926   7.522   7.652  15.892 -0.1301  0.0651 -0.1102
11743W        W27927   1.112   6.783   5.034  0.1098 -0.0321  0.0090
11744W        W27928   7.177   0.513   3.160  0.3311  0.1298 -0.1543
11745W        W27929  12.534  17.134  15.799  0.0361 -0.1881 -0.1942
11746W        W27930   1.161  13.936   4.738 -0.0163  0.0651  0.3871
11747W        W27931   2.328  15.680   4.653 -0.1946 -0.0020  0.1565
11748W        W27932   5.335  14.366  10.533  0.1911  0.1583 -0.3529
11749W        W27933   1.523  11.661   0.699 -0.1524 -0.0017  0.0687
11750W        W27934   5.681   1.973  16.192  0.1258 -0.1000  0.3286
11751W        W27935   3.821   8.485  13.778 -0.3157  0.0440 -0.1018
11752W        W27936   3.464   7.607  13.433 -0.0603 -0.0031  0.1526
11753W        W27937  10.444   3.612  15.831  0.0043  0.0475 -0.1958
11754W        W27938   4.411   5.197  14.810 -0.1780 -0.0885 -0.3092
11755W        W27939   7.995  11.332  12.374  0.2979  0.0059 -0.2457
11756W        W27940   7.047   5.925  15.943 -0.3194  0.0501  0.0237
11757W        W27941   2.620  11.977  15.419  0.1836  0.1872 -0.3203
11758W        W27942   4.566   8.394  13.240 -0.1951  0.2868  0.0663
11759W        W27943  16.877  17.232   1.911 -0.1465 -0.3505  0.4306
11760W        W27944   1.614   4.786   1.366  0.1358 -0.0664 -0.3272
11761W        W27945   2.071  14.905  15.398  0.2823  0.1295 -0.0442
11762W        W27946  15.332   9.464   0.388  0.2127 -0.1565 -0.0188
11763W        W27947   5.830   7.116  14.809 -0.4794  0.1329 -0.2785
11764W        W27948   2.128  16.888  13.837  0.1068 -0.1892  0.1388
11765W        W27949  13.985   1.863   2.678  0.2039 -0.0312 -0.0033
11766W        W27950  17.565  16.601  11.493  0.0052 -0.1188  0.2045
11767W        W27951   0.636   6.942  14.542  0.1176  0.0822 -0.0731
11768W        W27952  14.321  12.780   4.927  0.1981  0.1662 -0.0266
11769W        W27953  12.928  16.986   1.794  0.2004  0.0559 -0.0970
11770W        W27954   3.076   8.775   3.169  0.3238 -0.1865  0.0667
11771W        W27955  10.753   9.164  12.565 -0.0591  0.1231 -0.2930
11772W        W27956  12.261   1.767  12.163 -0.0765  0.1606  0.0265
11773W        W27957  10.821  16.629   4.243 -0.1009  0.1209 -0.1960
11774W        W27958   1.054  10.919   5.898 -0.0630 -0.1401 -0.0478
11775W        W27959  16.292  16.470   5.570  0.3980  0.2636 -0.1956
11776W        W27960   5.009  16.792   1.039 -0.1550 -0.2813  0.1277
11777W        W27961   1.168  17.667  12.277 -0.0196  0.0191 -0.0953
11778W        W27962   9.697   4.719  13.485  0.1218  0.2211  0.0958
11779W        W27963  15.145   2.410  14.560  0.2110 -0.0452 -0.1327
11780W        W27964  12.920  17.154   3.987 -0.2232 -0.2600 -0.1335
11781W        W27965   0.534  10.649   3.594 -0.3317  0.1022 -0.2769
11782W        W27966   9.001   2.372  11.932 -0.0050  0.1399  0.4005
11783W        W27967  15.188  12.104  16.068 -0.1385  0.2179 -0.1726
11784W        W27968  16.614  14.287   4.683  0.0842 -0.0982 -0.0704
11785W        W27969   4.759  16.788  13.384  0.2697  0.0126 -0.0115
11786W        W27970  12.753  16.152   0.791  0.0147 -0.0325  0.1118
11787W        W27971   5.364   4.666  15.002  0.0022 -0.1010  0.1994
11788W        W27972  10.087  16.086   0.000  0.0486  0.0706  0.4635
11789W        W27973   1.959  13.538   3.194 -0.0449  0.0561 -0.2507
11790W        W27974  17.157   3.553  15.793  0.0787 -0.0160  0.1847
11791W        W27975   8.488  17.834   3.204  0.1729 -0.0806  0.0308
11792W        W27976   0.179   6.215   5.339 -0.0463 -0.1872  0.1809
11793W        W27977  12.073  14.561   0.634 -0.0303  0.1128 -0.1989
11794W        W27978   9.601   6.448   0.880  0.2188  0.0773  0.1775
11795W        W27979   4.647  15.256  13.795 -0.1430 -0.0388  0.3771
11796W        W27980   0.734   2.199  12.588 -0.0281 -0.2408 -0.1389
11797W        W27981   4.713  14.151  14.599 -0.2612 -0.0436 -0.0967
11798W        W27982   8.009  12.290   4.923  0.0420  0.1828 -0.2725
11799W        W27983  11.479   5.248   2.265 -0.1889  0.2366 -0.2050
11800W        W27984   9.169   8.033   1.933 -0.4733 -0.1433 -0.0340
11801W        W27985   2.043   0.476   1.157 -0.0364  0.1951  0.1046
11802W        W27986  15.222  10.875   0.405 -0.2072 -0.2218  0.2052
11803W        W27987  15.081   0.477   0.617 -0.2988 -0.0016  0.0837
11804W        W27988  13.204   1.400  12.824 -0.4866 -0.0389  0.0329
11805W        W27989   7.842   4.374  15.804 -0.2728 -0.0763 -0.0368
11806W        W27990  10.739   8.911  13.448 -0.1107  0.0326  0.0280
11807W        W27991  15.556  10.211  11.327  0.1990 -0.0177  0.0635
11808W        W27992  11.460   9.495  13.069 -0.0041 -0.3090 -0.0396
11809W        W27993   9.994   0.501  12.311 -0.0209 -0.1130 -0.0395
11810W        W27994   2.670   5.571  14.030  0.0090 -0.0097 -0.0598
11811W        W27995   7.756   1.133  12.145 -0.0591  0.1096 -0.0312
11812W        W27996   6.876  12.132   4.160  0.1527 -0.2162 -0.1108
11813W        W27997   5.537  14.892  13.256 -0.0662  0.0726 -0.0500
11814W        W27998   8.981   0.807  13.557  0.2676 -0.1582  0.1225
11815W        W27999   3.748   8.512   5.046  0.0616  0.1600  0.0133
11816W        W28000   0.078  14.424   5.150  0.3412  0.1845  0.1635
11817W        W28001  11.372   1.321   3.214 -0.1542 -0.1468  0.0749
11818W        W28002   3.535   0.198   3.244 -0.2213 -0.1887 -0.0400
11819W        W28003   2.147  13.212   3.563 -0.0086 -0.2298 -0.0334
11820W        W28004   8.937   4.202   1.618  0.0975 -0.2494  0.2778
11821W        W28005   6.222  13.293  12.117 -0.3959 -0.1255 -0.0075
11822W        W28006  11.166   5.699  14.434 -0.2906  0.0422 -0.0391
11823W        W28007  15.945  16.112  12.781 -0.0649 -0.0426 -0.0747
11824W        W28008   0.344   7.794  16.683  0.2155 -0.0072 -0.3273
11825W        W28009   7.534  11.374   3.483 -0.1511  0.1377 -0.1041
11826W        W28010   3.094   7.767   2.906 -0.0204 -0.1806  0.1492
11827W        W28011   2.124   7.493   5.915 -0.0861  0.1237 -0.0876
11828W        W28012   5.899  12.967   5.253 -0.3967  0.0465  0.0355
11829W        W28013   6.228   7.126  14.218  0.1537 -0.1592  0.3101
11830W        W28014  16.031  14.768   0.879  0.1811  0.1209  0.2589
11831W        W28015   0.632   2.957   0.148 -0.0263  0.2555  0.0147
11832W        W28016  11.269   5.362  11.866 -0.2446 -0.0092  0.3198
11833W        W28017   7.758  14.973  14.631  0.1865 -0.0691  0.2448
11834W        W28018   3.396   7.389   1.626  0.1349  0.0604 -0.0522
11835W        W28019  10.327   4.979  11.793 -0.1035  0.1125 -0.2828
11836W        W28020  10.276   2.063   5.011  0.3023 -0.0588 -0.0790
11837W        W28021   8.794   2.511   3.319  0.0092  0.0234 -0.1812
11838W        W28022  16.106   0.281   3.337  0.0547 -0.1569  0.2753
11839W        W28023  12.043   7.639   2.021 -0.2227  0.1020  0.2645
11840W        W28024   1.334   1.024   4.247  0.3305 -0.1902  0.4055
11841W        W28025  15.390   2.201   4.885 -0.2234  0.0193 -0.0753
11842W        W28026   7.220   3.619   0.101 -0.1865  0.0576 -0.2330
11843W        W28027   2.098  14.730   0.733  0.0311 -0.0440 -0.2321
11844W        W28028   2.105   0.826  13.417 -0.0142 -0.1618 -0.0890
11845W        W28029   3.753  17.008   1.458  0.0182 -0.0222 -0.1154
11846W        W28030   5.820  17.609  15.430  0.1843  0.1422  0.0529
11847W        W28031   7.149   3.323  13.709 -0.1812  0.2151 -0.1093
11848W        W28032  11.738   7.639  15.569 -0.3078  0.0263 -0.3578
11849W        W28033  12.110   8.420   3.273 -0.2934  0.0414  0.1877
11850W        W28034  15.163   5.713   2.046 -0.3996  0.1083 -0.1418
11851W        W28035   7.836  12.823   4.232 -0.0550  0.0300 -0.1546
11852W        W28036  10.101   8.310   5.617  0.1644 -0.3259  0.2248
11853W        W28037  17.956  14.548   3.791  0.1756 -0.2970  0.1537
11854W        W28038   1.665   2.752  13.396 -0.3338 -0.1190 -0.3599
11855W        W28039   3.946   2.346   5.564  0.1901 -0.0950 -0.2692
11856W        W28040   4.395   5.127   0.517  0.0397  0.1010  0.0728
11857W        W28041   6.879  16.044  14.282  0.1554 -0.2194 -0.0636
11858W        W28042  17.726  17.752  15.844 -0.0696  0.2333  0.1338
11859W        W28043   6.636   9.653   0.354 -0.1693 -0.0868 -0.0681
11860W        W28044   6.659  16.368  12.753  0.0588 -0.0169  0.0293
11861W        W28045   0.558   8.572  13.472 -0.2825 -0.1138  0.0488
11862W        W28046   5.433   0.179  16.034  0.1547  0.0661  0.1720
11863W        W28047   8.705   1.416   4.932  0.0529  0.1163  0.1249
11864W        W28048   0.248   1.013  14.614 -0.0082 -0.0448 -0.4087
11865W        W28049   0.910  16.829   2.599  0.4032 -0.1186 -0.1129
11866W        W28050  12.598  15.271   1.161  0.1946  0.2976  0.0960
11867W        W28051   3.768   7.393  15.118 -0.1070 -0.3953 -0.1028
11868W        W28052   6.241   9.249  15.525 -0.2783 -0.0126  0.2152
11869W        W28053  12.374  11.422   0.006 -0.2020  0.1513 -0.1261
11870W        W28054   6.912   9.433  12.248 -0.0183 -0.1733 -0.0127
11871W        W28055   3.783   9.449   1.375  0.1012  0.2351  0.0533
11872W        W28056  13.295   3.017   2.095  0.2228  0.1673  0.0705
11873W        W28057  11.535   6.860  11.534 -0.0176  0.0706 -0.0226
11874W        W28058  16.710   2.130  12.209  0.1691 -0.1402 -0.1522
11875W        W28059   3.375   9.659   1.198 -0.2161  0.1100  0.1961
11876W        W28060   8.066  14.263   2.908 -0.1760 -0.1022  0.1304
11877W        W28061  15.217   3.053   2.729 -0.1124  0.3305 -0.0895
11878W        W28062  10.621  14.883   2.597  0.0913  0.0787 -0.2868
11879W        W28063   9.720   0.524   4.166 -0.0366 -0.1789 -0.0951
11880W        W28064   0.853   2.640  16.519  0.0425 -0.1385  0.3692
11881W        W28065  13.872   8.038  13.661  0.2256 -0.2089 -0.0759
11882W        W28066  11.534   7.375  13.875 -0.1874  0.0886 -0.0737
11883W        W28067  16.341   8.842   3.169  0.1016 -0.3149  0.3196
11884W        W28068  17.588  13.307  15.236  0.1457  0.0773  0.1599
11885W        W28069   6.901  13.893  16.346 -0.0283  0.4253  0.0249
11886W        W28070   5.353   8.633   0.616  0.3483 -0.1793  0.0289
11887W        W28071   1.087  16.110   1.281  0.0504 -0.0098  0.0077
11888W        W28072  10.338  12.151  12.144 -0.3560 -0.2747  0.4288
11889W        W28073  17.031   7.937   0.561 -0.1680  0.1644  0.3873
11890W        W28074   7.250   1.337   3.183 -0.3355  0.0457  0.0278
11891W        W28075  10.774  16.900  13.714  0.1093 -0.1437 -0.1123
11892W        W28076   4.852  12.784  15.147  0.0303 -0.2723 -0.1424
11893W        W28077   3.996   5.046  16.077  0.0158 -0.3501  0.4975
11894W        W28078   7.148   2.655  12.159  0.0646 -0.0457 -0.3107
11895W        W28079   8.690   3.283  15.869  0.1061 -0.0070  0.1575
11896W        W28080  11.911   4.875   5.516 -0.0380 -0.0275 -0.1072
11897W        W28081  12.064  14.464  11.758 -0.0314 -0.1210 -0.5804
11898W        W28082  11.913  10.902  15.623 -0.0542 -0.2207 -0.2141
11899W        W28083  16.856   6.531   5.567  0.0801  0.0036  0.1808
11900W        W28084   1.674   0.834   1.944 -0.0069  0.1508 -0.0374
11901W        W28085  11.784  16.354   2.406  0.0223  0.0193 -0.0227
11902W        W28086   0.586  16.760  14.956 -0.2211  0.1313 -0.1075
11903W        W28087   2.775   7.478   5.182  0.0135  0.0190  0.0677
11904W        W28088   9.615  10.851  16.081 -0.2905 -0.3215  0.4274
11905W        W28089  13.317   0.056   5.027  0.2111 -0.0709 -0.0246
11906W        W28090  14.230   8.329   4.058  0.2383  0.2739 -0.1268
11907W        W28091  13.458   2.884  13.817 -0.3047 -0.0485 -0.1943
11908W        W28092  14.152  12.899   1.526  0.1414 -0.0303  0.0731
11909W        W28093  13.959  10.562  14.763  0.1356  0.3648 -0.0335
11910W        W28094   2.372   9.228  14.816 -0.2220  0.2839  0.0587
11911W        W28095  17.912  12.525  12.658 -0.2036 -0.3018  0.1253
11912W        W28096  12.824  15.450  15.479  0.0520 -0.1362 -0.1737
11913W        W28097   4.772  10.287   1.363  0.1365  0.2205  0.0046
11914W        W28098   3.078   2.661  11.317  0.0291 -0.0529 -0.4452
11915W        W28099  14.546   8.088  10.472 -0.0033 -0.3783  0.2556
11916W        W28100   5.215   1.085   0.522 -0.1334 -0.1532  0.1424
11917W        W28101  14.446   0.459   3.830  0.1787  0.0230  0.2324
11918W        W28102  11.377   0.895  13.357 -0.4281  0.2026  0.3615
11919W        W28103   0.431   4.928   0.058 -0.1191  0.1970 -0.1802
11920W        W28104   5.133   4.192  12.775 -0.2192 -0.2491  0.1088
11921W        W28105   5.670  10.685   1.261  0.0667 -0.0203 -0.0421
11922W        W28106  13.160  17.614   0.645  0.0606 -0.1847  0.2656
11923W        W28107  17.503   2.605  16.221  0.1388  0.3151 -0.2687
11924W        W28108  11.954   6.649   2.240 -0.0649  0.4263 -0.0260
11925W        W28109  10.666   7.708   2.081  0.1189  0.0945 -0.3034
11926W        W28110   6.246   2.922  14.645 -0.0661 -0.3684 -0.4410
11927W        W28111   5.620  16.841  14.528  0.0264  0.0450  0.2618
11928W        W28112  17.215   5.357  12.201 -0.1675  0.0466 -0.3263
11929W        W28113  13.679   5.543  11.808  0.1536 -0.0409  0.0664
11930W        W28114  13.603   2.848   6.484  0.1428  0.0601  0.3051
11931W        W28115   8.949   4.554  16.533 -0.2429  0.0107 -0.0935
11932W        W28116  17.946   3.950   4.811  0.0462 -0.1481  0.1056
11933W        W28117   4.165  12.730  12.709 -0.0609  0.1523 -0.0384
11934W        W28118  11.096   0.173  13.454 -0.1310 -0.2162  0.1985
11935W        W28119   6.159  10.511  12.118  0.1946 -0.0581  0.0406
11936W        W28120   5.899  17.668  13.781  0.2091  0.1877  0.0756
11937W        W28121  14.283  12.742   3.023 -0.2030 -0.0040 -0.1197
11938W        W28122  10.704  15.767   2.128 -0.2377 -0.1374  0.2515
11939W        W28123   2.712   5.863   2.330  0.2746  0.1461  0.1496
11940W        W28124   6.034   6.819  15.210 -0.1277  0.2190  0.1367
11941W        W28125   1.909   2.388  11.695  0.0945 -0.0877  0.1746
11942W        W28126  12.217   2.485  13.966  0.0207 -0.1962  0.1597
11943W        W28127   1.672   9.221   4.468  0.1987 -0.0133 -0.0851
11944W        W28128   0.460   6.590   5.607  0.2833 -0.5041 -0.0334
11945W        W28129   6.562   1.434   5.072 -0.0463  0.3107  0.1544
11946W        W28130  17.368   8.188   0.294  0.0682 -0.0127 -0.1075
11947W        W28131  13.111   6.386  13.809 -0.0370 -0.3467 -0.1027
11948W        W28132   0.308  16.271  15.117  0.1284  0.0642  0.2097
11949W        W28133   3.913   8.303  16.679  0.1559  0.1812 -0.0446
11950W        W28134   6.429  15.341  16.112  0.0183 -0.0677 -0.0167
11951W        W28135  12.961   8.947   1.012 -0.0603 -0.0729 -0.4657
11952W        W28136  15.866   2.433  16.557  0.0649  0.0144 -0.1014
11953W        W28137   1.876   3.643  14.377 -0.0274  0.0337 -0.1570
11954W        W28138   5.279  14.071   4.460  0.0847 -0.2871  0.0003
11955W        W28139  12.192   1.429  12.524 -0.2434 -0.0049  0.1655
11956W        W28140  14.245  13.828  10.675 -0.0332  0.1082  0.2796
11957W        W28141   8.908   2.321  15.718  0.0122 -0.1887  0.0795
11958W        W28142  10.139  14.999  13.741 -0.6624  0.0192 -0.0616
11959W        W28143   1.656  12.234  14.313 -0.2072 -0.0202 -0.0153
11960W        W28144  16.846   5.063   1.908 -0.2809  0.0852 -0.0066
11961W        W28145  10.092  14.713   0.612  0.1600 -0.1138  0.4691
11962W        W28146   8.186   8.391  11.885  0.1199  0.1804  0.3466
11963W        W28147   3.260  14.129  14.653  0.1340  0.0821 -0.4485
11964W        W28148   1.859   5.491  12.187  0.4057  0.0279  0.0850
11965W        W28149  14.770  14.782  14.189 -0.0149  0.1446 -0.0056
11966W        W28150  11.108   9.718  11.505 -0.0209 -0.0655 -0.0844
11967W        W28151  16.795   5.036  11.977  0.1490 -0.1501 -0.0482
11968W        W28152  16.536  17.570   4.343  0.2121  0.0148  0.1401
11969W        W28153   5.024  17.755   4.547  0.1625 -0.0389 -0.1017
11970W        W28154   6.103   4.592   1.391  0.0700 -0.0734 -0.1639
11971W        W28155   8.892  15.435  14.652  0.2022  0.1142 -0.0812
11972W        W28156   3.712  17.856  15.165  0.1493  0.1261  0.0514
11973W        W28157  15.801  13.910   4.930  0.1792  0.0917  0.1772
11974W        W28158  13.808  17.899   2.376 -0.0564  0.0360  0.1245
11975W        W28159  10.421  16.903   1.498 -0.0347 -0.0727 -0.0465
11976W        W28160  16.143   3.472  15.513  0.0112 -0.0351 -0.0082
11977W        W28161  10.363   6.094   2.304 -0.2042  0.3511 -0.0462
11978W        W28162   2.916   6.191  12.666  0.0740 -0.2119  0.1531
11979W        W28163   8.836  16.701  11.558 -0.1369 -0.0780  0.0437
11980W        W28164   5.753   0.976  11.978 -0.2282  0.1978  0.1224
11981W        W28165   0.286   1.871   1.663 -0.1939  0.0433 -0.0983
11982W        W28166  11.741   0.923   4.174  0.1358  0.3786 -0.1425
11983W        W28167   6.884  11.702   3.854 -0.0262  0.0885  0.0498
11984W        W28168   7.818   9.027  15.061 -0.3309  0.1801 -0.1105
11985W        W28169   1.064   4.507  11.353 -0.0938  0.1324 -0.1683
11986W        W28170  15.499  11.253  13.297  0.0458 -0.2616 -0.2873
11987W        W28171   5.281   6.429  12.567  0.2003 -0.2240  0.1179
11988W        W28172   2.421   1.347  14.298  0.4123  0.3419  0.1130
11989W        W28173  14.493   5.646  12.905  0.1713 -0.2824  0.1181
11990W        W28174   4.851   2.128  16.554  0.1130  0.0366  0.4169
11991W        W28175  11.452   4.234  16.574  0.1511 -0.1360  0.0124
11992W        W28176  10.060   2.827  15.518 -0.1855 -0.0183  0.1867
11993W        W28177   1.696   1.282   2.820 -0.0683  0.1291  0.1105
11994W        W28178   8.614   9.289  14.723  0.0099 -0.0936 -0.1158
11995W        W28179  18.003   6.922   3.668 -0.1093 -0.0015  0.4302
11996W        W28180   7.198  13.760  15.969  0.0576 -0.0558  0.2345
11997W        W28181   1.895   7.904   0.876  0.1035  0.1291  0.1335
11998W        W28182   2.005  15.056   4.005 -0.1904  0.1307 -0.0158
11999W        W28183   7.263  12.956  14.252  0.0777  0.1004  0.5606
12000W        W28184  13.435   6.406   0.559  0.1315 -0.0347  0.2387
12001W        W28185  13.722   8.807  16.227  0.1152  0.2317 -0.3283
12002W        W28186   3.464   9.910  14.677 -0.0947  0.0347 -0.3002
12003W        W28187  13.012   0.491   0.626 -0.0898 -0.0884 -0.1937
12004W        W28188  13.285  17.001  12.028  0.0738 -0.0556  0.0645
12005W        W28189   6.327   3.399  15.009  0.1736 -0.3035 -0.1404
12006W        W28190   9.334   5.528  15.624 -0.3969  0.1992 -0.1872
12007W        W28191   8.013   3.838  14.189 -0.0805 -0.3257 -0.0709
12008W        W28192  16.636  17.331  15.190 -0.3086  0.1514  0.1611
12009W        W28193  17.032   2.826   2.285 -0.0507 -0.1595 -0.0825
12010W        W28194   2.267   7.325   2.688  0.0392 -0.0391  0.1770
12011W        W28195   3.554  16.717   2.507 -0.0777 -0.0361 -0.2589
12012W        W28196   7.058  15.164   5.566 -0.0458 -0.1297  0.0432
12013W        W28197   6.099   5.533   4.308  0.0525  0.0580  0.0056
12014W        W28198  12.202   5.261   3.389  0.1794 -0.0566  0.0168
12015W        W28199  16.404   7.073  11.809  0.2534 -0.1190 -0.2389
12016W        W28200  12.275  11.934   4.862 -0.2869  0.5299 -0.1111
12017W        W28201   2.345  12.491  11.702 -0.1665  0.0081 -0.5665
12018W        W28202   1.619  17.167   6.442  0.1900  0.0270 -0.1298
12019W        W28203  14.013  11.042   3.807  0.0489  0.0452 -0.1916
12020W        W28204   1.558   3.200   5.225 -0.2140 -0.0698  0.0842
12021W        W28205  11.614   5.262  13.559  0.0960  0.0106 -0.1448
12022W        W28206   1.834  15.118  16.657  0.1499  0.2539 -0.0141
12023W        W28207  14.342   7.435   0.771 -0.0321 -0.2308  0.0739
12024W        W28208   3.589   8.149   3.648 -0.2539 -0.4268 -0.0720
12025W        W28209   5.070  11.666  11.710  0.1228 -0.2101 -0.0096
12026W        W28210  17.415   3.256  11.784 -0.0563 -0.2018 -0.0655
12027W        W28211  17.078  11.553  13.326 -0.1079 -0.1096 -0.1465
12028W        W28212   6.159   6.053   4.818  0.2061  0.1147  0.0647
12029W        W28213  12.818   6.028  13.538 -0.2409 -0.0560  0.1053
12030W        W28214  17.621   4.774  11.592  0.3450 -0.0701 -0.0708
12031W        W28215   8.158   4.874   4.673  0.0788  0.1588 -0.1816
12032W        W28216  12.679  14.610  12.568 -0.2559 -0.3771 -0.1798
12033W        W28217   4.538  15.945   1.096  0.0368 -0.1490 -0.2060
12034W        W28218   9.422   6.623   3.740  0.1945  0.1286 -0.0729
12035W        W28219   1.028  13.742  11.955 -0.0421 -0.0796 -0.2747
12036W        W28220   6.211  15.329   2.805  0.1855  0.0648  0.0883
12037W        W28221  15.852   6.025   0.916  0.3759  0.4522 -0.0913
12038W        W28222   4.136   6.683  16.522 -0.0736  0.0266 -0.0880
12039W        W28223   5.686  12.465  14.110  0.2316 -0.1286 -0.1485
12040W        W28224   3.049  17.554   1.160  0.1553  0.1395 -0.0039
12041W        W28225  12.552  12.668  16.242  0.1300 -0.1524  0.2933
12042W        W28226  12.812  17.985   4.993 -0.2331  0.1585 -0.2792
12043W        W28227   6.087   9.735   2.132 -0.0243  0.4958 -0.0298
12044W        W28228   1.208  10.296   0.017  0.2829  0.1362 -0.6132
12045W        W28229  11.672   0.006  16.627 -0.0276 -0.1695 -0.2046
12046W        W28230   1.053  15.117  15.485  0.0298 -0.0573  0.0681
12047W        W28231  11.571   6.729   2.906  0.2697  0.1417 -0.0200
12048W        W28232  16.186  11.832  15.588  0.0114  0.2154 -0.1269
12049W        W28233  15.923  12.923  13.063 -0.0161 -0.0997 -0.1705
12050W        W28234   1.361  12.814  16.506  0.2831 -0.0673 -0.2108
12051W        W28235  15.204  11.837   2.878 -0.0642  0.0412 -0.0921
12052W        W28236  16.447  11.920   5.676  0.0324  0.1577 -0.0138
12053W        W28237   2.079   6.666  16.455  0.1150 -0.1715  0.1413
12054W        W28238   4.404  10.816  13.857  0.2412  0.2114 -0.0280
12055W        W28239  15.745   1.798  11.799  0.0328 -0.0965  0.4536
12056W        W28240   2.668   1.265   1.280  0.2081  0.0365  0.0727
12057W        W28241  11.180  12.950  11.465  0.0102 -0.0588  0.0688
12058W        W28242   9.329  14.546   1.885 -0.1849 -0.1478 -0.0886
12059W        W28243  16.469   7.116   1.109 -0.3464 -0.3177  0.3337
12060W        W28244  11.469  15.373   5.705 -0.0364  0.0350  0.0869
12061W        W28245  15.521  14.766   2.147 -0.0682 -0.4232  0.2250
12062W        W28246  13.927   8.093  12.802 -0.3491 -0.0423  0.0100
12063W        W28247   3.885   5.033   2.683  0.0141  0.4227  0.1264
12064W        W28248   9.762  16.493  16.486  0.1743  0.4903  0.0760
12065W        W28249   1.596   0.935   5.715 -0.2216 -0.0839  0.2630
12066W        W28250   7.909   1.133   5.380  0.2068 -0.1679  0.0478
12067W        W28251   1.247   0.693   5.434  0.1439  0.0997 -0.0280
12068W        W28252   6.498   4.683  12.814  0.0413 -0.0056 -0.1753
12069W        W28253  12.840   9.353   0.530 -0.2502  0.3830 -0.0912
12070W        W28254  17.418   0.016  13.809 -0.0653 -0.2056 -0.1202
12071W        W28255  14.099  14.824  16.252 -0.0647  0.1646  0.3056
12072W        W28256   5.690  17.660  12.052 -0.0755 -0.0140  0.2649
12073W        W28257   7.215  12.795   2.080 -0.3817  0.1956 -0.1166
12074W        W28258   7.863  14.582   5.831 -0.1806 -0.1182 -0.0627
12075W        W28259  15.573   3.185   3.615  0.2490  0.2178  0.1100
12076W        W28260  11.324  16.043  13.779  0.1314  0.0244  0.0556
12077W        W28261  17.468  17.343   2.678 -0.2293  0.0026  0.2000
12078W        W28262   2.682   9.903   2.226  0.2174  0.2095  0.2324
12079W        W28263   2.474   2.115   3.316  0.1230  0.2619  0.0360
12080W        W28264   3.579   6.613   5.905 -0.0405 -0.1442  0.1129
12081W        W28265  13.008   0.870  15.908 -0.0618 -0.0980  0.1523
12082W        W28266   2.228   9.519   0.354 -0.0669 -0.2566  0.2448
12083W        W28267   6.999   2.192  12.068  0.4429 -0.2306 -0.1012
12084W        W28268  17.952   0.761  14.295  0.4354  0.4540  0.0348
12085W        W28269  16.858   9.284   2.039  0.0944  0.0062 -0.4330
12086W        W28270   5.316  10.007  12.232  0.1643  0.3316 -0.1363
12087W        W28271  11.762   1.915  14.853 -0.3437  0.2055  0.1318
12088W        W28272   2.685   7.144   0.921 -0.3121  0.0594 -0.2756
12089W        W28273  16.673   0.062  15.225 -0.0114  0.4023 -0.1553
12090W        W28274   5.866   1.537   4.673  0.2024 -0.4658 -0.0907
12091W        W28275  17.791  12.528   1.160 -0.4510  0.1252 -0.0928
12092W        W28276  10.857   0.360  11.953 -0.1840 -0.1707  0.5307
12093W        W28277   9.478   9.648  12.544  0.2262 -0.0379  0.2580
12094W        W28278   0.087  13.214  15.911 -0.4920 -0.0259  0.1925
12095W        W28279  16.238   5.113   4.347 -0.1081  0.2137  0.1899
12096W        W28280  14.048   7.688  15.152 -0.1029 -0.2457 -0.3965
12097W        W28281   2.541   3.430  13.048  0.0649 -0.2791 -0.0907
12098W        W28282   2.341   1.005  10.605  0.0564 -0.2134 -0.0012
12099W        W28283   3.713   1.434   5.691 -0.2484  0.0750 -0.1810
12100W        W28284  12.896  12.780  11.679 -0.0099 -0.2650 -0.0606
12101W        W28285  13.544   3.981  15.546 -0.0941  0.2334  0.0108
12102W        W28286  14.787   8.334  13.867 -0.1842  0.3562 -0.0759
12103W        W28287   5.525   1.936  12.024  0.2935 -0.0851  0.0817
12104W        W28288  15.203  12.347  11.409 -0.0215 -0.0671 -0.0187
12105W        W28289   4.712   9.803   0.097  0.0388  0.0303 -0.1845
12106W        W28290  16.187   3.704  13.730  0.2492  0.0777  0.0825
12107W        W28291   8.032   4.469   0.018  0.1168 -0.1122 -0.3022
12108W        W28292   2.552   4.390  12.922 -0.1920  0.2948 -0.1073
12109W        W28293   2.608   1.661   2.979 -0.1350  0.0218 -0.1784
12110W        W28294   1.571   6.130  13.202  0.1758 -0.1424 -0.2452
12111W        W28295   0.438  14.623   3.640 -0.0162 -0.0525  0.0534
12112W        W28296   7.317  15.876   1.370  0.1857  0.0519  0.1039
12113W        W28297  15.392   0.665   3.073  0.0268 -0.0973  0.1061
12114W        W28298  10.445  17.980   4.836 -0.2376  0.3038  0.0508
12115W        W28299  14.728   1.450  14.522 -0.2293 -0.0121 -0.0428
12116W        W28300   3.465   2.566   2.335  0.1797  0.0736 -0.1639
12117W        W28301   6.963   1.291  12.043  0.1057 -0.1358 -0.0025
12118W        W28302   1.319  11.703  16.576 -0.2968  0.0805 -0.0339
12119W        W28303   7.104   9.744  15.200 -0.2539 -0.0786 -0.1976
12120W        W28304  13.275   2.579   2.285  0.0584  0.0563  0.0197
12121W        W28305   6.957  15.944  12.760  0.1956 -0.0816  0.0874
12122W        W28306   5.972  16.815  14.917 -0.4992 -0.2275 -0.0729
12123W        W28307  12.868  13.423  14.928 -0.2820 -0.0681 -0.0620
12124W        W28308   8.803  11.190   5.081 -0.1122 -0.1418 -0.2189
12125W        W28309  11.149  13.210  15.220  0.1616 -0.0063  0.1770
12126W        W28310   7.872   1.750   2.287 -0.2725  0.1258  0.2288
12127W        W28311   1.556   1.877  12.783  0.5255  0.2008 -0.3419
12128W        W28312  15.835   2.373  11.136  0.2467 -0.0069 -0.2153
12129W        W28313   5.638  10.245   4.712 -0.1729 -0.0290 -0.4387
12130W        W28314  14.449  16.413   5.701  0.0863  0.0967 -0.1450
12131W        W28315   8.099  15.317  15.093 -0.0091 -0.1934  0.0302
12132W        W28316   7.478  10.494  16.608 -0.2013 -0.0800 -0.0398
12133W        W28317   7.448  12.913  13.451 -0.0407 -0.1253  0.1206
12134W        W28318  10.808   8.771   1.911 -0.0019  0.0631 -0.0379
12135W        W28319  10.104   7.979   3.718 -0.0332 -0.1609 -0.0692
12136W        W28320  13.671  13.668  11.610  0.0078  0.1245  0.3811
12137W        W28321  17.752  10.856   3.229  0.1483 -0.1268 -0.0362
12138W        W28322  16.505  15.088   0.726  0.1359  0.2103 -0.3597
12139W        W28323  16.612  10.351  14.393 -0.2368  0.1105  0.3364
12140W        W28324   2.220  14.254   1.474  0.1173  0.0914 -0.2353
12141W        W28325   7.879  16.586  14.538 -0.2218 -0.1518  0.0385
12142W        W28326   0.428  12.239   2.322  0.0463  0.1375  0.0370
12143W        W28327   4.823   2.495   5.010  0.0089 -0.3215  0.0133
12144W        W28328  15.945   3.474  16.424  0.0989  0.0397 -0.0801
12145W        W28329  11.698  17.686  14.144 -0.0183 -0.1739 -0.2062
12146W        W28330   6.007  14.113  15.335  0.0107  0.2708  0.1516
12147W        W28331   2.444  16.287  15.474  0.0977  0.0269  0.0832
12148W        W28332  17.922  10.390  13.486 -0.1950  0.2255  0.0088
12149W        W28333  15.192   6.420   4.400 -0.0935  0.0719  0.1469
12150W        W28334  17.244  11.653   1.134 -0.0157 -0.0040  0.0626
12151W        W28335  14.976   7.795  13.750 -0.1361 -0.3279 -0.0137
12152W        W28336   7.930   6.873  13.233 -0.2513 -0.0494 -0.2180
12153W        W28337   4.106   4.355  16.466  0.1764  0.0573  0.0334
12154W        W28338  10.343   0.844   0.353  0.2128 -0.3173 -0.1931
12155W        W28339  12.297  12.091  12.883  0.0151  0.2738  0.0793
12156W        W28340  13.145  14.968  11.191  0.2110  0.1258 -0.1492
12157W        W28341   6.911  10.792   2.451  0.0048  0.2097 -0.2409
12158W        W28342  15.341  16.912   6.699  0.1671  0.3161  0.1188
12159W        W28343   8.551   1.665  12.664  0.0974  0.1645 -0.0302
12160W        W28344   7.525   1.895  16.419  0.0484 -0.0796  0.0353
12161W        W28345   6.563   5.114  13.811 -0.2534 -0.0247  0.0509
12162W        W28346  12.125  11.661  15.518 -0.0724  0.0980 -0.1263
12163W        W28347   8.774   5.556  13.137  0.1469  0.0696  0.0435
12164W        W28348  10.792   7.488   0.129 -0.1045 -0.1632 -0.0490
12165W        W28349   0.822   9.038  12.693 -0.1657  0.2561  0.0853
12166W        W28350  11.105  16.614  14.042  0.0204 -0.1214 -0.1050
12167W        W28351   3.969   3.731   0.923  0.1840  0.0840 -0.2785
12168W        W28352  14.288   4.936   2.710 -0.0377 -0.0983 -0.1597
12169W        W28353   3.104  16.864  13.432  0.1958 -0.1552 -0.4885
12170W        W28354  14.504   7.652  15.951 -0.3280  0.3037  0.3379
12171W        W28355  13.958   6.799  11.285 -0.0899 -0.1267 -0.0068
12172W        W28356   9.640  10.827  13.270 -0.1379  0.3851  0.0690
12173W        W28357   7.141   3.782  11.950 -0.1079 -0.0750  0.1617
12174W        W28358  11.151  11.994  13.630  0.1229 -0.1729 -0.1091
12175W        W28359   6.037  12.151   3.870 -0.0734 -0.0045  0.0133
12176W        W28360   5.655   2.980   0.360 -0.1652 -0.4118  0.3172
12177W        W28361  16.697   8.934  11.020  0.2255  0.1647 -0.0384
12178W        W28362  16.118   6.517  14.536  0.2812 -0.2862 -0.2559
12179W        W28363  10.552   8.442  13.176  0.0420  0.0050  0.2124
12180W        W28364   6.508   9.121  14.017 -0.1295  0.0474 -0.0477
12181W        W28365   6.569  17.537   2.774  0.0477  0.1642 -0.1820
12182W        W28366   3.828   2.338   2.136  0.2183 -0.0766  0.0098
12183W        W28367   3.330   9.218   4.181  0.1304 -0.1672 -0.3330
12184W        W28368   2.448   1.790  16.555  0.1029 -0.0983  0.1769
12185W        W28369   1.355  13.237   4.306 -0.1378 -0.0106  0.2750
12186W        W28370  11.427  10.030   3.137  0.1573  0.2658 -0.2736
12187W        W28371   0.903  11.438   2.103  0.0309 -0.0707 -0.0555
12188W        W28372   7.823  16.783  12.693  0.1218  0.0230  0.3512
12189W        W28373   8.168  13.884  11.344 -0.0441  0.0208 -0.1174
12190W        W28374   7.820   2.196   0.655  0.0791 -0.0551  0.3416
12191W        W28375   0.962   4.238   0.179 -0.0996  0.1189  0.1524
12192W        W28376  13.391  16.946   4.091  0.0701 -0.1794  0.3656
12193W        W28377  17.327  11.998  14.095  0.1588 -0.0979 -0.2591
12194W        W28378  16.881  11.527   2.459 -0.3928 -0.1506 -0.2729
12195W        W28379  11.150  14.952   4.867 -0.2239  0.3073 -0.0681
12196W        W28380   6.933   1.577   3.597 -0.0984 -0.0595 -0.0744
12197W        W28381  12.027   3.081  13.299 -0.0647  0.3177  0.1750
12198W        W28382  16.519   4.834  11.593  0.0088  0.0869  0.2893
12199W        W28383   2.566   5.023   5.076  0.0237  0.1883  0.1991
12200W        W28384   0.392   6.467   2.548 -0.2071  0.0873  0.3697
12201W        W28385  11.024   4.847  16.039 -0.2100  0.0403  0.0505
12202W        W28386   9.566  10.108  16.482  0.0973  0.0791 -0.0164
12203W        W28387   5.515   3.122   4.110 -0.0601 -0.1285 -0.0451
12204W        W28388  14.813   2.048  16.598 -0.1104 -0.5482 -0.1226
12205W        W28389  10.638   6.876  11.794 -0.0268  0.4546 -0.0139
12206W        W28390   2.864   2.245  13.930 -0.0287 -0.1497  0.3171
12207W        W28391  10.906  16.349   0.509  0.0638  0.0462 -0.2940
12208W        W28392   6.386  14.091   1.009 -0.2188 -0.1988  0.0769
12209W        W28393   0.954  13.964   3.342  0.3126  0.0798  0.1725
12210W        W28394   8.567  14.609   4.546 -0.1853 -0.4140  0.2428
12211W        W28395   0.171   2.118   0.176 -0.1595 -0.0264 -0.1730
12212W        W28396  10.130  10.959   4.816 -0.0061  0.2658 -0.2358
12213W        W28397   4.370   4.770  14.459  0.1327 -0.0340 -0.1203
12214W        W28398   3.787  15.700   0.988  0.0706  0.0670  0.1878
12215W        W28399   9.104  15.484   0.893 -0.1811  0.0213  0.2384
12216W        W28400   1.758   1.510  14.131 -0.0310 -0.4233  0.2694
12217W        W28401   3.729  11.232  13.451  0.2425  0.3592  0.4015
12218W        W28402  17.268   3.390   4.827 -0.0030 -0.1170  0.2818
12219W        W28403  10.179  12.547  14.710  0.0321  0.2708 -0.0652
12220W        W28404   8.394   2.297   4.747 -0.3057  0.2338 -0.2452
12221W        W28405   3.577  14.521  12.444  0.1687 -0.1571  0.0776
12222W        W28406  14.377  15.957  16.626  0.3319  0.0831  0.2550
12223W        W28407   6.649   6.939  15.014 -0.2987  0.1034 -0.1610
12224W        W28408   2.434   6.408   0.302 -0.0735 -0.1708 -0.0601
12225W        W28409   9.431   1.804   5.214  0.0800 -0.1437 -0.1050
12226W        W28410   5.681  15.246   5.692  0.0322 -0.2530 -0.3656
12227W        W28411  17.374  13.925   2.709 -0.0361  0.2073 -0.1689
12228W        W28412   1.673   5.777   2.567  0.0909 -0.0023  0.3178
12229W        W28413   9.088  12.516   3.078 -0.1278  0.0934 -0.1969
12230W        W28414   1.380   5.694  12.223 -0.0046  0.1428  0.0102
12231W        W28415   4.949  11.877  11.258  0.2650 -0.1275 -0.0094
12232W        W28416   8.033   7.337  12.036 -0.2802 -0.1193  0.2510
12233W        W28417  16.232   1.945   6.019  0.0183  0.2771 -0.0093
12234W        W28418   7.551  17.829  11.847 -0.4007  0.2556 -0.5285
12235W        W28419  14.991  10.342   3.139  0.1116  0.0271 -0.0974
12236W        W28420  11.680  15.913  13.363 -0.0514  0.1603 -0.0843
12237W        W28421  15.982   6.712  11.728 -0.3935  0.1626 -0.1169
12238W        W28422   1.313  14.763   1.623  0.2763  0.2975  0.1530
12239W        W28423  16.948  17.176  13.269  0.3983 -0.1619 -0.0146
12240W        W28424  13.796   5.908  15.759 -0.1542  0.3729  0.1417
12241W        W28425  17.134  16.574   3.472 -0.1784  0.1987  0.1798
12242W        W28426  15.922   0.501  12.179  0.1018  0.0661  0.2006
12243W        W28427  16.245  16.472  12.088 -0.0309  0.1307 -0.0469
12244W        W28428   2.918  13.148   0.757 -0.1857  0.0183  0.2790
12245W        W28429  16.465   1.773  16.128 -0.0405 -0.0980  0.1169
12246W        W28430   6.624  17.056   3.348  0.0060  0.1835 -0.0682
12247W        W28431  16.357  11.699   0.112  0.0645  0.0313  0.1913
12248W        W28432  13.044  14.330   3.761 -0.1066  0.0043  0.2619
12249W        W28433   7.327   3.339   1.834 -0.0756 -0.0174 -0.0240
12250W        W28434   5.524   7.904   0.402 -0.0236  0.1856  0.2307
12251W        W28435  12.539  17.895   1.092 -0.2113  0.0945 -0.0939
12252W        W28436  16.089   6.032   0.495 -0.1357  0.3801  0.0379
12253W        W28437  12.385  13.534   3.299 -0.0105  0.2757 -0.0719
12254W        W28438   6.360   1.690  15.024 -0.0140  0.0403 -0.1282
12255W        W28439   1.453   8.061   3.031 -0.1309 -0.0490 -0.0602
12256W        W28440  11.949   4.535   3.591  0.2659  0.0300 -0.0493
12257W        W28441  13.363   6.309  11.483 -0.1200 -0.1416 -0.0973
12258W        W28442   6.975   0.218   2.175 -0.1250  0.0926 -0.1875
12259W        W28443   7.513  17.017   1.812  0.1948  0.0565 -0.6120
12260W        W28444  17.162   9.898  11.988  0.2092 -0.1745 -0.3650
12261W        W28445   5.214  10.085  13.920  0.2902  0.2266 -0.3698
12262W        W28446  13.843  14.350   3.125  0.3496  0.0785 -0.2032
12263W        W28447  11.480   2.904   5.061 -0.0692 -0.0745 -0.1760
12264W        W28448   3.590  15.968  16.119 -0.0701  0.2140  0.1031
12265W        W28449  16.318   7.823   4.482 -0.2496 -0.0055 -0.1249
12266W        W28450   1.196   6.065  12.763  0.0797  0.1348  0.1118
12267W        W28451   0.449  13.435  13.727 -0.3152 -0.1270  0.2055
12268W        W28452  13.653  11.734  15.979  0.1519 -0.1486 -0.0242
12269W        W28453   2.370   1.504   5.848 -0.0945 -0.1788  0.0998
12270W        W28454   7.841  17.044  15.770 -0.2859  0.0135  0.2558
12271W        W28455  10.368   8.001  15.314  0.0357  0.1779  0.3567
12272W        W28456  15.691  10.959   4.061  0.1373  0.2625  0.0111
12273W        W28457   2.264  11.908  11.387  0.0729 -0.2366 -0.1948
12274W        W28458   4.881  14.803  14.015 -0.1423 -0.0443  0.1319
12275W        W28459  13.460  11.721  11.582  0.0373  0.1392  0.1482
12276W        W28460  11.642  15.761   3.272  0.0485  0.1063 -0.0833
12277W        W28461   7.306  13.033   4.743 -0.4600  0.1360 -0.1862
12278W        W28462  13.344  15.938   1.823 -0.1833 -0.2729 -0.1382
12279W        W28463  17.334   6.737  12.746 -0.0988 -0.1136 -0.1693
12280W        W28464   4.039   4.531   3.472  0.0694 -0.0743  0.1039
12281W        W28465  13.317  14.152   4.135 -0.1402 -0.0547  0.0395
12282W        W28466  16.253   3.325   1.985 -0.1762 -0.1685 -0.2381
12283W        W28467   4.645   0.629   4.936 -0.3843  0.0003 -0.2226
12284W        W28468  10.512   8.185   3.444  0.0512  0.0218  0.0123
12285W        W28469  14.151   6.934  14.928 -0.0681  0.1619 -0.3076
12286W        W28470  15.226  17.919  13.595  0.0861  0.0441 -0.1041
12287W        W28471   5.814   5.020   0.554 -0.1258 -0.0470  0.1544
12288W        W28472  17.201  15.404  14.426 -0.2160  0.3026 -0.1599
12289W        W28473   1.549   4.555   5.093 -0.1868  0.0884 -0.2884
12290W        W28474  17.389   3.085   3.138  0.2893 -0.0849 -0.2400
12291W        W28475  17.843   3.360  14.606 -0.0533  0.1560 -0.4128
12292W        W28476  15.815   4.101   4.852  0.1741  0.1403  0.0664
12293W        W28477  14.713   4.916  15.415 -0.0062 -0.1391  0.3082
12294W        W28478  11.899   7.284  14.171 -0.2841 -0.2523  0.0552
12295W        W28479  12.902   8.403  11.477 -0.3271 -0.1828  0.3252
12296W        W28480  10.361  11.755   4.913  0.0516 -0.3206  0.0212
12297W        W28481   1.777  14.505  14.290  0.0619  0.0738 -0.2400
12298W        W28482   9.215   3.654   0.226  0.3404  0.0468  0.0862
12299W        W28483   0.984  12.495   2.136 -0.0714 -0.1482 -0.0560
12300W        W28484   4.189  17.744   3.140  0.1767  0.1875  0.2588
12301W        W28485  13.021   8.984  11.581 -0.1765  0.3216  0.1125
12302W        W28486   8.555  16.067  13.642  0.0474 -0.0362 -0.0960
12303W        W28487   5.719   8.292   4.213  0.0023  0.0811 -0.0755
12304W        W28488   0.610   1.296  11.401  0.1479  0.0523 -0.0973
12305W        W28489  13.842   7.723  12.378  0.4051  0.1284  0.0540
12306W        W28490   0.746   4.105   5.856  0.1510 -0.0546 -0.0068
12307W        W28491  16.498   9.964   4.609 -0.1875 -0.0050  0.1009
12308W        W28492  16.734   9.644  13.706 -0.0048 -0.1051  0.0030
12309W        W28493  10.880  10.197   3.876 -0.0526  0.0012  0.1310
12310W        W28494  14.921   1.423  12.119  0.0248  0.0065 -0.2103
12311W        W28495   6.470  10.241  15.731  0.0087 -0.3393 -0.1275
12312W        W28496   3.061   4.297   1.834 -0.3189 -0.1471 -0.1062
12313W        W28497  14.367   3.741   0.603  0.0129  0.0295  0.2473
12314W        W28498  15.194   5.537   5.775 -0.1627  0.0263  0.1992
12315W        W28499  15.820  14.854   5.469 -0.3085 -0.3428  0.1210
12316W        W28500  11.775   7.467  13.437  0.1066 -0.0945  0.1577
12317W        W28501  16.932   6.793  13.100  0.0155  0.3211  0.0314
12318W        W28502   0.461   9.163  16.649  0.2307 -0.1344 -0.1511
12319W        W28503   1.895  15.710   1.155 -0.0373  0.0234  0.0004
12320W        W28504   5.318   2.355   1.252  0.0105  0.0248 -0.1629
12321W        W28505  14.559  11.202  13.613 -0.1223  0.2073  0.0347
12322W        W28506   7.931  13.050  14.958 -0.2010  0.0375  0.2392
12323W        W28507   3.240   5.798  15.390 -0.1602 -0.1139 -0.1126
12324W        W28508  15.324   3.639  15.076  0.1454  0.0168 -0.0062
12325W        W28509  15.066   5.832  15.686 -0.3354 -0.0449 -0.0374
12326W        W28510   0.992   5.526   0.521 -0.1979  0.0585  0.0491
12327W        W28511   3.755  13.272  16.298 -0.0187 -0.0904  0.1985
12328W        W28512   6.214  15.810   1.936 -0.3112  0.3102 -0.0286
12329W        W28513  15.464   6.272   0.577 -0.0175 -0.2177  0.1918
12330W        W28514   3.314   7.995   6.125 -0.1835 -0.1765 -0.1810
12331W        W28515   7.127  12.483   1.196  0.2745 -0.2905  0.0729
12332W        W28516  13.376  11.184  15.178 -0.2618  0.3390  0.3208
12333W        W28517   8.255   3.055  14.472 -0.1251 -0.1480 -0.1310
12334W        W28518  15.345  14.999   5.261 -0.1801  0.0587 -0.0391
12335W        W28519  16.193   2.640  13.300 -0.1383  0.1783 -0.1878
12336W        W28520   1.250   2.574   4.663 -0.0940 -0.0648  0.1965
12337W        W28521   9.964  14.782   1.790 -0.1354  0.1407  0.0844
12338W        W28522  14.034  15.969   4.064 -0.3106 -0.2338  0.1319
12339W        W28523   8.630  12.725  12.467 -0.2174  0.3568  0.0074
12340W        W28524  11.261  15.414   1.639 -0.2086  0.1892  0.0886
12341W        W28525  12.528   8.937  12.458  0.2399  0.0908 -0.1702
12342W        W28526  15.465   0.578  12.450  0.0348 -0.1220 -0.0593
12343W        W28527  14.180   3.375   0.047  0.1121 -0.1249  0.0020
12344W        W28528  14.853   3.102  12.425  0.0523  0.0370 -0.2568
12345W        W28529  17.084   8.345   5.566  0.0230 -0.2395  0.1133
12346W        W28530  15.780  16.158  15.527 -0.1599  0.0660 -0.0351
12347W        W28531  13.508   8.959   4.357  0.2683  0.3895 -0.0493
12348W        W28532  12.314   8.262  15.092  0.0477  0.4767  0.2938
12349W        W28533   8.135  14.858  13.724  0.0946  0.0152  0.2543
12350W        W28534   3.834   0.685  12.330  0.0759 -0.1558 -0.0584
12351W        W28535  12.097  17.296   1.613  0.3396  0.4272 -0.1245
12352W        W28536  17.859   6.753   2.734  0.2779  0.1154  0.1615
12353W        W28537   9.302   7.934  14.313  0.1480 -0.0557  0.0593
12354W        W28538  13.596  11.952  13.568 -0.3086 -0.0392  0.3959
12355W        W28539  13.510  11.790   5.416 -0.1350 -0.0899  0.0751
12356W        W28540  13.674   7.569   5.713 -0.1391 -0.3823  0.0899
12357W        W28541   3.240   5.176  12.013 -0.3740  0.0178  0.1988
12358W        W28542   6.918   3.566  12.443  0.0704  0.1094  0.2474
12359W        W28543  14.688   6.789   0.853 -0.2746 -0.2996  0.1941
12360W        W28544  11.688  13.652  11.807  0.4883 -0.0211  0.0340
12361W        W28545   2.441   1.691  14.748  0.0668  0.1671 -0.0540
12362W        W28546  10.605  16.942   3.331 -0.5448  0.0500 -0.1024
12363W        W28547   8.580  15.965  15.624 -0.1549 -0.1914  0.0232
12364W        W28548  15.500  13.998  15.009  0.0455 -0.3816 -0.1621
12365W        W28549   8.587   0.093  13.024  0.0096 -0.1942  0.1803
12366W        W28550   7.475  11.603  12.073 -0.2627  0.1259  0.1999
12367W        W28551   6.436   0.093  14.974 -0.1456  0.0333 -0.0830
12368W        W28552  13.698   7.682   1.066 -0.0998  0.2991 -0.2972
12369W        W28553   7.883  11.435  14.717  0.0051 -0.0503  0.1244
12370W        W28554   9.907   8.532  14.507  0.0032  0.0933  0.3145
12371W        W28555   7.343  14.749   5.474  0.2615  0.0873  0.2643
12372W        W28556  12.719   1.334   0.335  0.1417  0.2014 -0.3170
12373W        W28557   4.223  12.882  13.242 -0.0941  0.0795  0.0173
12374W        W28558  13.114  10.858  14.809 -0.1042 -0.1346  0.1965
12375W        W28559   8.437  11.904   5.892  0.2767  0.2946  0.0227
12376W        W28560   0.852  16.420   5.432 -0.0631  0.3018 -0.3246
12377W        W28561   6.635   0.404   4.358 -0.1245 -0.1492 -0.3503
12378W        W28562  17.172   7.183   2.197  0.0252 -0.0796  0.3487
12379W        W28563   2.848   9.266   3.948 -0.0733  0.4467 -0.3311
12380W        W28564  11.386   5.045   5.126 -0.0817 -0.0734  0.0288
12381W        W28565   3.204   5.812   5.242  0.1651  0.1421  0.2893
12382W        W28566   8.282  13.265   1.305  0.3471  0.1554  0.0695
12383W        W28567  14.906  17.056   0.853 -0.0556 -0.0850  0.0194
12384W        W28568   0.505   8.612   5.541 -0.1062 -0.1701 -0.2424
12385W        W28569  12.253   5.701  14.917 -0.2604  0.1731 -0.0657
12386W        W28570  17.043   0.301   4.430 -0.1517  0.1097 -0.1217
12387W        W28571  16.635  15.391  15.117  0.1806 -0.0280 -0.0801
12388W        W28572   7.400  12.345   5.011  0.1328  0.0585  0.0908
12389W        W28573  12.676   3.929   2.494  0.0350  0.1582 -0.2146
12390W        W28574  13.616   3.489   0.793 -0.0223  0.1379  0.2336
12391W        W28575   4.314   9.281   2.725 -0.0834  0.0584  0.0421
12392W        W28576  16.201   7.219  10.446 -0.0833 -0.2232 -0.1410
12393W        W28577   4.625  10.882   4.539  0.1898 -0.1752  0.0177
12394W        W28578   0.088  15.399   3.954 -0.0828  0.1117 -0.1356
12395W        W28579   6.491   6.519   4.559  0.2262 -0.0472 -0.2122
12396W        W28580   5.931   3.913   4.047  0.1819  0.0347 -0.0251
12397W        W28581   7.534   6.642  12.288  0.0665  0.0895 -0.0772
12398W        W28582   8.799   4.410  14.156  0.2309 -0.1869 -0.0174
12399W        W28583  14.438   6.277  15.863  0.2513 -0.0517 -0.0767
12400W        W28584  15.238   0.020   0.879  0.0594 -0.2005  0.0644
12401W        W28585   1.543   2.696  12.842 -0.2772 -0.1232 -0.3400
12402W        W28586   1.886   5.272  13.712 -0.2830  0.1707 -0.2368
12403W        W28587   2.082   0.114   0.733  0.2244 -0.0626 -0.2860
12404W        W28588  17.266  13.837   4.853 -0.0341 -0.0593 -0.0461
12405W        W28589  10.217  17.067  13.284 -0.1985 -0.1814  0.0880
12406W        W28590   6.575   9.952   3.631 -0.3220 -0.2046 -0.1746
12407W        W28591  11.296   7.525   0.453  0.0895  0.1887  0.2186
12408W        W28592  16.330   0.845   5.037 -0.0669 -0.1012 -0.0067
12409W        W28593   4.753   5.137   2.430  0.0987 -0.0556  0.2343
12410W        W28594  12.743   4.172  16.642 -0.1227  0.1099 -0.0203
12411W        W28595   9.089   6.267   5.852  0.0121  0.3007  0.1591
12412W        W28596   6.130   5.400  15.691  0.1816 -0.1759  0.1536
12413W        W28597   9.459   6.473   5.441  0.0883  0.0659 -0.0431
12414W        W28598   1.575   4.319   3.742  0.0889 -0.1084  0.0231
12415W        W28599  13.629   4.396   3.790  0.2202  0.1093  0.2666
12416W        W28600  10.599   4.527   1.712 -0.0134  0.2420 -0.0049
12417W        W28601  14.862   2.024  11.395  0.2444 -0.0953 -0.0314
12418W        W28602  14.291   0.959  13.256  0.0614  0.1142 -0.4487
12419W        W28603  11.026  14.088  12.463  0.0417 -0.1873  0.1120
12420W        W28604  11.165   1.205  14.188 -0.0939 -0.0347 -0.2319
12421W        W28605  12.279  10.299   6.397  0.1407 -0.1769 -0.1931
12422W        W28606  10.566  17.499  15.889 -0.3039 -0.1047  0.2878
12423W        W28607   6.774   1.867   2.633  0.0229  0.2202 -0.2796
12424W        W28608   4.207  14.868  14.766 -0.1057  0.1339 -0.0196
12425W        W28609  14.659   4.450   0.602  0.1072  0.1006 -0.0025
12426W        W28610   9.993   2.946   3.968  0.2779  0.1135 -0.1249
12427W        W28611   8.558   3.222  12.445 -0.0238  0.2078  0.3589
12428W        W28612   9.266   2.111  12.605 -0.1504 -0.0652 -0.3848
12429W        W28613   6.579  10.633   3.020  0.0033  0.0006 -0.0566
12430W        W28614   3.978  14.203   3.892  0.2588  0.1725 -0.0154
12431W        W28615   5.845   1.599  14.961 -0.1542  0.1753  0.3201
12432W        W28616  17.071  17.968   4.047 -0.0199 -0.2112 -0.5727
12433W        W28617  13.646   0.345  10.476  0.0880  0.1871 -0.0513
12434W        W28618   6.853  15.645   2.534 -0.2603 -0.0421  0.1487
12435W        W28619   4.089  13.389   3.104  0.1641  0.4407  0.0084
12436W        W28620  11.306   6.172  15.170  0.0637  0.2831  0.1954
12437W        W28621  12.003   2.164  15.624 -0.0958 -0.0567 -0.0072
12438W        W28622  11.300  16.475   2.603  0.2106  0.1993  0.2094
12439W        W28623   6.020   0.692   0.943  0.2296 -0.0210 -0.1738
12440W        W28624   7.945   5.424  14.708 -0.1027  0.0475  0.0365
12441W        W28625  16.433  16.829  11.706  0.1816  0.0152  0.1316
12442W        W28626   4.802  13.327   1.533  0.0368 -0.1260 -0.0296
12443W        W28627  13.823   5.940  13.398 -0.1193 -0.1444 -0.2196
12444W        W28628  12.134   9.420  14.517 -0.1336  0.1674  0.4116
12445W        W28629   6.248   8.592   5.399  0.0709 -0.1284  0.0977
12446W        W28630   4.599   1.110   4.794 -0.0537 -0.0231  0.0455
12447W        W28631   8.369  12.115  13.989  0.3051  0.0305  0.0768
12448W        W28632   4.249  13.051   4.441  0.0176 -0.1690 -0.2960
12449W        W28633  12.349   2.479  15.863  0.0801 -0.0768 -0.5484
12450W        W28634   4.733  17.339   0.634 -0.4016 -0.0363  0.2368
12451W        W28635   8.407   7.737  15.759  0.2458 -0.1849 -0.1775
12452W        W28636   0.128   6.345   3.027 -0.0982 -0.0604  0.0147
12453W        W28637  16.387   0.438  14.106  0.2328  0.3908  0.3307
12454W        W28638   7.212  10.305   5.696 -0.0838  0.0131  0.4010
12455W        W28639  13.839   6.981  13.543  0.0638  0.0612  0.1290
12456W        W28640  14.387  12.869  14.023 -0.2623  0.2477 -0.0350
12457W        W28641  13.533   6.747   4.216  0.0026 -0.0015  0.2186
12458W        W28642   7.668  12.059   3.201  0.4292 -0.0916  0.1476
12459W        W28643  10.826   0.936  12.050  0.2170 -0.2860 -0.2609
12460W        W28644   9.185   3.040  14.096  0.0351  0.2138  0.0801
12461W        W28645   0.199  10.515  15.504 -0.0143  0.1332 -0.2588
12462W        W28646   8.704   2.806  11.702  0.0922 -0.0249  0.3092
12463W        W28647  10.331   2.278   0.278  0.1257 -0.3487  0.2156
12464W        W28648   3.174  14.675  14.045 -0.0737 -0.0795  0.0358
12465W        W28649   3.356  17.681  13.126  0.0994  0.1865  0.3128
12466W        W28650  17.210   5.165   5.101 -0.1334  0.2531 -0.1509
12467W        W28651   5.709   6.275   1.160 -0.0869 -0.0363 -0.3464
12468W        W28652   8.477   5.741   3.708  0.2967  0.1798  0.1479
12469W        W28653   1.485   4.146  16.025  0.0212 -0.0438 -0.3600
12470W        W28654  12.440  13.885   1.633  0.1150  0.4447  0.4580
12471W        W28655  13.286  13.144   0.575 -0.2849  0.4601 -0.3501
12472W        W28656  17.609   0.775  15.672  0.2775  0.4128  0.2667
12473W        W28657   7.835   1.053   4.802 -0.2231 -0.1873  0.0580
12474W        W28658  16.293   3.429  11.886 -0.0841 -0.1083 -0.1889
12475W        W28659   6.024   6.490  12.636  0.2116  0.1956 -0.1114
12476W        W28660   0.057   5.021  16.313  0.1038 -0.1165 -0.3075
12477W        W28661   6.596  12.864   3.660 -0.3938 -0.1448  0.1391
12478W        W28662   0.857  15.884   2.890 -0.2017  0.0904 -0.0126
12479W        W28663   2.663   1.205  12.394  0.2059  0.0917 -0.1574
12480W        W28664  12.441   7.206   1.896  0.0049 -0.1179  0.0139
12481W        W28665   2.098   2.082   4.405 -0.2126  0.0219  0.1650
12482W        W28666   8.385   4.026   3.376 -0.0525  0.0778 -0.0830
12483W        W28667   0.046   3.281   0.973  0.2436  0.0538 -0.0405
12484W        W28668  16.007   4.340  12.119  0.1857  0.0033 -0.2303
12485W        W28669   0.252   8.143   5.238 -0.4192  0.1697  0.0662
12486W        W28670   9.240  13.623   1.704 -0.0498 -0.1140 -0.1321
12487W        W28671  15.825   3.467  11.998  0.1803  0.0721 -0.3139
12488W        W28672   2.106  12.656  16.071 -0.1273 -0.4324 -0.1195
12489W        W28673   8.203  11.502  16.121 -0.1139 -0.4113  0.0397
12490W        W28674  11.061   4.369   2.518 -0.0909  0.1956 -0.1342
12491W        W28675  14.748  17.354   3.611  0.1242  0.0098 -0.0230
12492W        W28676   3.114   8.855  16.272  0.1136  0.2793  0.1140
12493W        W28677  11.226  12.654  16.270 -0.2962 -0.2000 -0.0054
12494W        W28678  11.975   3.514  16.541 -0.2136 -0.1231 -0.0172
12495W        W28679  11.025  15.889  15.328 -0.1789 -0.0549 -0.1553
12496W        W28680  10.670   5.686  15.630  0.1223  0.1058 -0.0593
12497W        W28681  14.066  14.451  13.678 -0.2447 -0.1051 -0.1954
12498W        W28682   6.133  12.392  14.201 -0.2946 -0.0707  0.1113
12499W        W28683   6.071  13.137  16.606 -0.0295  0.1625 -0.1599
12500W        W28684  14.583  12.007   4.812 -0.1121  0.3568  0.1076
12501W        W28685  11.317   6.805  10.618 -0.3055  0.2355 -0.3605
12502W        W28686  10.259   2.220  14.575 -0.1838  0.1529  0.2516
12503W        W28687  15.335  12.972   3.366  0.0174  0.2207  0.1885
12504W        W28688   5.052   0.253  11.227 -0.1327 -0.1732  0.1496
12505W        W28689   3.087  12.578  15.472  0.2731  0.3425  0.1691
12506W        W28690   4.103   7.605   4.142 -0.1507 -0.2505  0.0237
12507W        W28691  15.545   3.960   5.821  0.1486 -0.0582  0.0520
12508W        W28692   4.385   5.276   2.777 -0.3208  0.0264 -0.0300
12509W        W28693  12.883  11.278   2.945 -0.1009 -0.2127 -0.0582
12510W        W28694   5.973   4.590  16.361 -0.0344  0.1360 -0.2481
12511W        W28695  10.586  14.146  11.335  0.3037 -0.0531  0.0600
12512W        W28696  15.592   8.500   0.815 -0.4077  0.0818  0.0038
12513W        W28697  16.853  10.902   4.298 -0.2139  0.3217  0.0978
12514W        W28698   6.381  13.743  15.306 -0.1690  0.0369 -0.0571
12515W        W28699  16.813   2.991   5.688  0.0214 -0.1382 -0.1142
12516W        W28700  14.941   7.218   4.591  0.3182 -0.1074  0.1431
12517W        W28701   0.132  13.085  13.370  0.0574 -0.1513  0.1281
12518W        W28702  12.403   4.799  15.935  0.0310 -0.4008 -0.0539
12519W        W28703  17.485   3.832  15.463 -0.3932  0.0936  0.2648
12520W        W28704   6.580  11.078   3.915  0.0106  0.1115  0.1168
12521W        W28705   7.073   5.137   2.003 -0.2911  0.1475  0.1456
12522W        W28706   7.023  10.238   3.674 -0.0546  0.1524  0.0797
12523W        W28707  10.117   2.190   2.071 -0.0567  0.0828  0.3753
12524W        W28708   9.835  11.791   5.375 -0.5058 -0.0539 -0.0464
12525W        W28709  13.413  13.418  15.686 -0.2173 -0.3677 -0.1139
12526W        W28710  15.491   2.888  15.386  0.2181 -0.0823 -0.2629
12527W        W28711   4.477  15.340   4.833 -0.0052 -0.0343 -0.0440
12528W        W28712   3.364  12.975   4.910  0.0455  0.1152 -0.1385
12529W        W28713  14.110   1.577  12.287 -0.0252  0.2097  0.0848
12530W        W28714  12.327   3.165   2.940  0.0289 -0.1533  0.2740
12531W        W28715   5.711   9.973   0.551  0.0021  0.0062  0.0879
12532W        W28716  15.439  17.003  13.046 -0.2860  0.4774  0.0077
12533W        W28717   6.045   0.690  15.398 -0.0807 -0.0424  0.2123
12534W        W28718  11.989  13.377  13.802 -0.0735 -0.1931 -0.0410
12535W        W28719   6.577  14.196  14.384  0.0566 -0.0955  0.2485
12536W        W28720  16.651   1.653  13.847 -0.0530  0.1639  0.1922
12537W        W28721   9.237   2.399   0.487  0.1043 -0.1373 -0.4389
12538W        W28722  11.286   4.120   4.752  0.1547  0.0900 -0.0107
12539W        W28723  15.053   7.069  14.343  0.0492 -0.0744  0.0903
12540W        W28724  14.958   5.350  13.290  0.1908  0.1262 -0.2527
12541W        W28725  12.115   6.005   3.945  0.0845 -0.1976 -0.0249
12542W        W28726   4.003  17.332   1.168 -0.0404  0.2928 -0.0835
12543W        W28727  13.025   2.358  13.506  0.3821 -0.0936 -0.2221
12544W        W28728   5.945   1.024  12.549  0.1775 -0.2237 -0.2501
12545W        W28729  14.742  11.081   2.653  0.3361  0.1077  0.1676
12546W        W28730   6.394  13.473   1.732  0.1793  0.1431 -0.0012
12547W        W28731   5.774  17.308   0.690 -0.2124  0.3106 -0.0847
12548W        W28732   1.919   2.963   2.256  0.2806  0.1558 -0.0075
12549W        W28733  16.759  11.193   1.204  0.1583 -0.0141 -0.4047
12550W        W28734  16.035  11.484   2.857 -0.1470  0.0327  0.2609
12551W        W28735   4.760   1.573  15.238 -0.1400 -0.0245  0.2565
12552W        W28736   9.688  12.888   5.027  0.0538  0.2210  0.3032
12553W        W28737  15.117  16.707   3.150 -0.0616  0.1983  0.1003
12554W        W28738  11.780  10.966   1.358  0.3048 -0.2714 -0.2156
12555W        W28739   7.479   4.060  15.595  0.0564 -0.0805  0.3724
12556W        W28740  14.625   0.882   2.626 -0.0783 -0.0154 -0.2601
12557W        W28741   2.071  15.886   3.769  0.4176  0.0890  0.1158
12558W        W28742  11.214   5.540   3.107 -0.2269 -0.2107 -0.0613
12559W        W28743   4.954   7.094   0.051  0.1066 -0.0510 -0.2571
12560W        W28744   8.251   9.251  14.170  0.3397 -0.2573  0.1477
12561W        W28745  12.292  14.851   4.955 -0.0164 -0.1695  0.0607
12562W        W28746  16.010  11.474  11.366  0.0127 -0.1747 -0.1523
12563W        W28747   1.970   0.911   2.483  0.0014  0.0735 -0.0964
12564W        W28748   6.305   3.336   5.326 -0.3942  0.1102  0.1321
12565W        W28749   0.342   3.924   1.527  0.0535 -0.5288  0.2334
12566W        W28750  12.676   9.252   2.849  0.4890 -0.0277 -0.0138
12567W        W28751   3.314   2.045   3.916  0.2019  0.1499 -0.0247
12568W        W28752   5.481  16.664   3.874 -0.2597  0.0736 -0.0248
12569W        W28753   7.160  16.347  12.931  0.0913 -0.1125 -0.0886
12570W        W28754   6.271   5.978  12.610  0.1969  0.1035  0.2053
12571W        W28755   5.485   7.601   2.211  0.0456  0.1442 -0.1924
12572W        W28756   1.304   4.197  13.083 -0.5293  0.0329 -0.3484
12573W        W28757   2.596  17.596  14.318  0.1484 -0.5335  0.2155
12574W        W28758   7.271   7.444  14.366 -0.1238 -0.0282 -0.0745
12575W        W28759   5.578   1.303  12.685 -0.0085  0.3907 -0.3457
12576W        W28760  16.388   6.851   0.635  0.1279  0.0302 -0.1906
12577W        W28761   5.009   8.306   0.825 -0.1067 -0.0553 -0.3053
12578W        W28762  17.217  10.364   1.880  0.2345  0.1369 -0.0175
12579W        W28763  13.362   9.105   2.358 -0.0253  0.0381  0.2297
12580W        W28764  10.343   8.334   6.066 -0.0920 -0.2330  0.2107
12581W        W28765  16.740  11.056   2.802  0.1290  0.2078 -0.2782
12582W        W28766  12.418  15.757   4.493 -0.1185  0.0795  0.1566
12583W        W28767  10.694  15.863   3.170  0.0175  0.1646 -0.2792
12584W        W28768  13.187   5.336  11.637 -0.0948  0.1219  0.2652
12585W        W28769   9.734  13.922   1.730 -0.1718 -0.2405 -0.3261
12586W        W28770  10.032   0.844   5.169  0.1286  0.2847  0.1419
12587W        W28771   1.852  15.402   3.268 -0.3673  0.1622 -0.0596
12588W        W28772   4.227   8.718   1.224 -0.3803 -0.0725  0.1598
12589W        W28773   3.526   9.238  14.270  0.0108  0.0624  0.1033
12590W        W28774   3.585   9.373  11.767  0.0098 -0.1405  0.2760
12591W        W28775   9.082   4.068  11.426  0.1681  0.0439  0.1461
12592W        W28776   1.884  11.490   1.037  0.0812  0.1860 -0.1622
12593W        W28777   8.404  15.537  15.424  0.0327  0.0298  0.2576
12594W        W28778  15.137  15.539  13.439 -0.1842  0.1826  0.1233
12595W        W28779   4.783   0.086   0.459 -0.1357  0.0767 -0.1958
12596W        W28780  13.286   5.994   5.686  0.1173  0.0728 -0.2297
12597W        W28781  14.514   9.038   1.292 -0.0426 -0.2789 -0.1928
12598W        W28782   5.562  14.974   2.170 -0.1782  0.0109 -0.2227
12599W        W28783   0.149  17.328  15.974  0.1980 -0.0915 -0.0986
12600W        W28784  16.772   6.446  12.038  0.0720 -0.0522  0.0295
12601W        W28785   1.358   4.832   4.247  0.4637 -0.5590 -0.1479
12602W        W28786   3.777   7.350  12.165 -0.0399 -0.2051 -0.0779
12603W        W28787   3.850   6.680   3.465  0.1313  0.0783 -0.2327
12604W        W28788  11.786  17.212   2.119  0.0348 -0.4190  0.2745
12605W        W28789   6.477   9.888  16.584 -0.1456 -0.0921 -0.0291
12606W        W28790   0.369   2.811   3.192  0.1097  0.0386  0.5899
12607W        W28791   6.034  15.722  14.110  0.2225  0.0771 -0.1674
12608W        W28792   3.195  12.386   0.996  0.0927 -0.0628 -0.0994
12609W        W28793  13.638   3.185  11.278 -0.2178 -0.2779 -0.1749
12610W        W28794  17.656  11.115  12.506  0.1719 -0.2870 -0.0806
12611W        W28795   7.915  10.901   4.184  0.0109  0.0997 -0.0892
12612W        W28796   8.158  10.690   1.340 -0.4930  0.1864  0.0625
12613W        W28797   6.550   2.055   5.026 -0.3945 -0.1044 -0.0806
12614W        W28798  13.186  14.137   5.426 -0.1679  0.3082 -0.0335
12615W        W28799  17.046   1.333  13.941 -0.0461  0.1445  0.2176
12616W        W28800   6.651  14.333  16.410 -0.0963 -0.0576  0.4120
12617W        W28801   1.175   0.693   3.202 -0.2086 -0.1336 -0.2493
12618W        W28802   3.481  13.963   3.053  0.3394 -0.0921  0.0981
12619W        W28803   8.827   0.593   5.329 -0.1506 -0.1188 -0.0167
12620W        W28804   5.343  10.685  11.184 -0.0208 -0.1146  0.1511
12621W        W28805  17.525  11.107   0.160  0.1672  0.2277  0.1138
12622W        W28806   1.272  14.810   2.952 -0.2707 -0.0087 -0.1454
12623W        W28807  15.038   4.323  13.770  0.1192 -0.0628 -0.3487
12624W        W28808   4.476  14.653  15.178  0.0297 -0.3319 -0.0483
12625W        W28809   5.872   3.513   0.594  0.1803  0.1915 -0.4391
12626W        W28810  16.904  11.954   5.469  0.0228 -0.0520  0.1874
12627W        W28811  17.130   4.586   1.129 -0.1616 -0.0150  0.0734
12628W        W28812   4.827  11.566   2.218  0.0536 -0.2090  0.0386
12629W        W28813   3.171  14.568  15.869 -0.0564  0.3247 -0.0258
12630W        W28814   1.737  13.340  14.554  0.1772 -0.0724 -0.0280
12631W        W28815  16.050   6.758   1.059 -0.3861 -0.1449  0.2587
12632W        W28816   1.359   5.428  12.754 -0.0262  0.2493  0.2737
12633W        W28817   8.892   8.658  16.183 -0.5225 -0.1408 -0.0183
12634W        W28818  13.138  12.332  12.174  0.0170  0.0228  0.0058
12635W        W28819   6.095   1.750   0.686  0.1909 -0.0003 -0.0752
12636W        W28820   3.344  13.632  14.344 -0.2881  0.1284  0.2021
12637W        W28821   3.987  16.405  14.230  0.0300 -0.2028  0.2537
12638W        W28822  12.240   2.522  15.315  0.0772 -0.1641  0.2079
12639W        W28823   4.493  17.082   4.505  0.3402 -0.0251 -0.0446
12640W        W28824  16.366   8.884   2.144 -0.2020 -0.1163 -0.0350
12641W        W28825  11.256   4.788  12.942 -0.1035  0.3962  0.2925
12642W        W28826   6.982   9.898  12.546  0.3633  0.0728 -0.0121
12643W        W28827  17.446   2.817   3.543 -0.2770 -0.0005 -0.1307
12644W        W28828  13.053  16.821   2.266 -0.0202  0.2185  0.0005
12645W        W28829  12.609   1.695  15.146  0.0307  0.0379 -0.0846
12646W        W28830  17.835  17.989  14.112 -0.2300  0.0217 -0.1746
12647W        W28831  14.361   1.102   6.598  0.1699  0.1236 -0.2105
12648W        W28832   0.875   3.006  15.765 -0.2273  0.1452  0.0459
12649W        W28833  15.888  16.274  16.058 -0.2621 -0.1252 -0.2444
12650W        W28834   2.360   8.421   6.029  0.2601  0.2709 -0.2471
12651W        W28835   1.596   0.548  14.958  0.1087  0.1766  0.0139
12652W        W28836   7.578  17.561  14.273 -0.1011  0.2291  0.1285
12653W        W28837   2.529  17.551  12.882 -0.0508  0.2766  0.1208
12654W        W28838  14.704   7.555   3.333  0.3228  0.0051 -0.1033
12655W        W28839   7.245  12.003  11.730  0.2405  0.0129 -0.0644
12656W        W28840   2.058  12.481   0.649 -0.2434  0.1280  0.1861
12657W        W28841   1.299  17.567  13.232  0.0831  0.1639 -0.2056
12658W        W28842  12.078   3.555   4.218 -0.1482 -0.1106 -0.1488
12659W        W28843   0.731   4.446  15.961  0.2640  0.1031  0.3183
12660W        W28844   0.366   4.550   4.664 -0.3086  0.0121  0.0567
12661W        W28845  15.382  16.943   5.547 -0.0637  0.0655 -0.0268
12662W        W28846  12.706   9.604  16.101  0.0809  0.0713  0.1841
12663W        W28847   6.335   4.774  15.122  0.3859  0.2434 -0.4425
12664W        W28848  14.599  16.016  13.280  0.2179 -0.1942 -0.0197
12665W        W28849  11.136   3.205  11.951  0.0670  0.1507 -0.0497
12666W        W28850  16.907   0.981   2.746 -0.0540 -0.0817 -0.3442
12667W        W28851   8.400   6.625   0.043 -0.0790 -0.0965 -0.0453
12668W        W28852  12.320  16.138  12.826 -0.0019  0.0126 -0.2486
12669W        W28853   8.746   6.232   3.963 -0.0313 -0.0862  0.3475
12670W        W28854  10.424   0.835   1.127  0.1780 -0.0454 -0.3362
12671W        W28855  10.372  10.038   3.785 -0.0583 -0.2190 -0.0377
12672W        W28856   8.769  15.215  16.090 -0.0230  0.0608  0.4060
12673W        W28857   0.208   6.654   0.873 -0.0394  0.0533  0.1121
12674W        W28858   1.772  13.211  12.458 -0.1840 -0.1005  0.0069
12675W        W28859   9.905  17.357  13.581  0.1160 -0.0936 -0.0436
12676W        W28860   9.431  12.874  12.998  0.2194 -0.0412 -0.0790
12677W        W28861   5.505   0.678  12.803  0.1695  0.1319 -0.0951
12678W        W28862   5.196  12.003   0.434  0.0302 -0.0171  0.1416
12679W        W28863  12.203  13.942   2.095  0.0707 -0.1490  0.3060
12680W        W28864   0.373  10.004   5.780 -0.1194  0.2226 -0.0200
12681W        W28865   9.288  10.663  13.664 -0.2757 -0.3342 -0.0892
12682W        W28866   3.148   2.147   2.133 -0.0039 -0.1343 -0.1710
12683W        W28867   1.752  16.316   3.833 -0.0170  0.2639 -0.0415
12684W        W28868  16.749  11.174   1.720  0.0438 -0.1241  0.0428
12685W        W28869   6.742  13.226  13.012  0.1227 -0.1431  0.0416
12686W        W28870  15.923  10.970  11.451  0.0020 -0.2204 -0.0593
12687W        W28871   8.522  10.016  14.158 -0.2929 -0.1243 -0.0769
12688W        W28872   3.694   7.495   0.133  0.1167 -0.0127  0.2727
12689W        W28873   4.302   6.731   4.064 -0.2419  0.0528 -0.0212
12690W        W28874   7.086  15.583   0.206 -0.0852 -0.2255 -0.5626
12691W        W28875   7.137   3.785   2.056  0.3749 -0.1140 -0.2825
12692W        W28876   4.015   4.907   5.742 -0.5309  0.1812  0.3100
12693W        W28877   3.155   0.987  11.816 -0.1688 -0.1430  0.1641
12694W        W28878   0.976  10.804   4.134 -0.1431  0.1405 -0.1066
12695W        W28879   0.965   7.370   0.409 -0.1765 -0.1183 -0.0123
12696W        W28880  12.281   9.546   4.808  0.1769 -0.5796 -0.2541
12697W        W28881   3.029  12.891   3.799 -0.1483 -0.1766 -0.0588
12698W        W28882  12.233   7.393   2.943 -0.1028  0.3444  0.2889
12699W        W28883  16.531   3.407   1.589  0.1310  0.1206 -0.0909
12700W        W28884  13.295   7.359  14.091  0.2707  0.0431  0.0716
12701W        W28885   8.987   3.695   4.592  0.0245 -0.0717  0.2167
12702W        W28886  14.547   5.638   1.387  0.1549  0.4915 -0.1616
12703W        W28887   4.482   6.412   1.879  0.0105 -0.1097 -0.1445
12704W        W28888   9.979   6.717   0.057  0.1420 -0.1325 -0.3674
12705W        W28889   3.218   8.077   5.626  0.2456 -0.3610 -0.0854
12706W        W28890   7.623   4.720   4.769  0.0328  0.3301 -0.2401
12707W        W28891  13.040   0.068  14.254 -0.0679 -0.0415 -0.0623
12708W        W28892   9.586   9.986  14.297  0.0495 -0.1050  0.2363
12709W        W28893   1.272   2.936  13.223 -0.2966  0.1020 -0.1129
12710W        W28894   1.989   7.243  13.304  0.1841  0.0687  0.1838
12711W        W28895   6.602  11.246  15.984  0.3542 -0.0025 -0.0672
12712W        W28896   6.146   0.368   3.245 -0.3111 -0.1812 -0.1934
12713W        W28897  16.312   2.047   4.365  0.0037 -0.2082  0.0029
12714W        W28898  12.958   3.882   0.279 -0.0408 -0.2439 -0.0247
12715W        W28899  16.065   9.047  15.289 -0.3967  0.3102  0.0986
12716W        W28900   7.883  16.017   1.268 -0.3640 -0.0912  0.1944
12717W        W28901  14.136  10.268   1.631  0.0269  0.3622  0.0096
12718W        W28902   2.961   8.939  10.767  0.3702  0.3482 -0.1188
12719W        W28903   6.232  17.568   2.423  0.1345 -0.2540 -0.2023
12720W        W28904  14.768  11.224   3.668 -0.2031  0.0934  0.0199
12721W        W28905  15.177   2.826   0.851  0.0412 -0.1490 -0.1892
12722W        W28906   0.475   0.703  14.186  0.1186 -0.1500 -0.2367
12723W        W28907  10.350  13.049   4.344 -0.2134  0.1552  0.0791
12724W        W28908   0.490   2.656   4.369  0.0482  0.2077 -0.2240
12725W        W28909   6.180   4.313   2.575  0.0655 -0.1287 -0.2097
12726W        W28910  12.068   0.635   2.734 -0.0124  0.4321  0.1091
12727W        W28911  10.399  12.676   1.710 -0.3037 -0.0668  0.0971
12728W        W28912  17.939   8.047   0.189  0.0536 -0.2325  0.2708
12729W        W28913  16.234   7.797  11.996  0.2918  0.3174  0.1469
12730W        W28914  17.436   6.046  15.605 -0.0563  0.2311 -0.0507
12731W        W28915  13.928   1.978   3.278  0.3745  0.0518 -0.0734
12732W        W28916  12.517   1.000  12.747  0.2040  0.4814 -0.0345
12733W        W28917   2.522  15.394  11.325  0.0890 -0.4614  0.1392
12734W        W28918  17.471   6.868   4.178  0.3838  0.0476 -0.2000
12735W        W28919  10.303  10.810  16.449 -0.1873  0.3279  0.1905
12736W        W28920  10.267  12.430   5.706 -0.1189 -0.0860 -0.3265
12737W        W28921   3.419   1.833   3.386 -0.3743  0.0559  0.0949
12738W        W28922   8.295  10.370   5.072  0.3686  0.3643 -0.0070
12739W        W28923   0.697   5.213  15.883  0.0669  0.3123 -0.1376
12740W        W28924  10.635   3.719  14.797  0.2926  0.4346  0.1009
12741W        W28925   5.641  11.919  16.066 -0.2953 -0.3086  0.1562
12742W        W28926  10.283   6.038   1.753  0.0681 -0.1544 -0.0799
12743W        W28927   8.633   4.252   3.860  0.1515 -0.2852  0.1257
12744W        W28928   8.736  10.607   3.986  0.1918 -0.5027  0.3075
12745W        W28929   0.582  14.541  13.055  0.0338 -0.2022  0.0849
12746W        W28930   1.067   2.692  14.272 -0.1438 -0.0741  0.4539
12747W        W28931  10.561   9.340   3.209  0.0787 -0.0918  0.2573
12748W        W28932   7.403  15.300  16.397 -0.0122  0.2181  0.0169
12749W        W28933   2.167   3.086  12.224 -0.0618  0.1141  0.1107
12750W        W28934  14.262  14.741  15.328 -0.2992  0.5561 -0.0890
12751W        W28935   6.481  10.208  12.804  0.1123  0.1924  0.0564
12752W        W28936  10.392   6.966   1.064 -0.2131 -0.0154 -0.2458
12753W        W28937   3.760   0.857  13.047 -0.1172  0.1281 -0.2233
12754W        W28938   4.565   7.909  13.787  0.5699 -0.1544  0.0698
12755W        W28939  13.282   9.769  13.813 -0.0761 -0.0635 -0.0292
12756W        W28940  15.842   0.316   0.022 -0.0292 -0.1005 -0.0904
12757W        W28941   3.249  12.915   0.213  0.0786  0.1569 -0.0360
12758W        W28942   7.569  13.230   0.127  0.0084  0.3216  0.1886
12759W        W28943  13.155  14.416   4.917  0.0276  0.0395 -0.1738
12760W        W28944  11.628   7.109   3.712  0.0935 -0.2762  0.2378
12761W        W28945  11.605  10.503   1.657  0.1371 -0.0358 -0.0475
12762W        W28946   5.775   6.024   0.730  0.1119 -0.0207  0.3356
12763W        W28947   5.007  17.308   1.082  0.4405  0.1002  0.1360
12764W        W28948   9.777   9.254   2.306  0.3378  0.0516 -0.0386
12765W        W28949  16.392   4.561  16.011  0.0403 -0.3807 -0.1838
12766W        W28950   5.440   1.532   1.356  0.0045 -0.0960 -0.0951
12767W        W28951   5.462  17.711   3.531  0.1253 -0.0516  0.2650
12768W        W28952  17.406  11.702  12.912 -0.1581  0.0699 -0.2730
12769W        W28953   9.813   8.914   1.857  0.3766  0.0058 -0.3151
12770W        W28954  17.104   6.413   4.150  0.3747 -0.1966  0.0384
12771W        W28955  16.018   6.866   2.748  0.1616  0.3505  0.0858
12772W        W28956  12.221   3.141   5.360  0.2289  0.0244 -0.2966
12773W        W28957  14.711   1.085   3.614 -0.1226 -0.1361  0.2833
12774W        W28958  16.324  10.445   1.442 -0.1171  0.1797 -0.0564
12775W        W28959   1.886   3.653   5.346  0.0577  0.1199 -0.1294
12776W        W28960   1.762   6.897   5.594 -0.0759  0.0640 -0.0851
12777W        W28961   7.056  14.341  11.960  0.1409  0.0570 -0.0465
12778W        W28962   1.717   3.855   4.458  0.1340 -0.1652  0.0733
12779W        W28963   2.907   4.100  13.106  0.0658 -0.2914 -0.1382
12780W        W28964   8.565   1.769  14.458 -0.3098  0.1368 -0.1299
12781W        W28965  17.708   8.513   0.083  0.0099 -0.1224  0.1480
12782W        W28966  10.423   6.418   5.363 -0.0450  0.1029  0.4590
12783W        W28967   3.434   1.318  15.899  0.0418  0.0288  0.1485
12784W        W28968  12.965  15.868   4.102  0.2386 -0.4109  0.0117
12785W        W28969   1.606   2.209   1.142  0.0451  0.3028  0.1122
12786W        W28970  13.474   3.234  14.171  0.0736 -0.0356 -0.4241
12787W        W28971   2.474   0.794   5.759  0.0332 -0.3431  0.4157
12788W        W28972   9.010   2.880   6.221  0.1447 -0.0104  0.0896
12789W        W28973   0.132   7.827   4.872  0.0837  0.0553  0.1650
12790W        W28974   4.169  15.354   0.076  0.1384  0.0541 -0.1601
12791W        W28975  10.084   3.370   2.176  0.0283  0.0722 -0.0825
12792W        W28976  11.566   2.613  10.769 -0.2611  0.2584  0.4003
12793W        W28977  10.553   4.813  16.245  0.0263  0.1839  0.0460
12794W        W28978  15.100  16.021   3.899  0.0465 -0.0768 -0.1234
12795W        W28979   5.750   5.331  14.746 -0.2483  0.1774 -0.3111
12796W        W28980   6.247  16.749  10.463 -0.0097 -0.1002  0.0576
12797W        W28981  10.724  17.038   3.903 -0.0212  0.3330  0.1444
12798W        W28982  12.957  17.048  13.058 -0.1024  0.3418  0.0052
12799W        W28983   0.811  15.016  11.594 -0.2328 -0.1372 -0.0426
12800W        W28984   7.401  14.257   1.157  0.0934 -0.1845 -0.1099
12801W        W28985  11.072  16.223  16.241  0.0801 -0.2731  0.2553
12802W        W28986  10.253   1.007  13.152 -0.1860 -0.1960 -0.1820
12803W        W28987  13.594   1.807  16.357  0.2496  0.0037  0.0399
12804W        W28988  15.716   5.291  14.527  0.0667  0.1914  0.1652
12805W        W28989   3.519   6.315   4.343 -0.0918  0.1488 -0.1723
12806W        W28990   0.673  12.157   5.345  0.1529 -0.0851  0.0195
12807W        W28991  11.310   7.699  12.530  0.1225  0.0102 -0.0645
12808W        W28992  16.881  17.726  11.841  0.3153  0.1199 -0.2588
12809W        W28993  14.898  13.775   2.875  0.1504 -0.0662 -0.1600
12810W        W28994  17.624   0.672  12.373 -0.1416 -0.3019  0.0409
12811W        W28995  12.330  17.931   5.058  0.1745  0.3527 -0.2181
12812W        W28996   4.865  14.392   4.266 -0.4021 -0.0020  0.0479
12813W        W28997   0.331  15.077  11.837  0.3347 -0.0483  0.3396
12814W        W28998   4.414  10.693   0.346 -0.2680 -0.0123  0.3354
12815W        W28999  11.591   4.902  11.629  0.0525 -0.1870 -0.1278
12816W        W29000  16.476  14.964   4.037  0.2853 -0.2824 -0.0647
12817W        W29001   8.426  12.903  12.853  0.1014  0.1413  0.0577
12818W        W29002  15.547  11.356   4.723  0.1825 -0.0932  0.2768
12819W        W29003  10.528  11.135   4.579  0.3303  0.0119  0.1120
12820W        W29004   5.156  15.494   0.146  0.0072  0.0694 -0.1206
12821W        W29005   1.291  17.266  14.558 -0.0318 -0.1240  0.4566
12822W        W29006   1.933  12.442  14.765  0.0322  0.2490  0.2980
12823W        W29007  14.225   5.141  16.321  0.0648 -0.0786  0.0385
12824W        W29008   7.580  12.639   4.628 -0.0196 -0.1426  0.1526
12825W        W29009   2.151  15.679  11.156 -0.1869  0.4152 -0.1524
12826W        W29010  10.568   2.271   2.202  0.1007 -0.0169  0.0779
12827W        W29011   1.250  15.866   0.412 -0.1431  0.1698 -0.1418
12828W        W29012  12.273  13.706   5.186 -0.0279 -0.0684  0.2173
12829W        W29013   3.298   3.011   1.132  0.1608 -0.0634  0.0895
12830W        W29014  12.640   6.948   0.589 -0.2641  0.0154  0.0331
12831W        W29015   5.319   5.707  11.118 -0.0580 -0.3072  0.1660
12832W        W29016   6.427   4.614   4.045 -0.0432  0.3317 -0.3401
12833W        W29017   3.486   2.742   5.070 -0.0310 -0.2125  0.1578
12834W        W29018  16.155   1.968  14.465 -0.0840  0.1040  0.2893
12835W        W29019   6.069  10.800  15.604  0.1956 -0.0360  0.1011
12836W        W29020   5.566   1.413  13.495 -0.0192  0.1953 -0.3252
12837W        W29021   2.905  12.751   5.146 -0.1475  0.5307 -0.2454
12838W        W29022   8.605   0.604   3.751 -0.0552 -0.0443  0.0217
12839W        W29023   4.740   7.484   0.435 -0.0670 -0.1669  0.0691
12840W        W29024  12.708   2.570  13.165 -0.1921 -0.0372  0.1205
12841W        W29025  12.325   9.608  16.543  0.1330  0.2807 -0.3732
12842W        W29026  13.851   2.501   1.403  0.0844  0.1650  0.1981
12843W        W29027   4.864  14.690   1.229  0.1508  0.2241 -0.4406
12844W        W29028  16.702  11.572  14.555 -0.0240  0.0355  0.0687
12845W        W29029  16.901   6.214  12.901 -0.2504  0.0504 -0.0941
12846W        W29030   2.625   1.775  14.193 -0.2119 -0.0733  0.2228
12847W        W29031   9.497  16.219  16.081 -0.0348  0.5344 -0.0300
12848W        W29032  16.964   7.114   2.628  0.0459  0.1467  0.0929
12849W        W29033  11.560  11.409  15.454  0.0952 -0.0262  0.1305
12850W        W29034   2.053  17.527  14.392 -0.2620 -0.0885  0.3144
12851W        W29035  10.888  11.728   4.808 -0.2750  0.1697 -0.1635
12852W        W29036   2.704   3.288   2.709  0.0547 -0.1450 -0.0979
12853W        W29037  17.821  12.625  11.969  0.0094 -0.3784  0.1171
12854W        W29038   6.512   5.870   2.829 -0.3085 -0.2336 -0.0299
12855W        W29039   3.876  11.934   3.822 -0.0110 -0.0219  0.2379
12856W        W29040   0.676  12.203   0.030  0.1388  0.2802  0.2444
12857W        W29041  11.745   7.559   5.412  0.1520  0.0650 -0.3087
12858W        W29042  10.451  13.697  15.962 -0.1768 -0.0696 -0.0181
12859W        W29043  15.816  13.564  15.100 -0.2775 -0.0771  0.3305
12860W        W29044  12.576  11.230  13.458  0.2918  0.0352 -0.1631
12861W        W29045  16.187   6.322   3.354 -0.0450 -0.2432 -0.0824
12862W        W29046   6.660   4.562  13.868  0.0557 -0.0048  0.1597
12863W        W29047   9.463  10.252   1.158  0.0215 -0.1629 -0.0363
12864W        W29048   8.559   3.981   4.318 -0.0220  0.0464  0.0015
12865W        W29049   9.609   2.090   2.215 -0.0272  0.0850  0.1064
12866W        W29050  14.432  14.767   6.075 -0.1779  0.0152 -0.0299
12867W        W29051   5.562  14.938  15.762 -0.0239  0.0502 -0.0598
12868W        W29052   8.068  17.883  15.865 -0.3038  0.1140 -0.0924
12869W        W29053   0.581  15.470   3.202  0.3537  0.0360  0.3055
12870W        W29054   8.714   6.715   4.374 -0.0883  0.0373  0.1018
12871W        W29055   2.155  12.257  12.414 -0.1683  0.2009 -0.0667
12872W        W29056  13.269   3.353  12.062  0.2017  0.1005 -0.1030
12873W        W29057   3.368   0.732  13.556  0.0457  0.4348 -0.0509
12874W        W29058  12.237   9.224  12.893  0.2392  0.0562 -0.0943
12875W        W29059   8.207  15.270  11.881 -0.1209 -0.1993 -0.2548
12876W        W29060   3.736   5.036   2.188  0.0276 -0.1975  0.2774
12877W        W29061   8.694   6.825  12.951  0.1730  0.0265  0.0152
12878W        W29062   1.814   2.274  12.606  0.3812 -0.2999 -0.3246
12879W        W29063   4.997   5.831  15.022  0.2212 -0.0795  0.0407
12880W        W29064   1.253  14.776   4.860  0.3282  0.0812 -0.0589
12881W        W29065   6.692  11.877   4.552  0.1274 -0.0395  0.0122
12882W        W29066   3.678  14.834  12.941  0.1977  0.3412  0.1985
12883W        W29067  15.758   2.209   3.019  0.2383 -0.1206 -0.1587
12884W        W29068   5.346   7.362   5.582 -0.1571  0.2320 -0.0337
12885W        W29069  13.410  17.746   4.004 -0.1788  0.2002 -0.3230
12886W        W29070  14.101  17.028  14.638 -0.0064  0.1701 -0.1842
12887W        W29071  13.482   9.218  13.238 -0.3296 -0.2959 -0.0529
12888W        W29072  16.375  13.790   5.431 -0.1208 -0.2874 -0.1280
12889W        W29073  12.286  16.410   1.612  0.1839  0.0314 -0.3707
12890W        W29074   1.975  16.252  11.896  0.0331  0.0038 -0.0149
12891W        W29075  11.316   8.657   3.012 -0.3126  0.0510  0.0582
12892W        W29076   0.398  17.057  13.146  0.0870 -0.1453  0.2132
12893W        W29077  11.697   0.587   5.072  0.1764  0.1805 -0.0499
12894W        W29078  10.908   5.924  13.604 -0.0022  0.2505  0.0734
12895W        W29079  14.553  13.199  11.536 -0.0991 -0.0439 -0.0217
12896W        W29080   8.420   2.390  11.641 -0.0027 -0.2111 -0.0657
12897W        W29081   1.229  13.944  12.501 -0.0808 -0.0394 -0.2155
12898W        W29082   2.246   7.979   1.190 -0.0764  0.0637 -0.0383
12899W        W29083   1.947   5.824   1.598 -0.0534  0.0224 -0.4311
12900W        W29084   6.986  10.875   5.427 -0.3142 -0.0841 -0.0709
12901W        W29085   8.240   3.933  13.103 -0.1033  0.0127 -0.1337
12902W        W29086  16.552  15.741  15.786  0.1828 -0.2075  0.0355
12903W        W29087   3.858   0.818   3.063 -0.0330 -0.1715  0.1483
12904W        W29088  12.835   4.286  12.582 -0.3233  0.2681 -0.1265
12905W        W29089   3.149   2.465  13.487  0.1777  0.0565  0.1624
12906W        W29090  11.224   8.798  12.603 -0.0470 -0.0535 -0.2113
12907W        W29091  14.261  15.669  13.351 -0.2926  0.2730 -0.0245
12908W        W29092   8.394  16.632  14.310 -0.0840  0.1133 -0.1326
12909W        W29093   4.084   8.705  14.309 -0.0813  0.1420  0.2360
12910W        W29094  16.811   5.029  15.347  0.0848  0.0372  0.2625
12911W        W29095  16.732   0.601   6.080  0.0707  0.1196 -0.0577
12912W        W29096  13.337   7.090  11.884  0.1991  0.1389  0.1400
12913W        W29097   3.283  15.023   4.344  0.0140  0.0647 -0.0816
12914W        W29098   8.933   5.738  15.345 -0.1719  0.2939 -0.0713
12915W        W29099  13.783   3.433   1.444  0.1923 -0.0663 -0.1751
12916W        W29100  15.509  17.742   5.383  0.0586  0.2838 -0.0202
12917W        W29101   3.867  12.185   0.331 -0.1350  0.3254  0.0125
12918W        W29102   8.934  17.438   1.765 -0.2126 -0.0436 -0.2796
12919W        W29103  10.466   9.452  12.292  0.2682  0.1980  0.1413
12920W        W29104  12.536   5.363  15.191  0.1889  0.1180 -0.1988
12921W        W29105   7.165   1.938   3.820  0.1103  0.0197 -0.3858
12922W        W29106   1.415   3.796  15.648  0.0920  0.2114  0.4184
12923W        W29107   4.983   7.764  14.877 -0.3996 -0.0529 -0.1197
12924W        W29108  16.862   8.700  12.584 -0.3489 -0.2346 -0.1505
12925W        W29109  13.732  10.067   1.844 -0.0683  0.3569 -0.2271
12926W        W29110   4.693  15.697  11.853 -0.1535  0.1067  0.2684
12927W        W29111   1.824   8.302  11.755 -0.0798 -0.0982  0.1764
12928W        W29112   4.976   4.155   4.432 -0.1722  0.2219 -0.1950
12929W        W29113   1.621   8.138   4.705  0.4235 -0.1469 -0.0902
12930W        W29114  17.711  17.156  16.111 -0.1283 -0.0856  0.0489
12931W        W29115   5.299  16.782   2.952 -0.0576  0.0486  0.1488
12932W        W29116  14.335  17.230  11.262  0.3067  0.1716  0.0094
12933W        W29117   3.689   7.368   1.226  0.0443  0.2511  0.1715
12934W        W29118   4.093   7.786  15.381 -0.4049  0.0551 -0.0833
12935W        W29119   9.837  12.527   2.469 -0.2399 -0.1024 -0.2059
12936W        W29120  11.147   8.211  14.153 -0.1594 -0.0307 -0.2915
12937W        W29121   9.458  10.273   2.093  0.1500 -0.0597  0.0278
12938W        W29122  11.198   6.496   5.150 -0.0984 -0.2874 -0.1605
12939W        W29123   3.002   3.317  13.739  0.0300  0.0478  0.0456
12940W        W29124  14.768   6.278   3.642  0.3260  0.4678 -0.0987
12941W        W29125   6.848   2.153  12.588  0.1259  0.2880 -0.4220
12942W        W29126  13.467  17.364  15.852  0.0736  0.0658 -0.0130
12943W        W29127  12.153  13.211   4.347 -0.1255  0.2948  0.0792
12944W        W29128  14.050   8.781   0.604 -0.1402  0.0249 -0.0800
12945W        W29129   7.164   0.122   0.951 -0.0970 -0.0095  0.0688
12946W        W29130   0.965  10.680   2.115 -0.0228 -0.2587  0.1184
12947W        W29131   0.134   9.614   4.606  0.0891 -0.0883 -0.1405
12948W        W29132   9.972   1.814   5.339 -0.1478 -0.1648 -0.1857
12949W        W29133   0.533  14.953  12.751 -0.0623  0.2447 -0.0721
12950W        W29134  13.950  14.702   1.837  0.0584  0.0692  0.2317
12951W        W29135   3.165   2.303   2.624 -0.0180 -0.1467  0.1174
12952W        W29136  15.811  16.114   4.511 -0.0628  0.0621  0.0891
12953W        W29137   9.371  16.577   0.591 -0.1487  0.1412 -0.1612
12954W        W29138  16.011  14.903   3.324  0.1565 -0.1440 -0.1169
12955W        W29139  14.847  16.239  11.974 -0.1495 -0.1218  0.0483
12956W        W29140   2.351   0.633   6.234  0.0960 -0.0554 -0.0546
12957W        W29141   8.805  11.365  14.440 -0.0980 -0.2644 -0.4018
12958W        W29142   3.908  11.296   4.440  0.2193 -0.3843  0.1939
12959W        W29143  13.687  12.842  13.581  0.2777 -0.0189  0.1274
12960W        W29144  15.952   2.286  11.695 -0.2364  0.3026  0.0217
12961W        W29145  17.848  11.871  16.623 -0.2112  0.2049 -0.2113
12962W        W29146   7.089   4.112  16.533  0.0229 -0.1816 -0.1701
12963W        W29147  12.425  12.869   2.638  0.4319 -0.5013  0.0107
12964W        W29148  13.821  13.043  11.504  0.1509 -0.0132  0.0352
12965W        W29149   7.988   8.914   6.090 -0.2148 -0.0323  0.1648
12966W        W29150  17.282  17.498  11.524  0.2847  0.3703 -0.0910
12967W        W29151   6.063   5.190  15.106  0.1595  0.0188 -0.0137
12968W        W29152  13.840  16.158   3.653 -0.0110  0.0532  0.1936
12969W        W29153   5.899   3.513  16.683 -0.0160  0.0213  0.1944
12970W        W29154   7.896  16.187   4.959  0.2526 -0.2784  0.3662
12971W        W29155  10.726  13.104  15.008 -0.0143  0.2644  0.0793
12972W        W29156  14.864  12.693  15.531 -0.1004 -0.1950 -0.0268
12973W        W29157  12.529   0.676   3.942 -0.2091  0.0803 -0.2601
12974W        W29158   5.780   9.759   5.088  0.0234  0.1418 -0.3013
12975W        W29159   1.237  15.302  11.749  0.0719  0.0092 -0.2843
12976W        W29160  12.049  14.445   0.070  0.1359 -0.0347 -0.1546
12977W        W29161   3.666  12.026   4.957  0.0782  0.1629  0.0967
12978W        W29162   8.681  16.274  12.670  0.3197  0.0922  0.1004
12979W        W29163   9.333   6.304   4.556 -0.3771  0.2706 -0.2949
12980W        W29164   9.131   6.266   1.458 -0.0539 -0.0830  0.0177
12981W        W29165  16.284  10.160   5.609 -0.0964  0.0121 -0.4529
12982W        W29166   4.008   2.601   4.951 -0.2280  0.0354  0.0310
12983W        W29167  16.566  15.757   3.906 -0.1790 -0.1537  0.1134
12984W        W29168   0.658   7.499  13.227 -0.1978 -0.2874 -0.2339
12985W        W29169  14.114  14.136   4.663  0.1670 -0.1263  0.0365
12986W        W29170  10.547   3.509   0.281 -0.0374  0.3065  0.0959
12987W        W29171   4.122  13.431  14.680 -0.1369 -0.1047 -0.0083
12988W        W29172   9.071  14.928  15.090 -0.0063  0.0898  0.2981
12989W        W29173  14.472  11.484   2.966  0.0167  0.2083  0.1298
12990W        W29174   2.382   5.497  14.998 -0.0842 -0.1148 -0.1549
12991W        W29175  11.547   1.537   5.334 -0.0126  0.4699  0.1572
12992W        W29176   1.164   3.503   3.644  0.2814 -0.1082  0.0359
12993W        W29177   5.733   3.535   4.306  0.1571 -0.0235 -0.3327
12994W        W29178  13.001   1.426  15.083  0.0727  0.3597  0.1089
12995W        W29179   8.987   6.752  13.487 -0.1007  0.0293 -0.0925
12996W        W29180   2.219  10.027  13.999 -0.1567 -0.0673 -0.0019
12997W        W29181  12.891   9.667   2.650 -0.0640  0.3006 -0.0756
12998W        W29182   4.921   7.369   2.208 -0.1347  0.1079 -0.1314
12999W        W29183   2.536  16.340  14.757 -0.1708 -0.0838  0.3128
13000W        W29184   2.197   1.986  11.940 -0.2707 -0.1320 -0.1464
13001W        W29185  14.648   5.440  14.910 -0.0803 -0.1459 -0.0674
13002W        W29186   4.833  12.163   6.011 -0.1540  0.0627 -0.0020
13003W        W29187  17.114   5.913   6.100  0.1568 -0.1662 -0.1572
13004W        W29188   8.685  16.584   5.928 -0.5026 -0.2341  0.4460
13005W        W29189   3.596   2.191   5.894  0.1883  0.2285  0.3553
13006W        W29190   6.158   5.917  15.693  0.1189  0.2412  0.2503
13007W        W29191  16.692   3.476   1.111  0.1433 -0.0047  0.3951
13008W        W29192   4.018  11.070  12.160 -0.1526 -0.4328 -0.1402
13009W        W29193  11.400   2.332   1.660  0.0364 -0.4040  0.0729
13010W        W29194   7.713   1.962  13.889  0.1461 -0.0433 -0.1393
13011W        W29195  15.029   1.418  13.476 -0.1558 -0.0886  0.1614
13012W        W29196   0.361   1.380   0.695  0.0728 -0.1113 -0.1572
13013W        W29197  17.361   8.949   6.085  0.1149  0.0824  0.0149
13014W        W29198   2.930   6.340   6.242 -0.0632 -0.2380 -0.0188
13015W        W29199   2.825   8.310   3.045 -0.1424  0.2423 -0.1770
13016W        W29200  14.515   7.895  13.553  0.0955 -0.2749  0.0270
13017W        W29201   5.690   0.410   2.212 -0.2118 -0.0609 -0.0092
13018W        W29202  15.829  10.426   3.295  0.0807 -0.1051 -0.1315
13019W        W29203  11.343   3.644   3.003  0.0425 -0.1873  0.0572
13020W        W29204   9.639  16.729   3.122 -0.0689 -0.3245 -0.1249
13021W        W29205  13.848   9.918   5.368 -0.1067 -0.0388  0.2274
13022W        W29206   9.751   4.769  15.253  0.1943 -0.1987 -0.0802
13023W        W29207   3.001   5.211  14.849 -0.0715 -0.0963 -0.3173
13024W        W29208  14.453  10.401  14.820 -0.0875  0.2605 -0.1122
13025W        W29209  10.118  14.138   5.393  0.3596  0.0718  0.0157
13026W        W29210   1.337   9.322  15.534 -0.0262 -0.2700  0.1751
13027W        W29211   8.912   6.861  15.229 -0.0296 -0.1563  0.0392
13028W        W29212  15.606   3.347   2.578  0.1891  0.0815  0.1215
13029W        W29213   7.909  14.735  11.406 -0.0764 -0.0376 -0.3682
13030W        W29214  17.436   3.203  14.938 -0.1061  0.2348  0.0059
13031W        W29215  11.155  10.673   1.518 -0.0533 -0.0447  0.3204
13032W        W29216   6.996  14.871   3.572  0.0196  0.0847  0.0435
13033W        W29217   4.800  12.100   0.102 -0.0840  0.2622 -0.0364
13034W        W29218   2.351   3.707  15.341  0.1782  0.1560  0.1148
13035W        W29219   2.002  17.676   1.010 -0.4457 -0.1249  0.1680
13036W        W29220   9.254   1.621   4.126  0.1993 -0.0019 -0.0931
13037W        W29221   4.127  17.979  16.011 -0.0395  0.0107  0.3106
13038W        W29222   0.169  16.114  11.852 -0.2107  0.2679 -0.1358
13039W        W29223  16.340   0.294  16.574 -0.0924 -0.2078 -0.1159
13040W        W29224   3.723  17.874  11.785 -0.1794 -0.3636  0.0754
13041W        W29225  15.707  11.006  14.432  0.0011 -0.2228  0.1861
13042W        W29226  14.402   5.824   0.880 -0.1484 -0.0119 -0.0695
13043W        W29227  15.025  10.215  16.334  0.3985  0.0875 -0.1720
13044W        W29228  10.731   8.655  15.305  0.1976 -0.3581  0.0809
13045W        W29229  10.064   0.645  11.764  0.2013  0.1329 -0.0249
13046W        W29230   3.430   1.242   4.199  0.2732  0.3088 -0.1097
13047W        W29231  12.220   1.395  16.231 -0.3053 -0.0343  0.1268
13048W        W29232  14.808   1.371  15.398 -0.0461  0.4619  0.2034
13049W        W29233   3.223   3.604  16.294 -0.0921  0.1580  0.3309
13050W        W29234  12.407   9.062   0.056 -0.1488 -0.1518  0.2174
13051W        W29235  11.983  14.853  10.957 -0.3432 -0.1365 -0.2448
13052W        W29236   1.921   7.366   1.682 -0.1717 -0.1838 -0.2180
13053W        W29237  12.738  14.051  11.804 -0.1260  0.1548 -0.0826
13054W        W29238   5.337  13.933  13.765  0.3025 -0.1040 -0.0615
13055W        W29239  16.492   1.880   2.638  0.0886 -0.1807 -0.1030
13056W        W29240   5.049   5.024   3.651 -0.2595  0.1466  0.0109
13057W        W29241   6.829   1.942   2.127  0.0449  0.2807 -0.1132
13058W        W29242  16.987   2.027  15.723  0.4796 -0.0096 -0.1644
13059W        W29243   8.370   8.131  12.255 -0.1396 -0.0946 -0.0550
13060W        W29244   9.137   2.223  13.976 -0.1770 -0.0426  0.3186
13061W        W29245  17.907   8.812   5.896 -0.3721 -0.3499 -0.2227
13062W        W29246  12.687   4.608   0.230 -0.1452  0.2977 -0.2489
13063W        W29247  16.630  15.115   2.067 -0.1793 -0.1113 -0.0224
13064W        W29248   2.351   3.784   0.528 -0.2449 -0.0962  0.0743
13065W        W29249   6.351   1.144  15.196 -0.1647 -0.0386 -0.1831
13066W        W29250   0.983  15.405  11.344 -0.0892  0.1156  0.1277
13067W        W29251   9.767   9.668   0.052  0.0711  0.1824 -0.0133
13068W        W29252  14.583  14.652  14.671 -0.0805  0.3239 -0.5086
13069W        W29253  14.885  16.122   1.884  0.2890  0.1625  0.0032
13070W        W29254  17.824   1.096   0.794 -0.0577 -0.0754  0.4551
13071W        W29255  12.143   3.031   4.439 -0.0073  0.0813 -0.0774
13072W        W29256   8.700  16.030  14.134  0.2634  0.3151  0.1798
13073W        W29257  16.137  11.232  14.478 -0.1125 -0.3094  0.0452
13074W        W29258  17.738   6.476  14.683 -0.0066  0.2305 -0.1246
13075W        W29259   7.107   0.806  12.928  0.0266  0.0940  0.3496
13076W        W29260   1.305   6.772   5.587 -0.0007  0.3394  0.1100
13077W        W29261  13.872  11.418  13.607 -0.0094 -0.1378 -0.0912
13078W        W29262   7.357   1.471   1.000 -0.0712  0.1604  0.1587
13079W        W29263  13.313   4.087  10.493 -0.1871 -0.1071 -0.0156
13080W        W29264  16.987  11.213  14.276 -0.1024  0.1546  0.2034
13081W        W29265   3.240   1.462  13.653  0.1861  0.2042 -0.0191
13082W        W29266  13.771  11.760   0.648  0.0647  0.2272 -0.4342
13083W        W29267  15.676   2.057   0.204 -0.1497 -0.1211 -0.0470
13084W        W29268   1.633   9.627   4.786 -0.1464 -0.2944  0.0267
13085W        W29269   1.194  14.709   0.686  0.0030 -0.2370 -0.3380
13086W        W29270   5.680  15.115   1.054 -0.0762  0.1267 -0.2380
13087W        W29271   0.205  17.134   1.784 -0.0837 -0.0405  0.0369
13088W        W29272  11.618   0.519  11.620 -0.0088 -0.1161  0.0655
13089W        W29273   1.672   2.902  15.020 -0.0256  0.3121 -0.0066
13090W        W29274   7.668  12.731   0.084 -0.0474  0.4743  0.2516
13091W        W29275  11.139   9.634   1.211 -0.0827 -0.1377 -0.2281
13092W        W29276  12.905   0.233   2.788  0.0189 -0.0250 -0.0184
13093W        W29277  13.134   1.470   3.179 -0.1002 -0.0342 -0.2463
13094W        W29278  16.931  10.202   5.020 -0.3122 -0.0222 -0.2048
13095W        W29279   6.500   5.889  12.099 -0.1785  0.1379 -0.0149
13096W        W29280   9.136  17.556  12.922  0.4123 -0.1840 -0.3416
13097W        W29281   9.124  15.112   1.292  0.1155 -0.1961  0.0671
13098W        W29282   0.088  15.471  15.279 -0.0785 -0.1942 -0.2174
13099W        W29283  15.151   4.833  13.409  0.0793 -0.2954 -0.2128
13100W        W29284   0.858   9.160  15.627  0.1091 -0.1337 -0.0569
13101W        W29285  17.643   9.946  16.002  0.1143 -0.1746  0.0858
13102W        W29286  16.302   9.135  14.048 -0.1373 -0.0706  0.0690
13103W        W29287  15.448  11.188  16.575 -0.4478  0.1052  0.2663
13104W        W29288  13.818   2.794   4.255 -0.0364  0.0954 -0.0722
13105W        W29289   9.792   1.146  16.266 -0.0933 -0.1012 -0.0914
13106W        W29290  14.361   4.634   1.058  0.0485 -0.0140 -0.1216
13107W        W29291  15.501  14.172  16.522  0.1435  0.4378 -0.1730
13108W        W29292   5.587  15.065  13.852  0.2588 -0.1054 -0.3172
13109W        W29293   9.452  12.482   0.154  0.1100 -0.1267  0.1625
13110W        W29294  10.965  14.205   3.829  0.0370  0.0091 -0.2711
13111W        W29295   0.427   6.212  15.473  0.2367  0.1125  0.0494
13112W        W29296   1.726   8.546   3.122  0.0518 -0.1350 -0.2997
13113W        W29297   9.433  13.751   0.784  0.1103  0.1495  0.0353
13114W        W29298  13.403   6.041   4.537 -0.1195 -0.0167 -0.1372
13115W        W29299   2.301   3.862  13.123 -0.0398 -0.3875 -0.0072
13116W        W29300  17.189   9.426   4.680 -0.0896  0.1110  0.2346
13117W        W29301  17.709   5.255   1.723 -0.0122 -0.3481 -0.1950
13118W        W29302  17.037  17.700  14.405  0.0883  0.5651  0.0440
13119W        W29303  12.350  13.204   1.661  0.2270  0.0525  0.0751
13120W        W29304   5.839   4.198   3.495  0.4645  0.2576  0.3518
13121W        W29305  14.321  17.027   5.420 -0.0142  0.3011  0.1780
13122W        W29306   8.222   5.994   3.278 -0.1469  0.2568  0.2399
13123W        W29307   3.657   4.724   3.710 -0.2248  0.0543  0.1993
13124W        W29308  10.206  11.782   4.128 -0.0283 -0.0539  0.0889
13125W        W29309  15.185   5.269   1.054  0.2534  0.2039  0.3775
13126W        W29310  15.937   8.752  14.060 -0.0476 -0.2116 -0.1731
13127W        W29311  10.213  17.185  13.886 -0.2188 -0.5092 -0.0848
13128W        W29312   9.035   9.034  12.878  0.1538  0.1344  0.2600
13129W        W29313  17.024  11.653  10.921 -0.2093  0.1277  0.3244
13130W        W29314  13.679  12.822   0.635 -0.0068 -0.3405  0.0583
13131W        W29315  11.915  10.205   2.740  0.0882 -0.0275 -0.0567
13132W        W29316  13.938   6.490   4.020 -0.1309  0.3320 -0.0461
13133W        W29317  10.933   8.382  12.848  0.2535  0.1978  0.1164
13134W        W29318  17.950  15.314  14.850  0.1202 -0.1011 -0.1077
13135W        W29319   3.418   9.783  12.003  0.0303  0.0032 -0.0776
13136W        W29320   3.659  17.104  13.199 -0.0530  0.0214 -0.3657
13137W        W29321  12.862   5.709  11.655  0.1560  0.1750  0.2119
13138W        W29322   4.141   9.746  13.032  0.1583 -0.4376 -0.1035
13139W        W29323  11.219  12.169  16.007 -0.2533  0.0246  0.2408
13140W        W29324   0.017   3.550   2.415 -0.0831  0.0243 -0.0403
13141W        W29325  10.569   0.265   3.634 -0.2725 -0.2063  0.3152
13142W        W29326   3.208   3.510  14.929  0.2800  0.0879 -0.2025
13143W        W29327  17.690  16.507  12.762 -0.0051 -0.1676  0.3776
13144W        W29328  10.592   4.016   0.260 -0.1826  0.0081 -0.0771
13145W        W29329   8.660  17.352  14.548 -0.0583  0.0174  0.1432
13146W        W29330  10.287   6.596  12.081 -0.0842 -0.1190 -0.3501
13147W        W29331  16.085   8.199  12.842  0.1289  0.0918  0.1106
13148W        W29332  12.228  15.823  14.648 -0.0590 -0.1537  0.1454
13149W        W29333   2.041  16.933  13.336 -0.0476 -0.1122 -0.0763
13150W        W29334   6.887   8.585   5.420  0.0473  0.0351  0.0646
13151W        W29335  15.980   5.953  12.488  0.1089 -0.0082  0.0618
13152W        W29336   6.127   3.892  16.420 -0.1867 -0.3928 -0.2188
13153W        W29337   5.415  13.206   0.660 -0.0189  0.0586 -0.1296
13154W        W29338  17.996  17.458  15.480  0.0281  0.0138 -0.0032
13155W        W29339  11.723   7.943  16.667  0.0809  0.2686  0.1092
13156W        W29340   8.248   1.850  15.973 -0.1714  0.1240  0.1005
13157W        W29341  14.696  16.070  15.964 -0.0290 -0.0323 -0.1356
13158W        W29342   9.931   0.176  13.240  0.1065  0.0006  0.3132
13159W        W29343   8.907   6.716   1.669 -0.1090  0.2142  0.4870
13160W        W29344  14.647  16.618   3.238  0.2521  0.1034  0.1487
13161W        W29345   3.320   9.071   3.691  0.0397 -0.1315  0.1275
13162W        W29346   1.248   3.709  11.848 -0.3816 -0.1047  0.4280
13163W        W29347   2.493  11.614  13.264 -0.4187 -0.2119  0.1875
13164W        W29348   9.506   8.592   1.009 -0.0062  0.2163  0.1801
13165W        W29349  17.902  12.031   0.424 -0.1108  0.3312  0.1974
13166W        W29350   1.226   3.277  13.987  0.1177  0.3127 -0.2435
13167W        W29351  11.868   4.404  13.923  0.2729 -0.0039 -0.1517
13168W        W29352   8.838  14.651   2.286  0.0059 -0.0182  0.2846
13169W        W29353  14.993  13.923   2.099 -0.5557  0.0578 -0.0519
13170W        W29354   1.874  14.414  11.808  0.2562  0.1440  0.3707
13171W        W29355   9.044   6.114  10.768  0.2597  0.2259 -0.2095
13172W        W29356  15.394  16.446   3.758  0.0304  0.1858 -0.1105
13173W        W29357  14.298  13.601   1.930  0.3200  0.4006  0.0713
13174W        W29358   4.859   8.964   4.463  0.2494  0.1716 -0.0733
13175W        W29359   0.518   7.747  14.819  0.0827  0.2069  0.2135
13176W        W29360   8.834   1.144   1.452  0.2406  0.0765  0.0596
13177W        W29361  17.268   9.510   3.214  0.0014  0.1975 -0.0845
13178W        W29362  15.796   4.706   4.109 -0.1203  0.3463  0.1328
13179W        W29363   7.775   8.769   5.020 -0.1349  0.0314  0.2110
13180W        W29364   0.328  11.904  13.927  0.1101  0.0597  0.0121
13181W        W29365   8.406   0.642  12.842 -0.1014 -0.2941 -0.3368
13182W        W29366   4.969   2.396   0.301 -0.0104 -0.2084  0.2872
13183W        W29367   0.182   5.926  14.126  0.0731  0.1738 -0.1951
13184W        W29368   2.613   7.527   1.251  0.1438  0.4437 -0.2322
13185W        W29369   5.117  15.871   2.786  0.0125 -0.2091 -0.0516
13186W        W29370   4.561   9.582  16.155  0.3424 -0.1515 -0.1012
13187W        W29371   7.267   6.660   0.928 -0.1524  0.0312 -0.2176
13188W        W29372  10.508  15.636   0.661  0.0226  0.2044 -0.0563
13189W        W29373  10.950  14.534  16.630 -0.1080  0.1118 -0.0092
13190W        W29374   7.540  12.213   2.748  0.2065  0.0180  0.3459
13191W        W29375   8.247  14.774  14.350 -0.2188 -0.0485 -0.1929
13192W        W29376  10.244   9.272   1.077  0.0692 -0.0849 -0.1323
13193W        W29377   7.101  16.259  16.209 -0.2664  0.1486  0.0627
13194W        W29378  13.060   1.584  16.513  0.0394  0.0739  0.0768
13195W        W29379  15.175   6.566   1.312 -0.5352 -0.0542 -0.1067
13196W        W29380   4.647  14.233   0.211  0.0846  0.2022 -0.1545
13197W        W29381   0.771   8.840  15.306  0.0869  0.1586  0.1263
13198W        W29382   4.579  16.994  16.452 -0.1192  0.1387 -0.0208
13199W        W29383  12.577   5.599  13.638  0.1361 -0.2417  0.0004
13200W        W29384   6.711   7.550   0.927 -0.1159  0.0797 -0.0223
13201W        W29385  11.749   5.900  15.181  0.3212 -0.0706  0.0032
13202W        W29386   5.523  11.884   0.777  0.2166  0.1113 -0.0253
13203W        W29387  10.690  13.713  11.567 -0.1016 -0.0330  0.0559
13204W        W29388  15.562   3.034  14.751 -0.0106  0.2429 -0.1458
13205W        W29389   3.722   6.556  14.102  0.0573  0.2986  0.3721
13206W        W29390  12.877   5.208   5.519  0.1932 -0.0980  0.0708
13207W        W29391   5.055   7.787   2.496  0.2376  0.0162 -0.0894
13208W        W29392   3.291  10.939   0.517 -0.0190  0.1342 -0.1467
13209W        W29393  12.306   0.678   2.219  0.0358  0.3518 -0.3988
13210W        W29394  10.154   4.808   2.735  0.3275  0.1446  0.2382
13211W        W29395   7.744   6.185   0.682  0.0187  0.2887 -0.0419
13212W        W29396  14.261   5.927  12.432 -0.2587  0.2393  0.1260
13213W        W29397  16.479   8.098  14.468 -0.0622  0.3045 -0.1987
13214W        W29398   9.927   6.696  12.430 -0.0726  0.1570  0.0512
13215W        W29399  16.024   2.821  15.069 -0.0162 -0.0610  0.3559
13216W        W29400   4.734   6.027   2.221 -0.0814  0.1659  0.0636
13217W        W29401   0.590   8.814   3.713  0.0890  0.1592 -0.0997
13218W        W29402  13.636   7.440   1.880  0.0358  0.1339  0.0173
13219W        W29403   8.865   8.441   2.587  0.0093  0.2377 -0.2215
13220W        W29404  12.692   9.368   4.539  0.0527 -0.0350 -0.1560
13221W        W29405   0.038   4.577  15.971 -0.0493 -0.2405  0.2799
13222W        W29406  12.642   1.331   0.857  0.0536 -0.0776 -0.1503
13223W        W29407  11.332   8.295  16.542 -0.0430  0.1949  0.1040
13224W        W29408   2.423  15.084   0.507 -0.0917 -0.3500 -0.0573
13225W        W29409   3.382   8.239   0.518 -0.0287 -0.1604 -0.0956
13226W        W29410  11.078   4.216  14.179  0.0560  0.1862 -0.2064
13227W        W29411  10.305  14.042   0.588 -0.1228 -0.1333 -0.2350
13228W        W29412   4.490  13.819   5.360  0.0303 -0.1063 -0.0441
13229W        W29413   5.359   8.318   2.737  0.0534  0.0569 -0.0706
13230W        W29414   2.459  11.637  14.623  0.0051 -0.1079 -0.0668
13231W        W29415   5.099  12.179   3.750  0.1548 -0.1787  0.0030
13232W        W29416   3.699   6.817   1.191 -0.1131 -0.2168  0.0955
13233W        W29417   1.181   5.821   5.341  0.0519 -0.1486 -0.2838
13234W        W29418  12.235  16.826  15.389 -0.1598 -0.0543  0.0257
13235W        W29419  10.678   1.691   2.839 -0.0592 -0.0820 -0.0376
13236W        W29420  11.866   6.182  16.077  0.0795 -0.1737  0.3139
13237W        W29421  12.026   1.421   5.397  0.4843  0.2450  0.1781
13238W        W29422   4.296  16.232  15.623  0.4029  0.0192  0.0901
13239W        W29423  16.701   0.675   0.295 -0.2504  0.2460 -0.0710
13240W        W29424  10.492   1.166   0.762 -0.3109  0.1330  0.0737
13241W        W29425  16.571   9.345   1.547 -0.0724  0.1925  0.0669
13242W        W29426   3.642   6.997  14.882 -0.3294 -0.0179  0.1208
13243W        W29427  16.346  10.303   4.095 -0.0754 -0.2551  0.0476
13244W        W29428   2.172   3.840   6.241 -0.1361 -0.1018 -0.0033
13245W        W29429  15.384   0.345   4.121  0.0988 -0.0370  0.2930
13246W        W29430  15.940  10.155  13.286  0.1131  0.3480  0.0542
13247W        W29431   2.389  11.092  15.087  0.0757 -0.0993  0.1824
13248W        W29432  11.046  10.770   5.302 -0.1351 -0.1819 -0.0216
13249W        W29433   5.363   1.581  11.675  0.0040  0.0339  0.0437
13250W        W29434  11.684  17.151  14.207 -0.0200  0.2581 -0.0125
13251W        W29435   9.944   4.123   4.450 -0.1426 -0.0618  0.0403
13252W        W29436  15.488  11.776  15.779  0.2033 -0.0974  0.2109
13253W        W29437   1.527  15.891   3.555  0.2509  0.1538 -0.0452
13254W        W29438   4.217   7.998   3.749  0.0467  0.2287 -0.0398
13255W        W29439  11.704   6.706   3.414  0.4338  0.2855  0.1861
13256W        W29440   0.975   5.695  15.277 -0.3360  0.0352 -0.1092
13257W        W29441  15.201  10.415   0.934  0.1427 -0.0815  0.1325
13258W        W29442   8.665  15.199  12.621  0.1239 -0.2687  0.0467
13259W        W29443  10.568   0.381   5.738  0.0137 -0.1164 -0.1338
13260W        W29444  17.294  11.813   5.235 -0.4315 -0.0351  0.1746
13261W        W29445   0.736   4.287  13.846 -0.0737 -0.1843  0.0660
13262W        W29446   0.260   1.417   3.887  0.2649  0.1394  0.1498
13263W        W29447   3.789   0.954  11.641  0.0508 -0.4016  0.0747
13264W        W29448   3.474   1.495   0.607  0.0737 -0.1630 -0.4276
13265W        W29449   7.776   2.853   4.974  0.0842 -0.0715  0.1960
13266W        W29450  11.585  14.634  11.663  0.0217  0.1487 -0.2421
13267W        W29451   2.066  17.848  13.577  0.1904  0.1167  0.0304
13268W        W29452  17.915  14.337  14.650 -0.0195 -0.0396  0.1274
13269W        W29453  14.145   5.429  12.506 -0.0327 -0.2091 -0.0036
13270W        W29454   6.506   0.037   3.463 -0.1783 -0.2397  0.1562
13271W        W29455   2.599  16.360   6.090  0.1147 -0.1129  0.0867
13272W        W29456   6.385   7.188  12.023 -0.1476  0.0272  0.0678
13273W        W29457   1.214   4.757  13.074 -0.0148 -0.1591  0.2694
13274W        W29458   8.203   7.738   4.873 -0.0484  0.0630  0.1331
13275W        W29459   1.539   4.532  11.797  0.1483  0.2177  0.0597
13276W        W29460   7.755  10.042   2.603  0.0838 -0.0278  0.3299
13277W        W29461   8.338  13.638  15.961  0.1168 -0.0664 -0.0806
13278W        W29462   5.677  10.953   3.878  0.1921  0.1577 -0.1878
13279W        W29463  15.576  15.304  12.223 -0.1579 -0.0290 -0.4173
13280W        W29464  14.409  16.013  11.356  0.1392 -0.2624 -0.1294
13281W        W29465   9.228   2.334  15.127 -0.0510 -0.1753  0.0093
13282W        W29466   8.270   2.836  15.198  0.0979  0.0091  0.1516
13283W        W29467  10.410  17.358  11.437 -0.2726  0.2244  0.2694
13284W        W29468  14.845   5.495   0.079  0.0468 -0.1563  0.1270
13285W        W29469  10.478  10.508  15.827 -0.0201  0.1872  0.0237
13286W        W29470  13.194   9.566   4.224 -0.0835  0.2641 -0.1731
13287W        W29471   1.434  15.974  12.466  0.1531  0.2909 -0.0330
13288W        W29472   7.650   6.784   3.176 -0.1342 -0.0058  0.0891
13289W        W29473   2.469   7.603   3.580  0.0129  0.0856 -0.1054
13290W        W29474   2.097   0.630   4.949 -0.0459 -0.0656 -0.4070
13291W        W29475   3.476  13.204  11.631  0.2285 -0.1057  0.1110
13292W        W29476   4.045  15.609   4.812 -0.3437 -0.2565  0.0175
13293W        W29477   6.901  16.360   2.617  0.2191  0.2137  0.0589
13294W        W29478   7.465   1.705  15.935 -0.0256  0.0412 -0.0369
13295W        W29479   0.724  15.205  16.656 -0.0032 -0.0338 -0.1498
13296W        W29480  10.177   2.093   2.979 -0.0826 -0.2825  0.0742
13297W        W29481   7.125   3.278  15.708  0.6388  0.2136  0.0357
13298W        W29482  10.530   2.954  13.842  0.1911 -0.1691  0.4843
13299W        W29483   9.349  11.296  14.409 -0.1238  0.0160  0.1979
13300W        W29484  14.406   1.833  14.627  0.2533  0.0652 -0.0061
13301W        W29485   5.138   4.784  12.184 -0.0193  0.0411  0.2926
13302W        W29486  13.047   8.489   3.466 -0.0145  0.4736  0.1095
13303W        W29487  15.641  17.896   4.652 -0.0073 -0.2526 -0.3969
13304W        W29488  12.171  15.172   1.444 -0.0457  0.1336 -0.1235
13305W        W29489  17.472  17.764  10.770 -0.0412  0.0720 -0.1266
13306W        W29490   2.209   6.619   5.498 -0.0886 -0.2700 -0.4474
13307W        W29491   6.601  12.367   4.780  0.0809 -0.0329  0.0950
13308W        W29492   1.008   3.252   0.290 -0.3816 -0.3322 -0.0602
13309W        W29493  11.220  16.787   1.736 -0.0528 -0.4037 -0.0618
13310W        W29494  12.249  10.679  14.514 -0.0222 -0.2399  0.2375
13311W        W29495   0.404   7.995  13.360 -0.1098 -0.2465 -0.2545
13312W        W29496  10.589  15.007  11.916  0.0873 -0.1584 -0.0981
13313W        W29497  12.752   1.355   2.771  0.1600 -0.3821  0.1370
13314W        W29498   1.155  15.820  13.222 -0.0494 -0.0278  0.1754
13315W        W29499   5.950  10.505   3.743  0.1765  0.0284  0.0213
13316W        W29500   7.189   4.597  11.810 -0.0828  0.0591  0.1302
13317W        W29501  16.280   1.288   3.567 -0.1384  0.2168 -0.1477
13318W        W29502   2.653   5.531  12.927  0.0494  0.1334 -0.1802
13319W        W29503   3.698  16.199   3.547  0.0168  0.0187 -0.2748
13320W        W29504  15.985  17.077  14.638 -0.1581  0.1101 -0.0126
13321W        W29505   7.022   3.688   2.555  0.3124  0.3512 -0.3216
13322W        W29506  11.224  13.522  11.553  0.2386 -0.1579 -0.0801
13323W        W29507   1.048   3.330   4.997  0.0703 -0.0836  0.0844
13324W        W29508   8.878  12.620  16.699 -0.1569  0.0030 -0.0432
13325W        W29509  15.000   1.527  15.837 -0.1431 -0.1410  0.2532
13326W        W29510   4.545  15.067  14.381 -0.0450  0.0214  0.0747
13327W        W29511  12.733   1.862   1.801 -0.1095  0.2525 -0.1444
13328W        W29512  17.761   7.420  11.926 -0.1006  0.2123 -0.1185
13329W        W29513   2.795  15.381   0.858  0.2043  0.1382 -0.1776
13330W        W29514   4.213  10.975   4.266 -0.1341 -0.0707  0.3355
13331W        W29515   9.851   0.124   0.450  0.0127 -0.2735 -0.0008
13332W        W29516   8.105  15.262   2.862 -0.1016 -0.0183 -0.0604
13333W        W29517  11.844  13.281  12.150 -0.2877  0.1564 -0.2056
13334W        W29518   2.424  10.762   4.711  0.0209  0.1827  0.2219
13335W        W29519  17.231   6.704   3.302 -0.0123 -0.2166 -0.1135
13336W        W29520   5.966  10.467  15.054  0.0046  0.1019 -0.2680
13337W        W29521   1.814   4.922   0.426 -0.1881  0.1352  0.3365
13338W        W29522  17.671   2.045  12.217 -0.1905  0.3683 -0.1658
13339W        W29523   7.308  13.342  16.219 -0.0698  0.2498  0.5080
13340W        W29524  10.298   9.921  11.960  0.0177 -0.1776 -0.3177
13341W        W29525  10.546  11.597   4.457 -0.0314 -0.3913  0.0267
13342W        W29526   7.426   3.781  16.367  0.2295 -0.0622 -0.0077
13343W        W29527   9.678  14.756   2.245 -0.1168 -0.1429 -0.0879
13344W        W29528  16.054   9.082   2.833  0.1761  0.2239 -0.0315
13345W        W29529   9.138  14.321  13.190 -0.0006 -0.1775 -0.2612
13346W        W29530   1.286  16.524   0.996 -0.3519 -0.1559  0.0393
13347W        W29531   2.730   7.377   2.854  0.0101 -0.2876  0.2343
13348W        W29532  11.685  11.544  16.446  0.1032 -0.4248  0.3177
13349W        W29533   2.489  17.457  12.295  0.0819 -0.0637 -0.0321
13350W        W29534  11.077   4.771   5.639  0.1529 -0.0474 -0.2903
13351W        W29535  16.778  10.528   3.970  0.1340 -0.0089  0.3243
13352W        W29536  13.913  17.602  13.193 -0.0486 -0.2536 -0.0609
13353W        W29537  13.085   6.384  14.802 -0.0242 -0.0417  0.0352
13354W        W29538   5.011  17.471  16.332  0.0292  0.0591 -0.0489
13355W        W29539  16.127  11.674   1.991  0.0151 -0.2745  0.0824
13356W        W29540   5.979   6.870  12.938 -0.0732  0.2034  0.1738
13357W        W29541   4.921   0.851  14.784 -0.1274 -0.2356 -0.0738
13358W        W29542   5.199  14.219  12.279 -0.0427 -0.0397 -0.0921
13359W        W29543  14.749  11.950   1.633 -0.0817  0.1966 -0.1634
13360W        W29544  12.195   8.248  14.126 -0.0997  0.2729 -0.3214
13361W        W29545  15.550  15.303   5.605 -0.1738  0.0967 -0.0288
13362W        W29546   3.986   1.117   1.498  0.0818 -0.1654  0.2519
13363W        W29547  16.070   9.839  12.830  0.0969  0.1305 -0.1181
13364W        W29548  10.855   6.560  13.200 -0.1633  0.0538  0.1940
13365W        W29549  16.149  10.159   3.603 -0.3171 -0.0457  0.1993
13366W        W29550   5.088  10.360  12.587  0.4636 -0.1823 -0.0660
13367W        W29551  17.259   7.777   4.133 -0.1551 -0.1274 -0.4551
13368W        W29552   7.853  15.723  12.503  0.0457  0.0393 -0.1861
13369W        W29553  10.202  17.070  12.369  0.1052 -0.2541 -0.0609
13370W        W29554  17.056  15.584  13.899 -0.2198 -0.3312 -0.0709
13371W        W29555   4.310   2.596   1.340 -0.2429 -0.3491  0.2241
13372W        W29556   2.164  14.350   4.150  0.0407  0.1107  0.1685
13373W        W29557   4.106   5.071   4.823 -0.0681 -0.0295  0.1564
13374W        W29558   4.445  16.475   2.986  0.1301  0.2055 -0.2351
13375W        W29559   7.405   2.263  12.373 -0.2869 -0.0738 -0.0109
13376W        W29560  11.532  16.216  16.464 -0.2558 -0.0478 -0.2904
13377W        W29561  17.989  12.207  16.226 -0.0749 -0.3137  0.1651
13378W        W29562   6.611  10.607   5.994 -0.2250  0.0235 -0.1881
13379W        W29563   8.046  12.308   0.084  0.2160 -0.1622 -0.0426
13380W        W29564  10.948  16.665   4.989  0.1155 -0.1713 -0.2273
13381W        W29565   1.120   3.444   2.926  0.1676  0.1283 -0.0888
13382W        W29566  14.034   4.780  14.239  0.0691 -0.3260  0.0328
13383W        W29567   0.055  14.787  11.511  0.0225  0.3326  0.0073
13384W        W29568  11.969  11.644   0.761 -0.1185 -0.0927 -0.3598
13385W        W29569  13.157  15.975   2.583 -0.2595 -0.0417  0.2102
13386W        W29570   1.092   6.387   0.738 -0.0060 -0.3205  0.2236
13387W        W29571  17.984   7.858  13.214  0.0102  0.2086  0.0667
13388W        W29572   9.554   3.369  14.181 -0.2901  0.0561  0.2296
13389W        W29573   9.699  17.725  15.878 -0.2088  0.1082  0.2869
13390W        W29574   0.857   8.998  12.127 -0.3926  0.0406 -0.2888
13391W        W29575  10.818  11.125   0.870  0.2410  0.2005  0.0191
13392W        W29576  14.533   6.539  11.943 -0.2486  0.4726 -0.3557
13393W        W29577   0.771   5.593   2.864  0.0235 -0.0996 -0.3124
13394W        W29578   5.055  12.094   1.946  0.4135  0.4662  0.1252
13395W        W29579  15.696  15.240  11.108  0.0397  0.1458  0.1868
13396W        W29580   3.638  15.840  12.609  0.3529  0.1280 -0.0888
13397W        W29581   6.300   7.903  14.580  0.3841 -0.1708 -0.0432
13398W        W29582   7.404   5.970   2.911  0.0253 -0.0597  0.0501
13399W        W29583   1.249  17.356   4.242 -0.2672 -0.0915  0.1600
13400W        W29584   9.083   7.985   2.427  0.0344  0.2850 -0.0427
13401W        W29585  12.047   1.923   2.782  0.3526 -0.2681  0.0173
13402W        W29586  12.538  16.893   2.290  0.1379  0.0318 -0.0354
13403W        W29587   3.938   0.443  14.796 -0.2565  0.0921  0.0540
13404W        W29588   9.769   1.019   4.073 -0.1953 -0.2242 -0.1814
13405W        W29589  11.546  17.552   4.119 -0.1923 -0.1830  0.1795
13406W        W29590   9.339  17.366  12.111 -0.1998  0.4382  0.0881
13407W        W29591   6.626  16.537  15.643  0.2183 -0.0692  0.2771
13408W        W29592  14.051  13.269  14.664 -0.4069  0.2191 -0.0122
13409W        W29593  10.149   2.510   4.800  0.1710  0.1187  0.2510
13410W        W29594  13.378  11.694  15.542 -0.1164 -0.0370 -0.2961
13411W        W29595   6.346  16.872  13.386 -0.1287 -0.1037  0.2126
13412W        W29596   9.170   6.146   3.705  0.0178  0.0639  0.0907
13413W        W29597   7.926   9.330  16.382 -0.1175 -0.5017 -0.0581
13414W        W29598  13.426  13.211  13.342  0.0556  0.0697  0.0118
13415W        W29599  17.281   7.176  12.496  0.0226  0.0888 -0.1588
13416W        W29600  11.343   2.574  15.950  0.0622  0.0298 -0.0179
13417W        W29601  11.825   5.870   1.462 -0.1096  0.0391  0.0298
13418W        W29602  14.044  12.691   0.401  0.0447 -0.0304  0.0391
13419W        W29603   5.474   7.744  13.674 -0.0691  0.0067 -0.0687
13420W        W29604  10.130   9.453  11.898 -0.0091 -0.0139 -0.3009
13421W        W29605   4.138  12.178  13.247  0.0088  0.0347 -0.1632
13422W        W29606   2.259   0.389   4.509 -0.2567 -0.0240  0.1070
13423W        W29607  13.001   5.428  16.602 -0.2630 -0.0457 -0.1564
13424W        W29608  11.212  11.080  15.880 -0.2899  0.2110 -0.2593
13425W        W29609  16.948   5.497   4.786  0.0513 -0.1615  0.0085
13426W        W29610   4.669   6.099  15.373  0.2363  0.3491  0.0839
13427W        W29611  15.516   6.014  15.064 -0.2696 -0.1347 -0.3006
13428W        W29612  13.496   0.898  12.696 -0.0777 -0.1770  0.0538
13429W        W29613   5.823  14.654  13.717  0.1770 -0.0326 -0.0845
13430W        W29614   8.609   8.922   6.275  0.0944 -0.0882 -0.0976
13431W        W29615  12.451  15.873   4.014 -0.1973  0.2912  0.1670
13432W        W29616  14.923   1.973   4.813  0.2036 -0.3020 -0.0667
13433W        W29617  17.870  12.080  15.719  0.1616 -0.1174 -0.1469
13434W        W29618   4.046   6.006   2.677 -0.1721  0.0258 -0.0102
13435W        W29619  11.680  13.273  14.415 -0.0880 -0.3751 -0.0963
13436W        W29620  17.429  16.771  15.582  0.0364 -0.0110  0.0545
13437W        W29621   7.788  17.546  13.148  0.2295  0.1074 -0.0134
13438W        W29622  13.465  14.633  14.601 -0.4532  0.0041  0.1807
13439W        W29623   0.812   1.641  16.335  0.1312 -0.0984 -0.0367
13440W        W29624   6.610  13.461  11.753  0.2822  0.0510 -0.0996
13441W        W29625   0.986  14.551   2.481 -0.0512  0.0066 -0.0548
13442W        W29626   3.044  11.135  12.792  0.0204 -0.4510  0.0556
13443W        W29627   2.838  10.061   1.600  0.1031  0.1519 -0.3587
13444W        W29628   1.872   4.749   4.126  0.1815 -0.3762  0.0674
13445W        W29629   4.961   6.772   3.614 -0.0948  0.0490 -0.1156
13446W        W29630  16.784   9.478  14.815  0.0708 -0.1637  0.0252
13447W        W29631  10.391   8.509  12.686  0.3628 -0.1557  0.0864
13448W        W29632  15.656   9.358   4.745  0.0862  0.6878 -0.1736
13449W        W29633  10.392   1.853   2.392  0.0566  0.1684  0.3684
13450W        W29634   9.396   3.083  11.626  0.1007 -0.0631 -0.0530
13451W        W29635   5.835   7.129  13.355  0.2420  0.0482 -0.3234
13452W        W29636  15.518   0.921  14.201  0.2866 -0.1655 -0.0307
13453W        W29637   9.398   3.373  12.066 -0.1549 -0.1483 -0.1392
13454W        W29638   7.487   1.536  13.532  0.0524  0.3147 -0.0970
13455W        W29639  14.385   4.439   5.356  0.2066  0.2397  0.3804
13456W        W29640  15.024   8.592   2.547 -0.0407  0.0132 -0.1249
13457W        W29641  17.528  17.907   3.271  0.2162 -0.2307  0.0121
13458W        W29642  16.633  17.127   5.097 -0.2487 -0.2194 -0.0976
13459W        W29643   0.569   5.095   2.568  0.0177 -0.0795  0.2851
13460W        W29644  12.772   0.090  15.258  0.0910  0.3309 -0.0900
13461W        W29645   7.250   7.344  13.083 -0.3399  0.2990  0.0043
13462W        W29646   2.667   3.766  12.739 -0.3668 -0.0711  0.2553
13463W        W29647   8.970   6.559  14.854 -0.1711  0.0457  0.2116
13464W        W29648  16.174   6.526  11.241  0.1186  0.0654  0.0099
13465W        W29649   4.467  14.242  13.439  0.1183  0.1504  0.1432
13466W        W29650  12.972  16.446   1.123 -0.2629 -0.3359 -0.0357
13467W        W29651   0.964  14.443  14.681  0.0755 -0.1058  0.2582
13468W        W29652   4.509  14.517  16.502  0.1084  0.2199  0.1178
13469W        W29653   4.818  10.064  12.264 -0.0725  0.2319  0.0015
13470W        W29654   7.409  14.201  11.645 -0.1698  0.0763  0.0105
13471W        W29655  11.778   1.891  12.050  0.0896 -0.2767  0.3915
13472W        W29656  14.782  12.018   0.180 -0.1018 -0.1584  0.0624
13473W        W29657  13.104   7.064  16.109  0.2324  0.0390  0.2971
13474W        W29658  11.698   9.143   5.626  0.0118 -0.3608 -0.0115
13475W        W29659   3.750   1.873  15.521  0.1891 -0.0949 -0.4188
13476W        W29660  11.798  10.340   4.786 -0.1344 -0.0243 -0.0014
13477W        W29661  12.175   7.323   0.488  0.3818  0.0131 -0.0616
13478W        W29662  16.917  12.957  15.504  0.3329 -0.0202  0.1053
13479W        W29663   9.858   5.373   6.014  0.1870 -0.0330 -0.2704
13480W        W29664  15.425  15.295  13.832  0.1905 -0.3851  0.2008
13481W        W29665   0.576   0.061  14.333  0.1336 -0.0984  0.0266
13482W        W29666  10.431   1.834   1.872  0.2442  0.0752 -0.0714
13483W        W29667   7.055   1.052   0.946 -0.0617 -0.2822  0.2142
13484W        W29668  10.421  11.480   2.759 -0.2740  0.2157  0.1010
13485W        W29669  14.067   4.317   4.102 -0.1991 -0.0307  0.1862
13486W        W29670   3.706   2.783   4.605 -0.0371 -0.0401 -0.1124
13487W        W29671   3.877   1.476   0.329 -0.1564  0.1116  0.2724
13488W        W29672   7.821   1.139  14.447 -0.0761 -0.0836  0.0326
13489W        W29673  11.226  10.968  14.514 -0.1619  0.0680 -0.1300
13490W        W29674  15.095   9.218  16.321 -0.2440  0.0656  0.0726
13491W        W29675  14.980  13.999  15.090  0.4922  0.0688  0.1034
13492W        W29676  11.533   5.295   0.285 -0.1493  0.0619 -0.1671
13493W        W29677  16.409   4.247  12.394  0.2708  0.0270 -0.0528
13494W        W29678   6.514   1.654  16.043 -0.1018 -0.0476 -0.2465
13495W        W29679  16.306  14.080   3.887  0.1150 -0.2461  0.1335
13496W        W29680  11.788   6.761  14.074  0.1158 -0.0838  0.1742
13497W        W29681   6.595  16.125   2.214  0.1666  0.0057 -0.3605
13498W        W29682  16.772  13.335  16.640 -0.2223  0.1420 -0.0210
13499W        W29683  13.834  16.229   4.467  0.2715  0.2393  0.0795
13500W        W29684   3.873   1.469  11.659  0.0896 -0.1412  0.1199
13501W        W29685   5.425   6.172   6.033  0.0412 -0.0244  0.2210
13502W        W29686  16.506   3.605   2.404  0.1084  0.5264  0.0219
13503W        W29687   2.870  14.845   0.596  0.0383 -0.0881  0.0656
13504W        W29688   8.594  10.121  12.754 -0.0884  0.0307  0.1452
13505W        W29689   1.081   5.349  14.881 -0.2002 -0.0120  0.2935
13506W        W29690  12.393   8.287   5.581 -0.2454 -0.0417  0.0434
13507W        W29691   1.174   5.809  16.694  0.0925 -0.0735  0.2201
13508W        W29692  15.847   5.332  15.059  0.3296  0.1550  0.0025
13509W        W29693  15.556  12.059   1.291  0.1987  0.1884  0.1017
13510W        W29694   7.359   2.146   2.481 -0.4629  0.1959  0.0096
13511W        W29695  14.339   0.509   5.706  0.1050 -0.1261  0.2319
13512W        W29696  14.016   4.331  14.458 -0.1705 -0.0673 -0.0647
13513W        W29697   3.583   2.774  16.399  0.0207  0.0159  0.2170
13514W        W29698   3.215  10.025   5.478 -0.3003 -0.0820  0.0735
13515W        W29699  10.699  17.861  12.185  0.0955 -0.0740 -0.3901
13516W        W29700  11.288   9.412   1.619  0.0506 -0.0907 -0.0621
13517W        W29701   8.019  13.323  11.858  0.1262  0.0788  0.0856
13518W        W29702   0.572  13.056  13.136 -0.2260  0.0452 -0.1739
13519W        W29703   9.137  16.639  13.843 -0.2463 -0.3522 -0.0048
13520W        W29704  16.315   7.138   5.680 -0.2643 -0.0660  0.0048
13521W        W29705   0.712  10.509   6.551  0.3463 -0.2354  0.4219
13522W        W29706   9.768   8.739   5.584  0.0223  0.2065  0.3356
13523W        W29707  13.529   1.860   0.613  0.1681 -0.2292 -0.0877
13524W        W29708   8.332  15.091  15.820  0.1521  0.0943  0.0597
13525W        W29709   0.875   5.996   3.657 -0.0707 -0.2408 -0.0484
13526W        W29710   1.956   9.024   1.547 -0.2086  0.0735  0.0832
13527W        W29711   3.591   5.728   0.506 -0.0584  0.0704 -0.2045
13528W        W29712   9.415   7.065   1.913  0.2093  0.1013 -0.0857
13529W        W29713   0.285   6.882  14.068 -0.0387  0.0341  0.0131
13530W        W29714   8.830  11.368   4.582 -0.1042  0.0186 -0.3092
13531W        W29715  11.856  15.837   2.422  0.4021 -0.0531  0.0326
13532W        W29716  17.882  13.839  14.589  0.0367  0.0381 -0.0521
13533W        W29717  12.348  14.774  11.402 -0.0577 -0.0735 -0.2932
13534W        W29718  14.492   4.146  14.667 -0.0055  0.0065  0.0882
13535W        W29719  12.746   2.428  15.439  0.0780 -0.0243 -0.2586
13536W        W29720   7.368   3.062   4.719  0.1064 -0.1241  0.0651
13537W        W29721   8.488   8.582  14.113 -0.3166 -0.0298  0.0145
13538W        W29722  10.920   2.460  15.290 -0.0762 -0.0614 -0.0868
13539W        W29723   9.201  16.286  14.183 -0.0342 -0.3396 -0.0614
13540W        W29724   8.722  14.870  16.558  0.1934  0.3176  0.1106
13541W        W29725  14.529   1.106  14.987 -0.3643 -0.0066  0.2021
13542W        W29726   3.161   5.997   3.027 -0.0186 -0.1134 -0.0603
13543W        W29727  12.214   2.610  12.485  0.1108  0.1185  0.2642
13544W        W29728   0.882  13.651  15.461 -0.0539  0.1085  0.2975
13545W        W29729  12.945   5.527  15.390  0.0762  0.1520 -0.1409
13546W        W29730   9.121   6.966   0.447 -0.0695  0.2487  0.1343
13547W        W29731  15.851   4.650   2.484 -0.1347  0.1034 -0.0539
13548W        W29732  13.262  11.713   2.487 -0.2354  0.0568 -0.1642
13549W        W29733   2.128   5.269   4.187 -0.3780 -0.1572 -0.2064
13550W        W29734  10.503   2.754   5.343  0.1885 -0.2553  0.2485
13551W        W29735   6.807   6.682   1.093 -0.1358 -0.0956  0.1638
13552W        W29736   1.907   9.949   3.891  0.0677 -0.2499  0.0966
13553W        W29737   9.861  11.820   4.868  0.0125  0.0103 -0.2267
13554W        W29738  17.907  13.684   0.731  0.0180 -0.2335 -0.0206
13555W        W29739   3.838  14.980  12.382 -0.2260  0.1193  0.1814
13556W        W29740   0.546  13.198   5.450  0.3811 -0.0669  0.0315
13557W        W29741   2.795   9.032  12.035  0.0234  0.1804 -0.0667
13558W        W29742  13.588   5.051  14.884 -0.0559  0.2627 -0.0797
13559W        W29743   6.487   2.941  13.757  0.0734  0.0098  0.0561
13560W        W29744  14.847   8.034  14.299  0.0994 -0.4102  0.0775
13561W        W29745   6.805   3.092   0.638  0.3047  0.1612 -0.3974
13562W        W29746   5.178  10.921   3.816 -0.0817  0.3907 -0.2231
13563W        W29747  16.870   5.563   2.040 -0.2402 -0.1985  0.2257
13564W        W29748   7.265   8.403   1.619  0.0596 -0.3462 -0.0278
13565W        W29749  13.112   2.294  14.685  0.1862 -0.0422  0.1771
13566W        W29750   9.144  11.368  15.545 -0.2721  0.0013  0.2658
13567W        W29751  12.440   1.474  11.433  0.2680  0.1345  0.1490
13568W        W29752   5.711   0.592  12.299 -0.3228  0.1736 -0.1481
13569W        W29753  10.918   9.442   2.738  0.1474 -0.0895  0.2076
13570W        W29754  17.935  10.680   0.894  0.1034 -0.1906 -0.0539
13571W        W29755   0.479   6.701   3.845  0.1649  0.0147  0.3188
13572W        W29756   6.228  17.409  12.131  0.0870  0.1572 -0.1791
13573W        W29757  13.402   3.635   0.218 -0.0269 -0.0062 -0.1675
13574W        W29758  11.261  10.999   0.160  0.0345  0.0604  0.1730
13575W        W29759  15.816   1.497  14.432 -0.3011  0.2920  0.1547
13576W        W29760  17.051  15.038   5.288  0.0152 -0.2530  0.0468
13577W        W29761  11.305   0.514  11.982 -0.0198 -0.0434  0.0247
13578W        W29762  16.661   5.528   2.517  0.0879  0.0639 -0.0322
13579W        W29763   2.894   8.751   4.843  0.3088  0.1382  0.1564
13580W        W29764  11.559  12.398   5.208 -0.2292 -0.0551  0.3895
13581W        W29765   8.325  15.368   5.665  0.0982 -0.0764 -0.4515
13582W        W29766   8.808   4.289   3.308 -0.0119 -0.2225 -0.0425
13583W        W29767   8.619   9.509  14.034  0.1156  0.0984  0.1727
13584W        W29768   4.743   1.774   1.333 -0.0463  0.1278 -0.2278
13585W        W29769  12.979  16.173  13.566 -0.0455 -0.3146  0.3021
13586W        W29770  14.717   5.103  12.139 -0.2336 -0.2181 -0.2146
13587W        W29771   5.334  12.093  12.656 -0.1537 -0.1998 -0.0941
13588W        W29772   5.756  12.990  13.939 -0.2409 -0.0696  0.2943
13589W        W29773  14.279  12.141  15.631  0.1777  0.3450 -0.0992
13590W        W29774   1.430  15.679   6.328  0.0725  0.0613 -0.0148
13591W        W29775   4.015   2.430   4.502 -0.1131  0.1044 -0.0586
13592W        W29776   3.956  14.041  12.482  0.1554  0.2785 -0.0674
13593W        W29777   3.309   7.142   5.982 -0.2783 -0.3238  0.1046
13594W        W29778  16.940  15.049  14.849 -0.0985 -0.0341 -0.0965
13595W        W29779  17.833   4.238   3.783 -0.2612 -0.0371  0.3660
13596W        W29780   2.063  13.646  11.267 -0.0052  0.1390  0.1726
13597W        W29781   1.599  10.730   4.529 -0.2623  0.0261 -0.0855
13598W        W29782   6.991   1.854   1.135  0.0272 -0.1682  0.1293
13599W        W29783  16.971   6.271   0.242  0.0040  0.0795 -0.4796
13600W        W29784   8.762   9.610  16.393 -0.0617 -0.1554 -0.0853
13601W        W29785  14.062   7.336   4.346  0.0258  0.1227 -0.1238
13602W        W29786   6.779   2.895  15.792 -0.3823  0.0551 -0.3464
13603W        W29787   7.481   6.446  16.101  0.1979 -0.1122 -0.2043
13604W        W29788   3.471  13.990   0.599  0.1279 -0.1985  0.1454
13605W        W29789  10.529   3.821  13.931  0.1649 -0.0793  0.0628
13606W        W29790  10.090   1.317  13.535 -0.0064 -0.4922 -0.0442
13607W        W29791   0.731  11.565  14.057  0.0776  0.0803 -0.1020
13608W        W29792   7.067   8.926   5.767  0.3151  0.1985  0.1306
13609W        W29793   3.001  10.761   0.845 -0.1350  0.0526 -0.0172
13610W        W29794  15.621  13.453   4.848  0.4532  0.0162  0.0252
13611W        W29795  11.315  11.875   0.665 -0.3585 -0.4980  0.0510
13612W        W29796   5.823  12.027   3.348  0.0269  0.0225 -0.1012
13613W        W29797   6.680   6.623   5.137  0.0325 -0.1592 -0.1618
13614W        W29798   0.126  11.393  12.319 -0.0636  0.3024  0.2427
13615W        W29799  15.740   1.625  12.346  0.1269  0.0133 -0.0692
13616W        W29800   8.404   6.642   0.955  0.0996  0.0281  0.1463
13617W        W29801  16.363  10.690  11.436  0.0459 -0.0763 -0.0602
13618W        W29802   6.637   5.688  15.766 -0.1781 -0.0255 -0.0133
13619W        W29803  11.706  15.649  16.302  0.0406  0.1287  0.0241
13620W        W29804  16.453   1.116   4.004 -0.1536  0.1266 -0.1795
13621W        W29805  16.859  14.680   5.012  0.1361 -0.2532  0.3153
13622W        W29806   7.396   1.406  14.482  0.1459  0.1347  0.2186
13623W        W29807  11.234   0.386   3.510 -0.1900  0.1512 -0.0771
13624W        W29808   5.217   4.175  14.694  0.0039  0.0789  0.0379
13625W        W29809   8.833   5.916   3.280 -0.2239  0.0688 -0.2192
13626W        W29810   6.535   4.359   2.263  0.1193 -0.0050 -0.1877
13627W        W29811   6.850   6.571   3.629 -0.0488 -0.1258 -0.2439
13628W        W29812   1.097   6.056   1.717  0.0232  0.0849 -0.0521
13629W        W29813   1.094   6.722  15.374 -0.1260  0.1556  0.1563
13630W        W29814   4.970   1.359  12.317  0.3288  0.0339  0.1939
13631W        W29815   8.130   6.492   3.149 -0.0497  0.1916 -0.0003
13632W        W29816   0.184   9.892  12.161  0.1943  0.0614 -0.1827
13633W        W29817   8.492  15.669  14.391 -0.2132 -0.2827 -0.0380
13634W        W29818  13.144   9.634   1.591 -0.1633  0.1282 -0.0926
13635W        W29819   1.195   1.483  12.977 -0.2653  0.0512 -0.2522
13636W        W29820   5.182   0.959   1.441  0.0624  0.2243  0.1361
13637W        W29821   6.928  16.035  15.842 -0.0826  0.1421  0.0901
13638W        W29822  11.142   8.286   2.106  0.1144  0.3345  0.1807
13639W        W29823   3.077   3.060   1.636  0.0362  0.1890 -0.1795
13640W        W29824   6.727  10.350   5.525  0.1726  0.0178  0.2414
13641W        W29825   5.519  10.266   0.921 -0.0183  0.0249 -0.1120
13642W        W29826  11.221   1.700  16.542 -0.0786 -0.0243  0.4236
13643W        W29827   5.767   8.705   2.837 -0.0494 -0.2526  0.0405
13644W        W29828  15.185  15.456   1.254  0.0572  0.5830 -0.0556
13645W        W29829  16.518   8.680  11.461 -0.0844  0.0992 -0.1240
13646W        W29830   0.088   4.917  13.740 -0.0153  0.2518 -0.2521
13647W        W29831   4.476   5.589   5.283 -0.1913  0.1713 -0.0170
13648W        W29832  11.994   0.149   3.141 -0.0485  0.1295 -0.0049
13649W        W29833  13.546   3.035  15.826  0.0584  0.0302 -0.1675
13650W        W29834   6.756  16.087  13.750 -0.0015  0.1520 -0.3054
13651W        W29835  13.608   0.577   4.195  0.0171  0.0340  0.1683
13652W        W29836   1.755   2.060  12.144  0.0633 -0.3760 -0.1999
13653W        W29837   3.935  15.991  12.986 -0.0323  0.2551  0.2026
13654W        W29838   4.938   0.363  16.217 -0.0832 -0.2167  0.2170
13655W        W29839   4.853  15.752  16.513  0.0757 -0.3684 -0.1124
13656W        W29840   9.603  14.220   0.047  0.1996  0.0417  0.1369
13657W        W29841  15.555   9.443   3.424 -0.0233  0.0137 -0.1094
13658W        W29842  13.569  12.993  15.474 -0.1271  0.1433  0.0501
13659W        W29843  13.335  17.814   1.561  0.2317  0.1044  0.0528
13660W        W29844   0.397   1.158   3.503 -0.3440 -0.4623 -0.1533
13661W        W29845   3.218  10.353   2.096  0.3317 -0.1186 -0.2393
13662W        W29846  15.424  17.116  12.501  0.0042  0.0464  0.0157
13663W        W29847   6.994   4.365  14.266  0.1824 -0.0542  0.1827
13664W        W29848   1.710   0.450  12.326 -0.3220  0.3929  0.1129
13665W        W29849  12.096   7.441  15.313  0.2254 -0.1998  0.0164
13666W        W29850  17.312   2.918  15.363 -0.2392 -0.1876  0.1569
13667W        W29851   9.575   0.701  16.114  0.0218 -0.0644 -0.1455
13668W        W29852   4.473  16.487   2.475  0.0534  0.0345  0.0876
13669W        W29853  10.415  14.451   2.862 -0.1842 -0.0603  0.0650
13670W        W29854   3.206   1.024   3.804 -0.1634  0.2803 -0.0276
13671W        W29855   5.219   1.803   3.394  0.0071  0.1153 -0.0878
13672W        W29856  16.671   7.807   0.942  0.2699  0.0185  0.1306
13673W        W29857   9.738  11.587   1.401 -0.1906 -0.1763  0.1913
13674W        W29858  16.861   8.314  11.577 -0.3836 -0.0118 -0.2857
13675W        W29859   8.556   8.513   1.422  0.2233  0.0528  0.0009
13676W        W29860  12.863   3.085   2.796  0.1438  0.3233  0.0796
13677W        W29861   2.408   9.349   4.141 -0.2534  0.0383 -0.1199
13678W        W29862  15.327   4.026   3.059  0.0608 -0.1907 -0.0609
13679W        W29863   7.999   3.868  15.500  0.0184  0.1300  0.3381
13680W        W29864  15.021   7.818  15.398 -0.0035 -0.1067 -0.1845
13681W        W29865   7.286   1.204   1.473 -0.2406  0.0387 -0.0304
13682W        W29866  13.993  15.607  14.711  0.1941 -0.0703  0.1254
13683W        W29867   5.127  17.051   4.921 -0.1954  0.0608 -0.1903
13684W        W29868  13.248  13.259  14.320  0.1272 -0.3998 -0.0908
13685W        W29869  10.242  12.684   1.207 -0.0048  0.2499 -0.0449
13686W        W29870   6.112  12.163  12.903 -0.1144  0.1373  0.0643
13687W        W29871   3.339  14.758   3.312 -0.1262 -0.1848  0.0348
13688W        W29872   9.370   8.997   3.855  0.1644 -0.0790  0.0407
13689W        W29873   7.038  11.636   6.849  0.3342 -0.0732  0.1386
13690W        W29874   7.291  16.832  12.472  0.2094  0.0233  0.1978
13691W        W29875   2.117  14.470  15.829 -0.1206  0.2746  0.0676
13692W        W29876  11.833  13.282   2.130  0.3474  0.0502 -0.1785
13693W        W29877  13.764  11.851   2.570  0.0741  0.0219  0.1115
13694W        W29878  12.927  13.662   0.237 -0.1913  0.0393 -0.1239
13695W        W29879  15.973   3.612   2.354 -0.1252 -0.1624  0.0570
13696W        W29880  17.547  14.021  14.961  0.0102 -0.1917  0.0381
13697W        W29881   1.847  10.680   1.086 -0.1267 -0.1794 -0.0608
13698W        W29882   7.036  12.184  12.179 -0.1086 -0.4081 -0.1805
13699W        W29883  16.010   2.860   1.935  0.1138 -0.1897  0.1637
13700W        W29884   6.833   4.844   5.386  0.3131 -0.2107  0.2045
13701W        W29885   0.281   7.530   3.874  0.0673 -0.0038 -0.0845
13702W        W29886   7.841   4.853   3.909 -0.3366 -0.1050 -0.1759
13703W        W29887   9.181  11.737   2.667  0.1511  0.3234 -0.0123
13704W        W29888  17.914  10.482  16.004  0.1920  0.2186 -0.1940
13705W        W29889  14.180  17.643   1.685  0.1427 -0.0799  0.0858
13706W        W29890  14.054  16.570   3.286  0.0721 -0.0756  0.0332
13707W        W29891   4.186  11.545   4.039  0.2356  0.1292  0.0256
13708W        W29892   7.085   8.743  13.846  0.4668  0.2004  0.0978
13709W        W29893   4.636  11.057   3.145  0.1969 -0.1237 -0.0856
13710W        W29894  17.223   5.034  14.916  0.2095 -0.2227 -0.0158
13711W        W29895   1.216   2.250  14.550 -0.0289  0.0806 -0.0725
13712W        W29896  16.113  12.735   4.513  0.1287 -0.1085  0.1910
13713W        W29897   1.684  14.504   3.538  0.2601 -0.0106  0.0018
13714W        W29898  12.925   2.996  12.000  0.0542  0.0793 -0.0915
13715W        W29899  13.709  10.689   4.108  0.3283  0.0021  0.0384
13716W        W29900  17.822   0.359  11.273 -0.1190 -0.0048  0.0991
13717W        W29901  12.852   3.177   1.977  0.1964  0.0380  0.1061
13718W        W29902   0.607  14.102   6.042  0.1822 -0.0741 -0.3182
13719W        W29903   5.431   6.551   6.712 -0.1276 -0.0788  0.1142
13720W        W29904   4.666   8.639   1.043 -0.1498 -0.2369  0.3188
13721W        W29905   2.700  10.184   0.846  0.1694 -0.5637 -0.0136
13722W        W29906  14.325   6.887   4.122  0.0637  0.0080  0.1836
13723W        W29907   0.241  13.305   0.146  0.0709 -0.1138 -0.1628
13724W        W29908   4.743   3.265   3.886 -0.3252  0.4453 -0.0130
13725W        W29909  12.509   4.878  14.212 -0.2487 -0.2199  0.0475
13726W        W29910   4.592  17.062  13.805  0.1302  0.0789 -0.2830
13727W        W29911   1.107   7.016  10.749  0.0948  0.1679  0.0658
13728W        W29912  15.927   5.507   0.634 -0.1450 -0.1684 -0.4320
13729W        W29913   2.454   8.816   1.468 -0.2649 -0.2667 -0.0769
13730W        W29914  10.671  12.891   3.558  0.0148  0.2087 -0.4407
13731W        W29915   8.788   4.785   2.491  0.1612 -0.0748 -0.1714
13732W        W29916   3.791  11.933  15.090  0.1704  0.0917 -0.0336
13733W        W29917  11.759   8.061  16.124  0.1111 -0.2180 -0.0191
13734W        W29918   9.130  12.874   0.840 -0.0195 -0.3451  0.0092
13735W        W29919   1.306   5.370   4.227 -0.0069 -0.2929  0.1409
13736W        W29920   5.068   2.487  13.457 -0.2492 -0.1991 -0.2629
13737W        W29921  11.523   7.347   4.996  0.1287  0.0098 -0.0391
13738W        W29922   3.018   6.334  14.635  0.2615  0.1968 -0.0456
13739W        W29923  16.433  16.159  13.807  0.3456  0.1273  0.0116
13740W        W29924  16.565  17.537   2.291  0.1294  0.0895  0.3682
13741W        W29925  15.610  11.862   4.028 -0.2786  0.0150 -0.1815
13742W        W29926   9.176   1.487   4.868 -0.2764  0.3582 -0.0260
13743W        W29927   7.942  17.616   3.876  0.4161  0.1285 -0.1928
13744W        W29928   0.801  15.381   1.690  0.0717 -0.1257  0.2080
13745W        W29929  13.249   3.376  13.763  0.1118  0.1398  0.0531
13746W        W29930  17.210  10.854   1.904  0.0707 -0.1653 -0.1786
13747W        W29931  15.525   0.399  15.337 -0.1301 -0.4345 -0.2419
13748W        W29932  10.463  17.894   3.233  0.0001 -0.1505 -0.0513
13749W        W29933  16.700  14.725  11.868 -0.1559  0.0513 -0.1648
13750W        W29934  12.839   9.136  13.012 -0.0347  0.0805 -0.0237
13751W        W29935   0.171   1.570   2.943 -0.2238  0.0145 -0.4838
13752W        W29936   0.476   3.806  12.718  0.1711 -0.0342 -0.0542
13753W        W29937  13.182   7.273   0.125  0.2012  0.1887  0.0275
13754W        W29938   3.958   8.784   3.278  0.2490  0.1503  0.3732
13755W        W29939   0.124   7.639  12.669  0.0723 -0.0470 -0.1783
13756W        W29940  13.324  13.208  12.154 -0.1655  0.0973 -0.0612
13757W        W29941   6.140   0.946   2.727 -0.0757 -0.0605 -0.3013
13758W        W29942   0.171   7.701   1.321  0.0681  0.0043 -0.0862
13759W        W29943  15.673   6.606  13.635  0.3024 -0.1299 -0.1288
13760W        W29944  15.434  15.536   0.777 -0.0390  0.0926  0.1141
13761W        W29945  16.736  11.814   0.993  0.0140  0.2574 -0.1828
13762W        W29946   3.728   6.418   2.368 -0.0932  0.3783  0.2282
13763W        W29947  10.396  16.223  13.623  0.0456  0.1887  0.2822
13764W        W29948  17.935  10.198  12.892 -0.2523  0.2048 -0.0927
13765W        W29949  15.075   5.711  15.170 -0.0763  0.1142  0.2669
13766W        W29950   2.818   8.778  13.721 -0.2253 -0.0562  0.3719
13767W        W29951  11.507   9.555  15.641 -0.1284 -0.0388 -0.2018
13768W        W29952  16.494  13.675   4.221  0.0170  0.2900  0.1133
13769W        W29953   5.861   5.694   2.353  0.2366 -0.1451  0.0321
13770W        W29954   3.893   3.041  13.782  0.0156  0.0490  0.0995
13771W        W29955  12.033   0.861   0.710  0.0287  0.2469  0.2249
13772W        W29956  12.073  12.020   2.099  0.1014 -0.0525 -0.0414
13773W        W29957   0.763   2.954   4.735 -0.0021 -0.0266 -0.2612
13774W        W29958   8.778  11.220   6.645  0.0261  0.0088  0.0677
13775W        W29959  17.697   7.493  12.921 -0.0423  0.0251 -0.1064
13776W        W29960  12.231  13.290  16.447  0.2512  0.1765  0.1608
13777W        W29961   8.976  14.755   2.802 -0.2062 -0.0697 -0.1420
13778W        W29962   4.773  14.019   3.533  0.2007 -0.1077  0.0156
13779W        W29963   0.837  11.620   1.233  0.1088  0.1908  0.2409
13780W        W29964   2.121   1.241  12.444 -0.0677  0.2396 -0.0550
13781W        W29965  10.559   8.152  12.400 -0.1782  0.0824  0.1444
13782W        W29966   7.532   8.799   1.475 -0.2386  0.0905 -0.1305
13783W        W29967  10.647  13.784  12.403 -0.1222 -0.2029 -0.1696
13784W        W29968   4.470  13.008  16.489  0.1294  0.1111  0.0126
13785W        W29969   3.209  15.081   0.014  0.0550  0.2739 -0.1439
13786W        W29970   0.987  12.531  12.551  0.1882  0.1130 -0.0601
13787W        W29971   3.635  10.532  13.322  0.0308 -0.3099 -0.0716
13788W        W29972   5.740   2.222  13.204  0.0290  0.0079 -0.1439
13789W        W29973  16.365   3.921  15.190  0.1130  0.2061  0.0615
13790W        W29974   9.749   8.066  14.573 -0.1275  0.1118 -0.0688
13791W        W29975  16.430   4.578   2.996 -0.0240 -0.1262  0.2820
13792W        W29976  14.279   1.257   3.416  0.1337 -0.2363 -0.0727
13793W        W29977  12.878  11.329  16.696 -0.1363  0.1339 -0.2179
13794W        W29978  10.100   6.421   4.311 -0.3651  0.1857 -0.2918
13795W        W29979  16.735  11.073   0.710  0.0267 -0.0213  0.0382
13796W        W29980  12.819   5.249  14.013 -0.2235 -0.0778 -0.0418
13797W        W29981  16.044  13.930   1.221 -0.0174  0.1236 -0.0043
13798W        W29982   7.106  10.451   0.829  0.3630  0.3313 -0.0624
13799W        W29983   7.616   1.106  13.085  0.1885 -0.1249 -0.1642
13800W        W29984   9.420   5.633  12.140  0.1180  0.0076  0.1195
13801W        W29985   4.945   9.962  11.807  0.0511  0.0477  0.0080
13802W        W29986  10.147   4.810  16.567  0.0488 -0.0336  0.0545
13803W        W29987  15.600   9.605   5.188 -0.1243  0.0540  0.2390
13804W        W29988  12.988   7.647  16.070 -0.1044  0.0400  0.2622
13805W        W29989  11.131   8.641   2.517  0.2285 -0.1874  0.2358
13806W        W29990  15.944  13.609   2.630  0.1198 -0.2106 -0.1706
13807W        W29991   1.802   7.576  14.497  0.1124 -0.2107  0.1018
13808W        W29992   2.817  11.356   4.138  0.1845 -0.2116  0.2592
13809W        W29993   9.534   2.898   2.773  0.1324  0.1102 -0.0523
13810W        W29994   9.816   6.608   3.244  0.1654  0.1832 -0.3499
13811W        W29995   4.490   1.666  14.820  0.0802 -0.1300 -0.0724
13812W        W29996  14.019  13.647  14.994  0.1128  0.0403 -0.1301
13813W        W29997   2.147   4.895   4.602 -0.3116  0.0986 -0.0052
13814W        W29998   3.638   0.566   2.276  0.1130 -0.1072 -0.0656
13815W        W29999   7.188  16.329   1.188 -0.0583 -0.2954 -0.0345
13816W        W30000  15.893  15.668   0.593 -0.0549 -0.2103 -0.1087
13817W        W30001   2.943   1.729   3.337  0.3095  0.4175  0.0265
13818W        W30002   0.300  13.909   0.870  0.0466 -0.0912  0.0186
13819W        W30003  11.889  11.705  13.786 -0.4482 -0.3316  0.2469
13820W        W30004   5.903   8.853   0.473  0.0397 -0.1970  0.0407
13821W        W30005  12.311  16.911   3.803 -0.0067 -0.2089 -0.2731
13822W        W30006   7.623  12.189   5.447 -0.0953  0.0118 -0.1339
13823W        W30007   0.317   7.488  11.978  0.0031 -0.0380  0.1143
13824W        W30008  17.551  13.680   2.218 -0.1323  0.0692 -0.1919
13825W        W30009  15.098  11.290  13.573 -0.0166  0.2519  0.1619
13826W        W30010   7.834   0.895  14.008 -0.2854  0.3789  0.1149
13827W        W30011  10.023   0.076   3.413 -0.0233  0.1386  0.0240
13828W        W30012   9.672   9.505  11.641  0.2306  0.0426 -0.0140
13829W        W30013  11.534  16.374  12.864 -0.0824  0.3874  0.1151
13830W        W30014   8.863   4.658   1.986 -0.0461 -0.1033  0.2563
13831W        W30015   4.093  16.726   2.741  0.0627  0.0431 -0.0019
13832W        W30016   6.347   4.277  14.217 -0.1191  0.0055 -0.0675
13833W        W30017  17.049   1.984   3.578 -0.2333  0.1865  0.0581
13834W        W30018  12.442   2.052  15.531  0.1359  0.3137 -0.2315
13835W        W30019   4.206  16.721  15.521 -0.1901 -0.1640 -0.0381
13836W        W30020  14.938  13.078   3.770  0.1570 -0.0546  0.0014
13837W        W30021   4.078  11.876   5.263  0.2735 -0.1497 -0.0930
13838W        W30022   5.801   2.503   3.490  0.0366 -0.0380 -0.3421
13839W        W30023   3.150  17.765  12.094 -0.3219  0.0622  0.0152
13840W        W30024   6.737   0.958  13.329 -0.3091  0.1702  0.3420
13841W        W30025   4.954  12.691  11.708 -0.0755  0.0917 -0.1402
13842W        W30026   4.801  16.124  12.196 -0.1016  0.0431 -0.2604
13843W        W30027  10.931  11.423   2.922 -0.2195  0.3445  0.1067
13844W        W30028   4.874   7.413   6.516  0.0514 -0.0447 -0.2662
13845W        W30029   3.062   7.294  13.216  0.1131 -0.2897  0.2284
13846W        W30030   8.154   7.869   4.397  0.2610 -0.0306 -0.0302
13847W        W30031  16.903   5.196  15.942  0.1571 -0.0248 -0.2979
13848W        W30032   0.180  14.122  11.925  0.1893 -0.2661  0.0036
13849W        W30033  10.056   5.726   2.126  0.3877  0.0008  0.0619
13850W        W30034   8.090   7.078   5.388  0.3397  0.1012  0.2425
13851W        W30035   1.767   5.199  15.739 -0.0145 -0.3034 -0.2001
13852W        W30036  12.518   4.070   3.742 -0.1346  0.1992  0.1689
13853W        W30037   8.826   0.217  11.839  0.0824 -0.1294  0.0369
13854W        W30038  15.969   7.222  15.132 -0.1252  0.1658  0.1471
13855W        W30039   0.972  17.499  12.709  0.1384  0.1739 -0.0011
13856W        W30040   1.651   9.555   0.769 -0.0687  0.0011  0.0530
13857W        W30041  16.471  16.960   5.583 -0.2041  0.0258 -0.2949
13858W        W30042   3.205   9.247  13.922 -0.1294  0.1798  0.2475
13859W        W30043   2.386  15.317   4.983 -0.2872 -0.0608 -0.1659
13860W        W30044  13.640   5.651  12.646 -0.0301 -0.0005  0.2323
13861W        W30045   3.397  12.069   4.100  0.3674  0.2363 -0.1787
13862W        W30046  17.222  16.916  16.037 -0.0369 -0.1099  0.0403
13863W        W30047   2.196   4.802   6.179 -0.0603  0.0904 -0.0390
13864W        W30048   7.976  11.671  15.699  0.3215 -0.1659 -0.0697
13865W        W30049   9.686  16.039   5.090  0.2732  0.2646 -0.0426
13866W        W30050   4.450   2.106  12.965 -0.1491  0.0750  0.0873
13867W        W30051   4.755  15.627   1.950  0.1321  0.2224 -0.0454
13868W        W30052   8.539   7.710  13.575  0.0346 -0.0888  0.2787
13869W        W30053   7.164  13.478  13.015 -0.0527  0.0573 -0.0374
13870W        W30054   6.063   4.382  11.656 -0.2413  0.2267  0.0626
13871W        W30055   4.143   9.336   5.060 -0.2484 -0.0704  0.2080
13872W        W30056   0.045   0.457   3.906  0.0557 -0.0318  0.0471
13873W        W30057  16.789   1.596  11.697  0.0898 -0.1502  0.0436
13874W        W30058  10.158   3.275   0.085 -0.2954 -0.4750  0.0567
13875W        W30059   1.660   7.870   3.894 -0.1754  0.1774  0.1706
13876W        W30060  14.440  10.638   0.784  0.0001 -0.1919 -0.2123
13877W        W30061   0.644   8.572  11.240 -0.0636  0.3110  0.1084
13878W        W30062   3.887  15.987  12.186 -0.0231  0.0852 -0.1959
13879W        W30063  10.441   0.872   3.657  0.1015 -0.0502  0.0979
13880W        W30064   3.584   3.943   1.236  0.1823 -0.2191 -0.0482
13881W        W30065   2.614   1.476   0.757  0.2826 -0.0730  0.1479
13882W        W30066   2.495  15.269  15.500  0.0608  0.3593 -0.0283
13883W        W30067  12.687   1.468   2.330 -0.1468  0.1376  0.2645
13884W        W30068   7.579  17.363   4.304 -0.1689 -0.2397 -0.0175
13885W        W30069   9.495   7.511   3.553 -0.1557 -0.2086 -0.0928
13886W        W30070  16.978   3.343  14.196  0.0627  0.0909  0.0520
13887W        W30071   7.732   0.697   5.219 -0.1940  0.1020 -0.2604
13888W        W30072  14.640   6.070  12.063  0.0656 -0.0152 -0.3151
13889W        W30073   0.741  12.361  14.001 -0.0812 -0.1268 -0.3258
13890W        W30074  15.755   9.972  15.238 -0.1041 -0.1278 -0.0774
13891W        W30075   4.695  10.142   2.326  0.1354  0.0925  0.0278
13892W        W30076   6.177   7.524   0.982  0.1622  0.0152  0.0085
13893W        W30077  15.657  13.158   5.278 -0.0081  0.0674  0.2843
13894W        W30078  16.296  14.771  15.589 -0.0389  0.0382  0.0012
13895W        W30079   8.442   0.611  11.695  0.1619  0.1166 -0.0925
13896W        W30080   1.481   8.679  14.854  0.0926 -0.0899  0.2765
13897W        W30081  15.946  10.763   1.225 -0.0812 -0.0093  0.1021
13898W        W30082   5.971   7.048   1.012 -0.1347 -0.3844 -0.0396
13899W        W30083  10.156   3.379   2.726  0.1006 -0.0395  0.0974
13900W        W30084  11.525  11.956   3.084 -0.3153 -0.0648  0.2312
13901W        W30085  14.511   9.074  12.074  0.1966 -0.2101  0.0040
13902W        W30086   4.812   4.437  13.095 -0.1622  0.0387  0.1145
13903W        W30087  16.862   3.483   0.061 -0.1820  0.1360 -0.2471
13904W        W30088   5.325   8.746   2.970  0.0066 -0.2520 -0.0867
13905W        W30089   7.112  14.991   3.078 -0.0156 -0.0968 -0.5613
13906W        W30090  14.659   9.013  11.319  0.1294  0.0282 -0.0065
13907W        W30091  16.600  11.523  13.606 -0.0294 -0.0672  0.1374
13908W        W30092  15.030  16.747  11.222 -0.2516  0.2154  0.1269
13909W        W30093  16.329   4.226  11.801 -0.0229 -0.0507  0.1857
13910W        W30094  17.502   6.673   5.435 -0.0045  0.0004 -0.1829
13911W        W30095   2.782  14.743   0.103 -0.3753 -0.0998  0.0331
13912W        W30096   1.688  15.864  12.965  0.2576  0.3739  0.0463
13913W        W30097   1.919   3.184   4.307  0.1269 -0.0500 -0.0043
13914W        W30098  12.198   6.349   4.281 -0.2183  0.2192  0.0401
13915W        W30099   8.313   2.066  16.412 -0.0228  0.0639 -0.0126
13916W        W30100   1.728  15.902  11.070  0.2076  0.1696 -0.0198
13917W        W30101  15.970   1.768   4.632  0.2691 -0.1227 -0.1592
13918W        W30102  11.730  15.492   4.467 -0.0109  0.3818 -0.0903
13919W        W30103  11.036   7.979  13.719  0.0431  0.0322  0.0676
13920W        W30104   8.240   1.093  16.664 -0.3185 -0.0737 -0.0743
13921W        W30105   0.980   1.749  14.559  0.0790 -0.0988 -0.2532
13922W        W30106   9.723  13.285  12.222  0.1976 -0.1012 -0.1294
13923W        W30107   3.129   9.529   1.580 -0.1643  0.0791 -0.1709
13924W        W30108   0.739  10.850   4.980 -0.1119  0.0269  0.0904
13925W        W30109   4.677  11.531  14.322  0.2232  0.3361 -0.2124
13926W        W30110   8.338   5.921   1.319 -0.0093 -0.2124  0.0453
13927W        W30111   3.869   3.636  12.189  0.0282 -0.3157 -0.2561
13928W        W30112  10.970   2.956  15.859  0.2584  0.3488 -0.2620
13929W        W30113  17.845   2.822   5.894  0.0752  0.0302 -0.2623
13930W        W30114   6.618   0.071   0.981 -0.1879 -0.0230 -0.2567
13931W        W30115  12.983   9.578  15.703 -0.2920 -0.2011  0.1846
13932W        W30116   9.411  16.218   2.825  0.4012  0.0049  0.0679
13933W        W30117   0.706   3.144  16.408 -0.4003 -0.0294 -0.0571
13934W        W30118   6.078   7.242   5.150  0.2805  0.0229  0.1684
13935W        W30119   4.109  17.067  14.574 -0.0523  0.5145  0.0120
13936W        W30120  12.658   6.899   4.067  0.2850  0.2743 -0.0279
13937W        W30121   0.887   9.905  14.181 -0.1888 -0.0668 -0.2259
13938W        W30122   0.603   2.027   0.405 -0.2185 -0.2669  0.1157
13939W        W30123   6.612   1.197  16.040 -0.0075  0.3639 -0.3221
13940W        W30124  11.264   6.561   0.746 -0.0867  0.2668  0.3001
13941W        W30125   5.376   0.359   4.642 -0.0232 -0.1005 -0.1166
13942W        W30126   8.584   5.281  11.935 -0.1023 -0.0780 -0.2121
13943W        W30127   5.576   8.395  14.987 -0.1101  0.1203 -0.1140
13944W        W30128  15.653  17.949  11.343  0.0489 -0.2059  0.1306
13945W        W30129  14.416   3.098  13.974 -0.0629  0.0306 -0.0884
13946W        W30130   0.507   7.899  12.885  0.3077  0.1553  0.1024
13947W        W30131   5.574  14.498  15.434 -0.2173  0.1109  0.0275
13948W        W30132   4.548  15.219  11.647  0.1563  0.1135  0.1790
13949W        W30133   4.108   0.831  16.328 -0.0956 -0.0328 -0.0373
13950W        W30134   4.585  10.807  15.485 -0.0029 -0.1873 -0.3229
13951W        W30135  11.865   6.789   5.982  0.1304 -0.1278  0.2031
13952W        W30136   8.887   8.804  15.435 -0.0917 -0.3370 -0.2450
13953W        W30137   2.526   3.617   5.251  0.1387 -0.0527  0.2956
13954W        W30138  15.199   1.775  13.145  0.3176  0.2237  0.1558
13955W        W30139  11.578  10.015   5.321  0.0049  0.0099 -0.0786
13956W        W30140   6.259   2.089   3.655  0.0522 -0.0189 -0.0053
13957W        W30141   4.874   4.928   0.465  0.0510 -0.3022  0.2716
13958W        W30142  11.247  12.414  14.806  0.0063 -0.2433 -0.3901
13959W        W30143  13.804   9.514  15.637 -0.0142 -0.1825  0.0001
13960W        W30144   4.983  12.739   0.640 -0.1662  0.2640  0.1680
13961W        W30145  12.352   4.279  14.231 -0.3018 -0.4183  0.2317
13962W        W30146   1.881   7.323  12.821 -0.0956 -0.1883 -0.2018
13963W        W30147   8.006  16.629   4.742  0.1145  0.2423  0.2002
13964W        W30148   7.447  17.723   5.244 -0.0818 -0.1798 -0.0273
13965W        W30149  12.485  15.296   2.171 -0.0856 -0.2568  0.1737
13966W        W30150  14.023  16.547   1.953  0.1072 -0.3448  0.0547
13967W        W30151   8.804  10.129   0.560 -0.1284 -0.3268  0.1301
13968W        W30152   9.669  16.038   4.047 -0.0023 -0.1466  0.0244
13969W        W30153  13.707   5.046  16.196  0.3044 -0.1110  0.1765
13970W        W30154   8.742   1.772  15.803 -0.1437  0.0077  0.2177
13971W        W30155   0.665  12.304  10.451 -0.1701 -0.2288 -0.0480
13972W        W30156   3.214  10.388  14.098 -0.0704  0.1569 -0.0407
13973W        W30157  17.111  17.283  16.509  0.2015  0.0256  0.0083
13974W        W30158   8.347  13.951   0.113 -0.1165 -0.0902  0.0420
13975W        W30159   6.599   2.027  13.184 -0.0170 -0.2153  0.1288
13976W        W30160   7.381  14.883   4.838 -0.0595  0.0982  0.2671
13977W        W30161  17.076   9.708   5.143 -0.1033  0.0644  0.0205
13978W        W30162  12.595  10.098   3.747  0.0530 -0.1040  0.0278
13979W        W30163  12.632  16.950  12.632  0.0270 -0.1327  0.2053
13980W        W30164   2.405   4.858  12.067  0.0443 -0.2560 -0.2208
13981W        W30165   0.830  16.541   2.209  0.2150  0.0537 -0.0297
13982W        W30166   8.933   8.314   4.782  0.2279 -0.1744  0.0815
13983W        W30167   4.249   1.677  16.025  0.1033 -0.2513 -0.1398
13984W        W30168   7.533  12.130   1.339 -0.1265  0.1917 -0.1574
13985W        W30169  10.218   7.220   0.264 -0.1460 -0.0108 -0.0015
13986W        W30170   9.820  16.941   1.732  0.0313  0.1405 -0.0333
13987W        W30171  15.655  14.212   4.596 -0.0418 -0.2372 -0.2668
13988W        W30172  10.749  15.335   3.063  0.2120 -0.1989  0.0116
13989W        W30173   6.177   8.128  16.115  0.2986 -0.0378  0.1874
13990W        W30174  11.587  17.887  12.378 -0.2618 -0.3891  0.1575
13991W        W30175   3.681  16.711  11.529 -0.1476 -0.2243 -0.2139
13992W        W30176   1.738   7.643   2.875  0.2548  0.1190 -0.2006
13993W        W30177   8.752  15.872   1.042  0.1716  0.0368 -0.0377
13994W        W30178  12.670  10.364   4.894 -0.2950  0.2715  0.0900
13995W        W30179   2.028   9.777  14.820 -0.2423 -0.1683 -0.2596
13996W        W30180   0.899  12.775  15.545 -0.1647  0.0306  0.0632
13997W        W30181   4.655  13.797  13.612  0.1788 -0.3529  0.2649
13998W        W30182  13.511   1.406  15.030 -0.0276  0.1192  0.0265
13999W        W30183   1.620   0.710   1.388 -0.5978  0.1337 -0.1599
14000W        W30184   7.727   7.313  15.163 -0.0744 -0.1806 -0.1590
14001W        W30185  14.699   4.541  13.479  0.0381  0.1571  0.1280
14002W        W30186   3.053   5.044   5.007 -0.4367 -0.1269 -0.5063
14003W        W30187   7.439  10.607   3.702 -0.2817  0.1055 -0.5023
14004W        W30188   0.398   3.890  13.639  0.0562 -0.0519 -0.0420
14005W        W30189   1.965   4.374  13.641  0.2189  0.0230  0.0509
14006W        W30190   9.303  11.509   3.196 -0.1682  0.0605  0.1355
14007W        W30191   8.891   3.653   0.582 -0.1899  0.1143 -0.2320
14008W        W30192   4.480   6.344   1.252 -0.0520  0.1555 -0.1974
14009W        W30193   4.480  10.075  13.248  0.1603  0.0067 -0.2854
14010W        W30194   2.240  12.172   5.070  0.3320  0.2431 -0.1286
14011W        W30195  10.488  16.070   0.349  0.4126  0.3834 -0.0049
14012W        W30196  14.826   7.466   5.679 -0.1784 -0.0461 -0.1670
14013W        W30197   8.718   7.359   0.437 -0.2996 -0.1057 -0.1646
14014W        W30198  14.575   4.014  13.694 -0.1932 -0.0881 -0.0602
14015W        W30199  11.572   1.842   3.077  0.1898 -0.4107  0.2092
14016W        W30200   7.982   6.907  12.383 -0.0710 -0.0230 -0.2146
14017W        W30201   7.573  13.130  10.517  0.2487 -0.2343 -0.2499
14018W        W30202  10.192   6.480   0.912  0.0490  0.0341  0.1851
14019W        W30203   1.252   7.247   4.779  0.2072 -0.1236 -0.0222
14020W        W30204   2.588  14.674   6.124 -0.1367  0.0722 -0.0142
14021W        W30205   2.951  12.529   3.333 -0.1810  0.0213 -0.2470
14022W        W30206   6.539   0.464  15.468 -0.0616  0.2318 -0.1066
14023W        W30207   8.663   1.630  12.172 -0.1651  0.1664 -0.1938
14024W        W30208   7.844  10.478  12.162  0.0233  0.1000  0.1771
14025W        W30209   5.617   8.426  16.045 -0.3388 -0.0906  0.1523
14026W        W30210  15.454   0.424  13.063  0.0040  0.2274 -0.0746
14027W        W30211   0.058  15.533   3.424  0.0611 -0.0851 -0.3634
14028W        W30212   8.560   1.204   1.879 -0.1942  0.2091 -0.2040
14029W        W30213   7.243   2.233  12.884 -0.3264 -0.0053  0.2591
14030W        W30214   4.597   8.367   0.572 -0.0665 -0.1057 -0.0418
14031W        W30215  16.406  15.180  13.747 -0.0993 -0.2271  0.2724
14032W        W30216  14.176  16.534  15.141  0.0944 -0.1259  0.1241
14033W        W30217   2.746  10.171  13.857  0.2759 -0.1254  0.3844
14034W        W30218  15.897  17.108   4.862  0.1392  0.0598  0.0625
14035W        W30219   5.074   0.169  13.369 -0.2760 -0.0363 -0.0116
14036W        W30220  16.019  13.124  14.990 -0.2404 -0.0804 -0.2153
14037W        W30221   2.965  10.950  12.157  0.1065 -0.0794 -0.1691
14038W        W30222  14.226  14.117   0.066  0.2017 -0.0920  0.1743
14039W        W30223  13.889   1.138   2.192 -0.2184  0.0883 -0.2213
14040W        W30224  10.738   3.384  13.868 -0.0856 -0.1430  0.1538
14041W        W30225   1.074  11.513  15.557 -0.1482  0.1632  0.0551
14042W        W30226   5.215  11.693  13.325  0.0402  0.0823 -0.1347
14043W        W30227   6.357   8.578  13.058  0.0116  0.1584  0.1908
14044W        W30228  12.933   1.494   4.407 -0.0366  0.0210  0.0005
14045W        W30229   0.191   5.964  15.896  0.1373  0.0704 -0.1919
14046W        W30230   6.392   0.252   4.759 -0.1181 -0.0853  0.1226
14047W        W30231   0.607  16.883   5.482 -0.1282 -0.1585 -0.2140
14048W        W30232   2.404   2.950  15.069  0.1775  0.0101 -0.2717
14049W        W30233   7.857   6.567   5.516  0.1996 -0.0885  0.3254
14050W        W30234   6.513   8.694   3.661 -0.1213  0.0214 -0.0069
14051W        W30235  13.369   5.582   2.625  0.1069  0.2535 -0.1150
14052W        W30236   6.631  15.978  12.348 -0.0473  0.2885 -0.2096
14053W        W30237   5.352   6.900  13.219 -0.2849 -0.0871 -0.2018
14054W        W30238   1.437   0.071  14.946 -0.0120  0.2775  0.1771
14055W        W30239   4.091  11.020  15.458  0.1149 -0.1783 -0.0615
14056W        W30240   7.008   6.206  15.539  0.0381 -0.0231 -0.4053
14057W        W30241  15.932   3.945  13.325 -0.0882 -0.0854  0.1961
14058W        W30242   2.796   5.759  13.563 -0.2158 -0.1977 -0.1414
14059W        W30243  17.081  13.958   2.245  0.0749 -0.0198 -0.2433
14060W        W30244   4.182   3.953  13.000 -0.1093  0.0740 -0.1729
14061W        W30245   2.896   6.266   0.175 -0.0694  0.0520  0.0869
14062W        W30246  12.364  10.580   4.515  0.2321 -0.2846  0.0374
14063W        W30247  17.309  17.944  16.575 -0.1800  0.1413 -0.3248
14064W        W30248   9.901   8.336   0.544 -0.1422  0.1301  0.2933
14065W        W30249   7.437  17.271   2.981  0.0406 -0.2014  0.0023
14066W        W30250   7.987   1.883  15.139 -0.1442 -0.1956 -0.0867
14067W        W30251  13.080   9.525  12.337 -0.4509 -0.1373 -0.0438
14068W        W30252   2.077   1.739  14.405 -0.0328 -0.1824  0.1425
14069W        W30253   5.351  12.234   1.335  0.1718 -0.0251 -0.2541
14070W        W30254   2.084  14.986   3.404  0.3280 -0.0724 -0.0986
14071W        W30255  11.130   0.909   3.482  0.0524  0.1376 -0.4084
14072W        W30256  12.219   7.240   5.380 -0.2572 -0.2243 -0.0409
14073W        W30257   2.327  10.717   2.014  0.0981  0.3673  0.4355
14074W        W30258   5.802  15.730   4.460  0.0645 -0.3372  0.0985
14075W        W30259   2.371   1.197  16.489 -0.1733 -0.0803 -0.0827
14076W        W30260  16.073   8.671  13.044  0.2434  0.3529  0.3664
14077W        W30261   9.273  11.093   2.885 -0.0155 -0.0133 -0.0726
14078W        W30262  11.684   6.542   5.045  0.2326 -0.0645 -0.4858
14079W        W30263  15.493  10.820   5.577 -0.1625  0.0549 -0.1143
14080W        W30264   3.807  11.886  16.557  0.0838 -0.0638 -0.0855
14081W        W30265   5.343  11.482   1.135  0.1806  0.0976 -0.0411
14082W        W30266   8.900  12.224   1.026 -0.0877 -0.0860  0.2165
14083W        W30267  10.557  13.614  13.690 -0.1259  0.1629 -0.0104
14084W        W30268  17.928   7.412  15.927  0.1482  0.0036 -0.0873
14085W        W30269  12.614  10.132  13.085  0.3839  0.0991  0.2314
14086W        W30270   8.846   5.586  12.260  0.0434 -0.3099 -0.1100
14087W        W30271   3.769  10.999  12.710  0.0453 -0.1476  0.1080
14088W        W30272   2.939  11.754  14.527  0.2562  0.1956  0.0486
14089W        W30273   3.509   3.263  16.600  0.1002  0.0817 -0.0136
14090W        W30274   5.627  14.068  15.658 -0.0316  0.0891 -0.2142
14091W        W30275   6.536  15.226  14.791  0.1460 -0.2527 -0.0626
14092W        W30276  13.444  14.036  12.604  0.1327  0.0294 -0.0299
14093W        W30277   1.071  14.349  13.269  0.1343 -0.2067  0.2627
14094W        W30278   3.264   7.095  11.080  0.0006  0.0859  0.2552
14095W        W30279   3.762  12.821   4.597  0.3520  0.0969 -0.1320
14096W        W30280  12.349   2.640   4.699  0.1504  0.2820 -0.1072
14097W        W30281   9.040  17.917  13.321 -0.1617  0.2021  0.1424
14098W        W30282  13.269   1.364  11.948 -0.0591  0.1169  0.0112
14099W        W30283  17.293   2.395   2.323 -0.1117  0.1696 -0.0054
14100W        W30284  14.327   9.522   1.095  0.1383 -0.0250  0.0761
14101W        W30285   1.626   1.586  14.595 -0.3025  0.1988  0.1789
14102W        W30286   3.515   0.356   0.889 -0.0764  0.2272  0.2016
14103W        W30287   4.957   2.745  12.003  0.1332 -0.0635 -0.2933
14104W        W30288  12.359  14.458   5.297  0.0348  0.1129  0.3193
14105W        W30289  14.081   3.675   2.286  0.0913  0.0060 -0.1908
14106W        W30290   4.704  15.543  12.832  0.2774 -0.0035 -0.0030
14107W        W30291  13.083  11.906  12.449  0.1690  0.1853 -0.1450
14108W        W30292  15.107  17.406   5.301  0.0639  0.1404 -0.0154
14109W        W30293  10.287  11.349   3.471 -0.2458  0.0511  0.1073
14110W        W30294   6.237  16.729  13.927  0.0188  0.6455  0.0075
14111W        W30295   8.518   8.862   1.820 -0.1260  0.0643  0.1354
14112W        W30296   5.270   5.046   2.585 -0.1316 -0.0789  0.1132
14113W        W30297   4.784   7.870  14.234  0.2004  0.2009  0.0648
14114W        W30298  10.717  16.942  15.703 -0.1756 -0.0894  0.1334
14115W        W30299   7.097  15.645   5.308  0.0637 -0.0304 -0.2509
14116W        W30300   6.333   7.259  14.763 -0.3107 -0.1322  0.0420
14117W        W30301   0.106   9.248   4.285 -0.0201 -0.1395  0.1983
14118W        W30302  16.810   1.089  15.275 -0.2142  0.3747 -0.0234
14119W        W30303   0.498   1.477   1.464 -0.1712  0.0209  0.0739
14120W        W30304   9.045   8.496   5.448  0.1841  0.1266  0.0568
14121W        W30305   5.239  12.215  13.136 -0.2425  0.1122  0.2962
14122W        W30306   7.251  15.325   0.664 -0.0258  0.3063  0.0450
14123W        W30307   4.848  17.265   5.291  0.1132 -0.0846  0.0184
14124W        W30308  10.448   2.603  16.460  0.2380  0.0478  0.1449
14125W        W30309  17.755   7.611   1.814 -0.0363  0.0049  0.0977
14126W        W30310   2.093  14.792   0.265  0.2632 -0.1112 -0.0741
14127W        W30311   1.832   9.189   0.360  0.0060 -0.1430 -0.2655
14128W        W30312   6.426   0.195  13.671 -0.0678  0.0619  0.2516
14129W        W30313  16.131  12.146  11.488  0.0122 -0.4669  0.0375
14130W        W30314  14.796   4.268  11.565  0.4195 -0.0632  0.2088
14131W        W30315  17.086   2.093  10.916 -0.0908 -0.1213  0.0897
14132W        W30316   3.203   5.888   0.807  0.1826 -0.1313 -0.0652
14133W        W30317   8.707   5.329   5.400  0.1833 -0.2247 -0.2666
14134W        W30318   4.503   9.314  16.591  0.0190 -0.0255  0.0648
14135W        W30319  12.157  10.276   3.641 -0.0095  0.0462  0.2608
14136W        W30320   3.830  10.949   2.744  0.1075 -0.0926 -0.4840
14137W        W30321   6.366   2.765  12.728 -0.0746  0.1785 -0.1394
14138W        W30322   3.243   4.183  14.207  0.2043 -0.0960 -0.3536
14139W        W30323  17.829   1.253  14.296 -0.2102  0.3016 -0.0022
14140W        W30324   5.884  16.610   2.274  0.1018 -0.2030  0.1103
14141W        W30325  13.241   5.973  14.154 -0.0072 -0.1818 -0.0447
14142W        W30326  16.938  10.441  12.684  0.0302  0.5305  0.2000
14143W        W30327   7.484  11.387   0.205  0.0273 -0.1413 -0.0136
14144W        W30328   3.376   0.458   6.126  0.1157 -0.1625 -0.0245
14145W        W30329   5.242   1.582   4.728  0.2968 -0.4249  0.2651
14146W        W30330   9.981  13.078   3.435  0.0596  0.1585  0.3100
14147W        W30331  13.542  17.297  12.319 -0.0792  0.3238 -0.1113
14148W        W30332   0.141   5.590   0.772  0.2942  0.0229  0.1325
14149W        W30333   1.783  17.200  16.100  0.2578  0.1561  0.3350
14150W        W30334   0.280   8.989   3.168  0.0816  0.3823  0.3370
14151W        W30335   3.286  11.658   4.503 -0.0011 -0.3309 -0.0134
14152W        W30336   3.043   4.626   0.994 -0.1827  0.0508 -0.0158
14153W        W30337  16.398   6.354   1.931  0.0734  0.3286 -0.0316
14154W        W30338  12.464  10.079   0.055 -0.0946 -0.1033 -0.0748
14155W        W30339   6.843  11.136  11.688  0.1588 -0.1388 -0.0554
14156W        W30340  13.816   8.594   2.909  0.2689  0.0391 -0.2250
14157W        W30341   2.549   0.752   4.683  0.0207 -0.1277  0.2839
14158W        W30342  14.434   0.856  13.787  0.1975 -0.0014 -0.1536
14159W        W30343   7.695  15.658   0.983  0.1659 -0.1099 -0.0427
14160W        W30344  13.286  13.842  16.585  0.0268 -0.3621  0.4522
14161W        W30345   5.540  17.229  12.779 -0.0603  0.0717  0.1001
14162W        W30346   0.245  14.310  13.351 -0.0865 -0.1835  0.2393
14163W        W30347   1.139  10.416  15.288 -0.0960 -0.0414  0.0949
14164W        W30348  12.472  11.636   0.838 -0.0718  0.1124  0.1306
14165W        W30349  11.952  12.879  14.554  0.4659 -0.0060  0.4443
14166W        W30350  12.825   5.080  12.064 -0.0470  0.1646  0.0464
14167W        W30351  13.390   4.457  15.665  0.2133 -0.0415 -0.0872
14168W        W30352   0.109   1.931   4.184 -0.1360  0.2507 -0.1428
14169W        W30353  16.865   1.598  16.640 -0.0833 -0.0756 -0.3001
14170W        W30354   4.826   4.837  15.895  0.1680  0.0162 -0.1239
14171W        W30355  10.925   7.847   2.962  0.5179 -0.0300 -0.1216
14172W        W30356  16.717   3.395   4.945  0.2030 -0.0819  0.0410
14173W        W30357   5.361   2.126   6.128 -0.0502 -0.0303  0.2695
14174W        W30358   0.338   2.654   5.533 -0.1738  0.0363 -0.0275
14175W        W30359  16.729  17.646   3.836 -0.0069 -0.2981 -0.2213
14176W        W30360  17.986   8.523   1.986 -0.0176 -0.1893  0.0791
14177W        W30361   6.127   8.373   2.588  0.2664  0.4599  0.0619
14178W        W30362  17.288   9.368  11.408 -0.0494 -0.0285 -0.0044
14179W        W30363  17.850  17.671   2.687 -0.1577  0.0843  0.0423
14180W        W30364  13.633   0.102  10.957  0.1915  0.0700  0.0255
14181W        W30365  12.265   9.382  12.354  0.0069  0.2542  0.0271
14182W        W30366  17.282  16.262  15.692  0.0557  0.1016  0.1460
14183W        W30367  10.112  15.159   4.795  0.3492 -0.0757  0.0827
14184W        W30368   5.833  13.399   5.498  0.0435  0.0898 -0.1240
14185W        W30369   2.523  12.304  13.096 -0.0102  0.1374  0.1262
14186W        W30370  17.357  14.164  11.788 -0.1038 -0.4227 -0.0830
14187W        W30371  15.048  13.653   1.313  0.1231  0.2543 -0.2464
14188W        W30372  17.065  17.657  12.735 -0.1366  0.3132 -0.1141
14189W        W30373  14.715   6.355   1.105 -0.0220  0.1466  0.0593
14190W        W30374  14.704  14.912  12.149 -0.0933  0.0290  0.0984
14191W        W30375  14.640   2.004  16.051 -0.0025 -0.2137  0.2275
14192W        W30376   2.198   5.984  12.344  0.2510  0.0019 -0.2312
14193W        W30377  12.189   1.012   5.630 -0.5656 -0.2231 -0.0439
14194W        W30378  16.986  16.078  13.513  0.3364 -0.1004  0.0849
14195W        W30379  16.476  12.004   1.827  0.0439 -0.2514 -0.4151
14196W        W30380   2.362   4.063  16.294 -0.0035 -0.0054  0.0631
14197W        W30381   7.029   6.138   5.931  0.2208 -0.2089 -0.3666
14198W        W30382   1.809  16.857   5.622  0.0678  0.0891  0.0773
14199W        W30383  17.798  16.172   2.896 -0.3776  0.1196  0.0821
14200W        W30384   6.450   8.967  12.125 -0.0448  0.0155  0.1793
14201W        W30385   9.354  15.537  11.206 -0.1554 -0.0470 -0.2363
14202W        W30386  12.844   5.122   0.860  0.0593 -0.1346  0.1365
14203W        W30387   3.196  14.459   5.058  0.0978  0.1720 -0.0558
14204W        W30388  12.481  12.881  12.317  0.0691  0.4122 -0.2023
14205W        W30389  13.730  15.332   4.778  0.0254 -0.1126  0.0476
14206W        W30390   8.686  14.872   1.298 -0.0162  0.0854 -0.2875
14207W        W30391   1.132  11.245   1.427  0.0338 -0.2226 -0.1505
14208W        W30392  10.658  10.348  12.573 -0.2822  0.3563  0.0087
14209W        W30393  13.418  13.164  11.686 -0.2114  0.0169  0.1064
14210W        W30394  11.523   8.880  13.791  0.0604  0.0743 -0.1408
14211W        W30395  13.913  14.542   2.617  0.2790 -0.1029  0.0889
14212W        W30396   7.521   6.840  12.932  0.1635 -0.1037 -0.1136
14213W        W30397  11.107  10.140  16.506 -0.0304  0.4122 -0.1063
14214W        W30398   1.818   2.680   1.262  0.1690  0.1131 -0.2376
14215W        W30399  17.793  13.512  12.395  0.2055 -0.3314  0.3578
14216W        W30400   6.244   2.307   2.245 -0.2292  0.0404  0.1983
14217W        W30401   7.107  13.447  11.832  0.1120 -0.1518 -0.1359
14218W        W30402   6.479  17.698  13.555  0.1162 -0.4337  0.1001
14219W        W30403   2.426   2.008   0.311  0.2475 -0.0606 -0.0637
14220W        W30404   1.989  13.701   4.705 -0.2095  0.0068 -0.2765
14221W        W30405  17.335  17.187   1.681 -0.1484  0.0010  0.0835
14222W        W30406   2.598   8.063   1.549 -0.1396  0.4350 -0.0471
14223W        W30407   8.161   3.446   0.020 -0.2917 -0.0680 -0.2791
14224W        W30408  12.248  11.257   4.477 -0.2745 -0.0787 -0.0444
14225W        W30409   5.968   0.343  16.178 -0.3780  0.1645 -0.3518
14226W        W30410  11.656  14.881   3.565  0.1545  0.1868  0.2187
14227W        W30411   2.803  13.950   3.569 -0.1142 -0.0614 -0.1888
14228W        W30412  14.335   2.650  13.390  0.0332 -0.0166  0.0868
14229W        W30413   7.842  11.283  15.195 -0.1319  0.0405  0.0491
14230W        W30414   9.486   8.805  11.607 -0.0115 -0.0589  0.0560
14231W        W30415  11.884   1.717  15.779 -0.0337 -0.0537 -0.1720
14232W        W30416   2.817   8.892   1.979  0.0161  0.4679 -0.1203
14233W        W30417   8.239  10.102   1.437 -0.0861  0.2697  0.0437
14234W        W30418  17.081   7.381  15.476  0.0770 -0.3447 -0.1348
14235W        W30419   4.002   9.063  15.732  0.1121  0.0992  0.1804
14236W        W30420  15.915   4.284   4.358  0.0765  0.1117  0.4181
14237W        W30421   1.086   4.141   4.421  0.0694  0.0414  0.0363
14238W        W30422  14.911   1.250  11.195 -0.1270  0.3100 -0.1328
14239W        W30423  16.849  12.545   2.842 -0.2912 -0.0686 -0.0997
14240W        W30424  17.201   4.510  14.921  0.1031 -0.2328  0.2335
14241W        W30425   9.894  16.109  11.902  0.6219  0.3362  0.0962
14242W        W30426   9.932   1.907   2.531  0.2288 -0.1028 -0.1802
14243W        W30427   5.875  16.205  14.000 -0.2849 -0.1162  0.1203
14244W        W30428  13.066  15.838   3.290 -0.0409  0.3202 -0.0330
14245W        W30429   2.594   0.366  12.410 -0.1563 -0.1135  0.5030
14246W        W30430  17.832  15.077  15.270 -0.0119 -0.0124 -0.4414
14247W        W30431  13.564   0.865  12.183 -0.0829  0.2441  0.1723
14248W        W30432  13.924   3.316   4.023  0.0654  0.1265 -0.1310
14249W        W30433   0.733   1.580   2.386 -0.1493  0.0474 -0.1823
14250W        W30434   1.908   7.555   1.248  0.1598 -0.0037  0.1210
14251W        W30435   9.743  11.728   0.850 -0.1177  0.1041 -0.1226
14252W        W30436   1.078  14.922  12.208 -0.0193 -0.1341 -0.0260
14253W        W30437  17.762  11.688   5.587 -0.3245  0.0665  0.0893
14254W        W30438   8.177  10.481  11.472 -0.0099 -0.0809  0.1303
14255W        W30439  13.518   5.967  13.012  0.0811  0.3340  0.0254
14256W        W30440   2.038   7.263   2.248  0.3711 -0.1742 -0.1298
14257W        W30441   0.668   5.176   5.222  0.1559 -0.1630  0.0636
14258W        W30442  16.435  11.230   3.293  0.0637  0.2073 -0.2048
14259W        W30443  17.216   5.023   1.563 -0.1506 -0.0515 -0.2496
14260W        W30444  15.002  14.802  16.617  0.3086 -0.1483 -0.1445
14261W        W30445   7.715  12.844  15.756  0.1999 -0.0604 -0.1023
14262W        W30446  10.822  10.996  10.773 -0.0495  0.2274 -0.0165
14263W        W30447   2.302  13.512  16.276  0.1793 -0.1995 -0.1229
14264W        W30448   7.789  11.771  16.132 -0.0124 -0.0972  0.1107
14265W        W30449  17.765  12.617   3.901 -0.1193 -0.0904  0.2016
14266W        W30450  12.976  17.235  14.972  0.0266 -0.1496  0.4697
14267W        W30451   5.951  11.150   2.821  0.0147 -0.0861  0.0025
14268W        W30452  17.125  10.354  14.447  0.1328  0.0291 -0.1088
14269W        W30453   9.317   3.450   1.612  0.3284  0.1012  0.0453
14270W        W30454   0.307  13.282  12.732 -0.2511 -0.0482 -0.1353
14271W        W30455   5.892   1.338  13.088 -0.1971 -0.0637 -0.3601
14272W        W30456   2.449  16.089  13.351  0.1729 -0.0720  0.0285
14273W        W30457   4.798  13.553  13.214  0.1194  0.0017  0.1809
14274W        W30458   8.758  11.902  13.213 -0.0763  0.0818 -0.1699
14275W        W30459  14.475  10.772   3.543 -0.0454 -0.1161  0.1454
14276W        W30460   9.220  11.090  13.375  0.0783 -0.1954  0.0961
14277W        W30461  17.649  10.580   4.908  0.0354  0.2660 -0.0096
14278W        W30462  10.775   7.689  12.395  0.0403  0.0369 -0.4620
14279W        W30463   3.249   0.134  14.635 -0.2653  0.0415 -0.1202
14280W        W30464   4.984  13.379  14.724  0.0401 -0.1917  0.0472
14281W        W30465  11.940  10.838   4.751  0.1647  0.4684 -0.1060
14282W        W30466  12.407  10.355   5.782 -0.2313  0.0533  0.1117
14283W        W30467  12.180   6.332   0.712  0.0124  0.0582 -0.0259
14284W        W30468  11.028  13.334   1.314  0.0692  0.0983 -0.0719
14285W        W30469  15.329   4.815   4.591 -0.0687  0.0166 -0.2326
14286W        W30470   6.628  15.966   4.476  0.1023 -0.0376  0.0979
14287W        W30471  12.511   5.657   3.643  0.2025  0.0120 -0.0097
14288W        W30472   0.417  12.957   0.676  0.0836 -0.0577 -0.3070
14289W        W30473  15.084  10.838   5.301  0.2020  0.0695 -0.3014
14290W        W30474   7.992  11.416  16.587  0.0493  0.2989  0.1784
14291W        W30475  16.054   6.337   1.340  0.0435  0.1345  0.3948
14292W        W30476  12.419   1.626  13.817  0.2881  0.0785  0.3812
14293W        W30477  15.098   6.719  16.111 -0.1735 -0.0963  0.2317
14294W        W30478   2.567   8.010   3.887 -0.1883 -0.0124  0.1542
14295W        W30479  14.380   4.640   4.700  0.1606  0.1521  0.1415
14296W        W30480  10.741   7.653   5.432 -0.0401 -0.3062  0.1253
14297W        W30481  10.553  12.461   5.053  0.1458 -0.3792 -0.1849
14298W        W30482   6.854   7.363  15.126  0.0326  0.2887 -0.0870
14299W        W30483  10.514  10.134   4.304  0.0429  0.1282 -0.3505
14300W        W30484  10.578   0.225  10.498 -0.1332 -0.0576  0.2094
14301W        W30485   2.834  10.132   5.103 -0.2930  0.2051 -0.0143
14302W        W30486   7.401  13.381  12.226 -0.0096  0.0498 -0.0924
14303W        W30487  10.554  12.579   0.232  0.0396  0.0184  0.0387
14304W        W30488  11.364  10.302  13.430  0.1124 -0.1521  0.0915
14305W        W30489   4.269  14.554   0.618  0.1269  0.2518 -0.3869
14306W        W30490   6.398   9.989   1.280  0.0165 -0.0012 -0.1121
14307W        W30491  11.405  13.387   4.241  0.1833 -0.0554 -0.0112
14308W        W30492  16.866   3.880  10.479  0.0619 -0.2504  0.0370
14309W        W30493   2.463  11.198   5.925  0.1234 -0.0765  0.0446
14310W        W30494   1.790  17.720  16.072  0.2532  0.0820 -0.0762
14311W        W30495   9.323   8.546  15.589  0.0241 -0.2545  0.1992
14312W        W30496  14.158   5.365   0.698 -0.0814 -0.1306 -0.1264
14313W        W30497  13.133   1.089  16.681 -0.0894  0.1583 -0.3347
14314W        W30498   4.896  14.203   1.215  0.1316  0.2331 -0.0487
14315W        W30499   0.478   5.208   3.878  0.0023 -0.0136 -0.1800
14316W        W30500   8.889   3.833   5.084 -0.1073 -0.1253 -0.1390
14317W        W30501  13.635  10.215   4.615 -0.3525  0.2356 -0.0599
14318W        W30502   3.257   1.627   5.664 -0.0598  0.1701 -0.2039
14319W        W30503   2.973   5.639  15.770 -0.0732  0.1048  0.1474
14320W        W30504   3.209   2.250   0.493  0.0843 -0.0239 -0.4103
14321W        W30505   7.091   8.197   5.211  0.0540  0.1087 -0.0912
14322W        W30506  10.904   8.993   2.938 -0.2896  0.0687  0.0796
14323W        W30507  14.432   4.578   0.083  0.0780 -0.1505  0.0718
14324W        W30508   7.706  10.884  14.916 -0.3386 -0.2450  0.1794
14325W        W30509   3.246  17.132   0.198 -0.2772  0.0693 -0.1052
14326W        W30510  16.855   5.474  11.799  0.0261 -0.1563 -0.2488
14327W        W30511  11.370   4.955   1.495 -0.0499 -0.3083 -0.1623
14328W        W30512   6.692  13.286  13.912  0.0471 -0.1758  0.2092
14329W        W30513   6.385   0.376  14.273 -0.0422  0.1308  0.1454
14330W        W30514  14.350  16.186  11.910  0.3279 -0.0248 -0.0943
14331W        W30515   7.142  14.241   2.537  0.0379 -0.0285  0.1493
14332W        W30516   9.800   8.890   3.195 -0.1357  0.1852 -0.1163
14333W        W30517   7.563  17.125  16.221 -0.0341  0.1945  0.2002
14334W        W30518   8.709  14.415   0.084  0.1059 -0.0526  0.0571
14335W        W30519  13.273  12.255  11.703  0.0124  0.5603 -0.1912
14336W        W30520   0.042   6.470  11.985 -0.0057  0.0425  0.2483
14337W        W30521   9.494  12.289   2.028  0.0249  0.1758  0.2433
14338W        W30522   8.411   0.101  12.536  0.0234 -0.2356  0.1774
14339W        W30523  17.638   5.184  15.345 -0.1259 -0.1481 -0.1552
14340W        W30524   7.875   7.236  15.680 -0.0495  0.2566 -0.1723
14341W        W30525   9.081   2.949  15.962  0.0160  0.0296 -0.1747
14342W        W30526  16.880  14.215  13.795 -0.0687  0.0983 -0.0602
14343W        W30527   1.009  15.803  16.588 -0.0928 -0.0126 -0.0564
14344W        W30528   3.084  13.038  15.555  0.1179 -0.1093  0.0777
14345W        W30529  16.097  10.257  14.325 -0.3355 -0.4052 -0.1037
14346W        W30530   3.202   5.202  15.709  0.1369 -0.0711 -0.1315
14347W        W30531  14.953   4.661   0.221  0.0534 -0.1021 -0.2311
14348W        W30532   0.297   5.494  15.961 -0.2964 -0.1075  0.0556
14349W        W30533  16.528   8.577   4.779  0.2345 -0.4181  0.0060
14350W        W30534  17.564   4.308   0.138  0.1918 -0.1395 -0.3001
14351W        W30535   6.920  14.139  13.896  0.2813 -0.2043 -0.2232
14352W        W30536   1.867   1.480   6.127 -0.4078  0.0152 -0.0302
14353W        W30537   0.750   6.752   2.400 -0.1384  0.1038  0.1871
14354W        W30538  11.859   4.242  12.830  0.4290  0.0931 -0.3394
14355W        W30539   8.656   7.300  16.496  0.0769  0.0759  0.1372
14356W        W30540   2.642   0.180   3.020  0.3143 -0.0342  0.1424
14357W        W30541  17.976  16.252  13.770  0.0430 -0.0973  0.1655
14358W        W30542   0.669  12.577   4.891  0.0950  0.0436  0.0122
14359W        W30543  13.535   0.215  16.086 -0.0630  0.0466 -0.1766
14360W        W30544  12.084   8.261  15.586 -0.0827  0.1046 -0.0827
14361W        W30545  11.875  16.892  11.622 -0.0343 -0.1203  0.0493
14362W        W30546  16.193  12.204  11.977 -0.2032  0.2450  0.0564
14363W        W30547   0.889  10.046   6.512  0.0811  0.0966 -0.0824
14364W        W30548  15.738   3.112   4.756  0.2476  0.0697 -0.1741
14365W        W30549  10.670   4.934   0.026  0.1785 -0.0620 -0.0621
14366W        W30550   7.387   9.591  12.589  0.0655 -0.0821 -0.1041
14367W        W30551   4.808  10.626   1.738 -0.4436  0.0491 -0.0971
14368W        W30552  10.621  14.807  12.723  0.0689  0.1464 -0.1804
14369W        W30553  17.896  16.393   5.546  0.0639 -0.0364 -0.0725
14370W        W30554   9.365   3.670   4.957  0.1980 -0.1307  0.0203
14371W        W30555  10.100   5.150  12.764  0.0310 -0.2957 -0.2083
14372W        W30556  14.592   5.535   0.491  0.1707 -0.2689  0.2119
14373W        W30557   5.817  15.942  14.947 -0.0807 -0.0574 -0.0723
14374W        W30558   7.399   6.139  14.463  0.0097  0.1743 -0.3109
14375W        W30559   3.136  11.415   5.356 -0.1836 -0.0995  0.1821
14376W        W30560   6.774  17.859  16.013  0.0719 -0.1924  0.0573
14377W        W30561   8.388   9.944  12.049 -0.2468 -0.2307  0.1014
14378W        W30562  10.503   6.489   1.351  0.2805  0.2928 -0.0781
14379W        W30563  14.335   9.678  15.575 -0.0173 -0.1462  0.1814
14380W        W30564  12.699   7.402   0.357 -0.0368 -0.2467  0.0643
14381W        W30565  10.803  16.764   0.838  0.1795 -0.0612 -0.1106
14382W        W30566   3.547   1.826  11.448  0.1295  0.0141 -0.1464
14383W        W30567  12.385   0.958   3.024  0.1502  0.1576 -0.1356
14384W        W30568   6.107  16.691  15.846 -0.0571  0.1070 -0.3592
14385W        W30569  15.856   7.556  14.831  0.1396 -0.0957  0.2468
14386W        W30570  11.033   8.999  12.194 -0.1551 -0.1888  0.2359
14387W        W30571  11.767  17.016  16.307  0.2422  0.0849  0.0613
14388W        W30572   2.435   1.129   4.090  0.1332 -0.0958 -0.5513
14389W        W30573   5.041   4.524   1.257  0.0638  0.1420 -0.0650
14390W        W30574   4.265  10.659  12.019  0.1636  0.0969 -0.1898
14391W        W30575   8.301  13.471  11.106 -0.0999 -0.1274  0.0548
14392W        W30576  14.198  10.343   4.697  0.3057 -0.0596  0.0622
14393W        W30577  16.272   9.266   4.102 -0.0623  0.0101  0.1642
14394W        W30578   9.649   9.716   3.308 -0.2646 -0.1329 -0.0759
14395W        W30579   9.227  15.804   3.724  0.0274 -0.3536 -0.2504
14396W        W30580  10.295  14.577   3.392 -0.2845  0.0239 -0.0405
14397W        W30581  13.621   9.774   3.419 -0.0785 -0.3910  0.0202
14398W        W30582   8.385   6.676   5.178 -0.0637 -0.1019 -0.0528
14399W        W30583   6.974  17.111  11.680  0.3059  0.3087  0.1030
14400W        W30584   2.279   6.493   3.012  0.0290  0.0253 -0.1013
14401W        W30585  14.887   3.216   0.708  0.1477 -0.1224 -0.1682
14402W        W30586  14.081   1.963  11.951 -0.1695 -0.0877 -0.5696
14403W        W30587   2.899  15.805  14.676 -0.0372  0.1289  0.1120
14404W        W30588  16.172  14.947   2.235 -0.0772 -0.0711 -0.0687
14405W        W30589   0.536   6.333   3.407 -0.0694 -0.3251 -0.2719
14406W        W30590  13.144  15.370  14.240 -0.0131  0.0095  0.0559
14407W        W30591  17.571   1.248   5.022 -0.1647  0.0001  0.3901
14408W        W30592   2.971   5.624   3.325 -0.0134 -0.2414  0.3471
14409W        W30593  12.232   9.994   4.946 -0.2808  0.0419 -0.0378
14410W        W30594  17.509  12.449  14.394  0.0566  0.2001 -0.1970
14411W        W30595   6.563   8.671  13.802  0.0591 -0.1103 -0.2276
14412W        W30596  15.832   1.080   3.657 -0.1834  0.2218 -0.0583
14413W        W30597   5.299   5.658  14.661  0.1536  0.4301  0.3478
14414W        W30598   7.449  14.398  13.062  0.1289 -0.2015 -0.1122
14415W        W30599   8.520  13.171   4.722 -0.1675  0.2584 -0.0251
14416W        W30600   7.088  17.650  14.359  0.0508 -0.0265  0.3454
14417W        W30601  12.584   7.587   5.467 -0.0257  0.2519 -0.1233
14418W        W30602   8.026  16.798  15.402 -0.2251 -0.2097  0.0589
14419W        W30603  17.884   4.018  13.465 -0.0854 -0.2975  0.0496
14420W        W30604  14.776  11.220   2.138 -0.0274 -0.1245 -0.1260
14421W        W30605  10.182  17.715  13.283  0.1269  0.2693 -0.2604
14422W        W30606  16.603   5.580  16.105 -0.4775  0.2658  0.3107
14423W        W30607   6.357  17.176  15.729  0.0639 -0.0247  0.0674
14424W        W30608   4.644   9.234  12.976  0.1867 -0.0235 -0.0342
14425W        W30609  16.685   4.237   1.864 -0.0746 -0.3327  0.1210
14426W        W30610   9.002   0.866  14.486 -0.3842  0.1918  0.1976
14427W        W30611  13.852  13.396   3.571  0.0402  0.0138  0.1174
14428W        W30612   9.773   0.134  15.613  0.1832  0.1340 -0.3796
14429W        W30613  12.930   5.645   0.850  0.0546 -0.1695 -0.1055
14430W        W30614   2.872   9.213   3.448  0.0550 -0.3056 -0.1945
14431W        W30615   2.517   4.369   4.675  0.1889  0.0144 -0.1014
14432W        W30616   4.626  11.275  11.649 -0.2241  0.0637  0.1616
14433W        W30617   5.363   8.180   4.524  0.1584 -0.1548  0.3541
14434W        W30618   8.121   7.324  14.793 -0.1161  0.1271 -0.0610
14435W        W30619  12.993   9.627  13.463 -0.1798  0.0267  0.1212
14436W        W30620  12.489   5.946   0.712 -0.2333 -0.3700 -0.0572
14437W        W30621  11.577  15.661  11.917  0.2637  0.2854 -0.0330
14438W        W30622   6.398   3.777  13.352 -0.0230 -0.0253  0.0726
14439W        W30623   8.194  12.593  15.758  0.0157  0.1515  0.2548
14440W        W30624   7.952  16.384  16.093  0.0763 -0.0297 -0.0825
14441W        W30625   8.971   3.362   5.036  0.0451 -0.1308 -0.1158
14442W        W30626  12.634   3.278  14.492  0.0476 -0.1304 -0.1429
14443W        W30627   9.939  11.302   2.816  0.3117  0.1713 -0.3011
14444W        W30628  13.853   1.460   4.816 -0.2690 -0.0214 -0.1065
14445W        W30629  15.111   0.265   3.151  0.0406  0.1417  0.2882
14446W        W30630   5.510   5.366   3.682  0.1004 -0.0042  0.3005
14447W        W30631   8.089  12.971   1.809 -0.0100  0.0346 -0.2219
14448W        W30632   5.617  16.618   1.332 -0.0031  0.4571  0.3017
14449W        W30633  12.942  13.059   2.795  0.3571  0.2274 -0.1165
14450W        W30634  16.915   6.757  14.921  0.1560  0.0217 -0.0572
14451W        W30635   7.516  16.594   3.818 -0.1323  0.0216 -0.0167
14452W        W30636   2.239   7.143  15.206 -0.0144 -0.0133  0.2333
14453W        W30637   9.768   4.645   0.204 -0.2014 -0.2255 -0.2221
14454W        W30638  11.385   0.769   5.379 -0.2836  0.0614  0.1168
14455W        W30639   8.484  15.759   1.549 -0.0854  0.3902  0.0060
14456W        W30640   1.989   3.644   4.092 -0.3305 -0.0939  0.0787
14457W        W30641  16.739   3.200  13.356  0.2299 -0.3180  0.0182
14458W        W30642  15.191   8.703  14.750  0.2055  0.0694 -0.2725
14459W        W30643   6.226  17.317   3.257 -0.1093 -0.0286 -0.0974
14460W        W30644   8.916  13.202  14.841  0.0879  0.1752  0.1226
14461W        W30645  14.001  10.899   0.422  0.0047 -0.1620  0.0244
14462W        W30646  11.219  16.592  12.334 -0.4363 -0.0249  0.0506
14463W        W30647   6.529   4.729  14.481 -0.1519 -0.2719  0.2202
14464W        W30648   3.831   9.164   1.874 -0.4234 -0.0190 -0.0177
14465W        W30649   8.430   4.256  16.438 -0.1526 -0.2618 -0.0766
14466W        W30650  12.783  17.790  11.625 -0.0221  0.0959  0.0838
14467W        W30651   2.340  17.522   1.428 -0.0950 -0.0609  0.1412
14468W        W30652   5.253   8.763   5.253 -0.1232 -0.0211  0.0443
14469W        W30653   6.146  10.052   1.706  0.1604  0.0775 -0.0484
14470W        W30654  17.816   1.719   2.584  0.0334  0.0244  0.4082
14471W        W30655   7.729   3.733  15.938 -0.2390  0.1709 -0.1425
14472W        W30656  13.305  12.337   3.260  0.1215 -0.2313  0.0346
14473W        W30657   6.135   0.085  15.453 -0.0749 -0.0715 -0.0396
14474W        W30658  16.698   6.941   5.305  0.1413  0.1682  0.1499
14475W        W30659   7.424   5.181  14.954 -0.2483 -0.1197 -0.2447
14476W        W30660   2.943  14.186   5.403  0.2024 -0.5317  0.0780
14477W        W30661   0.441  16.818   1.262  0.0732 -0.1316  0.2257
14478W        W30662   1.369   0.525  12.736  0.0019 -0.0881 -0.2872
14479W        W30663   4.242   7.402  13.161  0.2055 -0.2071  0.0878
14480W        W30664  12.252   4.992   0.415 -0.1461 -0.3196  0.5062
14481W        W30665  10.761  12.432   1.102 -0.2142  0.0846  0.1253
14482W        W30666  13.707   1.717   2.278 -0.0776 -0.0599 -0.0729
14483W        W30667  14.929   9.157   0.545  0.1663 -0.1393 -0.1743
14484W        W30668   2.134  16.101  12.914 -0.0847  0.0942  0.0583
14485W        W30669  16.270   6.235  16.651 -0.1159 -0.0049  0.1149
14486W        W30670   6.623  17.952  15.532 -0.1132 -0.0803  0.2052
14487W        W30671   2.068   2.096  14.063 -0.0924  0.1503 -0.0190
14488W        W30672   2.178   4.514  16.378  0.1536 -0.1707 -0.0436
14489W        W30673  14.103   9.627  15.109  0.0648 -0.0973 -0.1118
14490W        W30674   1.634   1.059  15.755  0.2001  0.0755 -0.1514
14491W        W30675   5.140   3.839   0.655 -0.0113 -0.1507 -0.2075
14492W        W30676   1.488  10.651   3.994 -0.0918 -0.1998  0.0215
14493W        W30677   4.364  10.082   1.617 -0.0606  0.0774  0.0972
14494W        W30678  17.301   5.563  15.674  0.0107  0.1967 -0.0158
14495W        W30679   1.694   4.901   1.848  0.0131  0.0134  0.0475
14496W        W30680  16.641  10.434   5.390  0.2679  0.2315  0.2093
14497W        W30681  14.067  12.581   4.416  0.1877 -0.1905 -0.2615
14498W        W30682  17.121   2.482  13.069  0.2891 -0.3393  0.3005
14499W        W30683   9.033   8.338   3.422 -0.3569 -0.3205  0.2639
14500W        W30684   2.217   1.889   0.752  0.2705 -0.2356  0.1561
14501W        W30685  13.211   1.459   2.438 -0.2849  0.0522  0.3235
14502W        W30686   2.735   5.777  11.555 -0.1068  0.2044  0.0704
14503W        W30687  16.460   2.047   5.413  0.2744  0.3147  0.3099
14504W        W30688   7.229   6.041  11.067  0.1551 -0.3022 -0.1372
14505W        W30689   2.558   7.609   6.205  0.0189 -0.1390  0.0192
14506W        W30690   9.245  11.778  15.257 -0.0390  0.1444  0.1546
14507W        W30691   3.087  11.285   4.801 -0.2093  0.5221  0.0019
14508W        W30692  12.564  13.271  13.847  0.0339 -0.1623 -0.1715
14509W        W30693   6.086   8.763  15.207  0.2472 -0.1650  0.2366
14510W        W30694   0.119  15.640  12.620  0.1531 -0.1826 -0.3619
14511W        W30695   2.599  12.634   3.704  0.0588  0.1194  0.0911
14512W        W30696  16.003  10.419  10.083 -0.1059  0.0464  0.1198
14513W        W30697  13.784  15.981  13.200 -0.0167 -0.0387 -0.0233
14514W        W30698   3.809   1.482   4.497  0.1928 -0.0915 -0.2527
14515W        W30699   6.314   6.107   4.260  0.1281 -0.1972 -0.2701
14516W        W30700  10.464  13.453  11.984 -0.1188 -0.0255 -0.1630
14517W        W30701   1.342   3.172   2.313  0.1689 -0.1245 -0.1264
14518W        W30702  16.779   1.010   1.101 -0.1095 -0.1302 -0.3725
14519W        W30703   7.953   8.788   5.519  0.2726  0.0090  0.0605
14520W        W30704  17.748   7.174   2.221 -0.2639 -0.0814  0.2430
14521W        W30705  16.300  16.399   4.447 -0.0250  0.2171 -0.1050
14522W        W30706   3.471  14.011   3.901 -0.0945 -0.1840  0.0146
14523W        W30707  11.082  15.648   3.358  0.2857  0.2132 -0.1031
14524W        W30708  16.303  13.283   3.120 -0.0365  0.1270  0.1060
14525W        W30709   5.035  11.610   0.154 -0.0387  0.2921  0.2945
14526W        W30710   3.227  11.092  11.757 -0.1234 -0.1070  0.2964
14527W        W30711   7.360   3.426   2.879 -0.0506  0.0076  0.0588
14528W        W30712   8.169   8.512  13.092  0.2018 -0.3226  0.0421
14529W        W30713  11.421  12.267   2.700 -0.2399 -0.4239 -0.1890
14530W        W30714   7.831   0.579  12.998 -0.0746 -0.0492 -0.1069
14531W        W30715   2.267   0.012  14.047  0.3144 -0.2416  0.1559
14532W        W30716  14.675   3.204  15.742  0.3145 -0.3516  0.0008
14533W        W30717   7.863   2.621   3.358  0.0455  0.0637  0.0236
14534W        W30718   1.172   0.176  16.212  0.1131  0.2525  0.4337
14535W        W30719   3.723   4.127  11.961  0.0225  0.4102  0.1700
14536W        W30720  13.875  13.832   1.768 -0.0042 -0.0026 -0.3113
14537W        W30721   0.922  17.887  13.517 -0.2654 -0.0080 -0.1458
14538W        W30722  14.614   2.874   1.685 -0.0401  0.0812  0.1987
14539W        W30723  17.294   8.015  16.098 -0.2153  0.4083  0.3567
14540W        W30724  13.563  16.925  16.588  0.2306 -0.1035 -0.0964
14541W        W30725  11.232   3.513  10.983 -0.0236 -0.2026  0.0299
14542W        W30726   9.760  14.690   4.122 -0.0590  0.1398  0.1396
14543W        W30727  10.846   5.516   4.532 -0.0825  0.1993 -0.0038
14544W        W30728   8.659  11.948   1.798 -0.1803 -0.3146  0.4153
14545W        W30729  11.220   7.552  15.564 -0.0168 -0.2915 -0.1256
14546W        W30730   6.559   0.437   2.285  0.2212 -0.1394 -0.1819
14547W        W30731   3.823   9.880  15.141 -0.0835  0.1103 -0.1161
14548W        W30732   4.310  16.256   4.189 -0.0926 -0.2002 -0.1454
14549W        W30733   6.468   2.522  15.601  0.0690  0.0929 -0.0294
14550W        W30734   2.841   2.745  12.580  0.1782  0.0287  0.0327
14551W        W30735  17.316  12.678  12.020  0.2899  0.0445 -0.0308
14552W        W30736   7.989   5.483   1.280 -0.2488  0.0653 -0.3216
14553W        W30737   8.643  14.527  14.522 -0.2653 -0.1736  0.1371
14554W        W30738   8.656   6.264   2.985  0.0584  0.1141 -0.4809
14555W        W30739   9.958  15.717  14.439  0.0028  0.0409 -0.1628
14556W        W30740  11.555   5.726  15.816  0.0573 -0.0510  0.0693
14557W        W30741   3.254   8.767  11.903  0.0106 -0.1984  0.1110
14558W        W30742   4.372   1.920   2.024  0.0896  0.2005 -0.0377
14559W        W30743  10.025   4.725   3.374  0.2528 -0.0727  0.2824
14560W        W30744  16.932  16.939  15.024  0.0346  0.1748 -0.1345
14561W        W30745   7.154   6.998   3.316  0.1799 -0.0410 -0.1519
14562W        W30746  12.146   2.437  12.980  0.0627 -0.2034 -0.1340
14563W        W30747  14.138  13.597  14.267 -0.0260 -0.1181  0.3071
14564W        W30748   1.789   5.668   4.656  0.1030  0.1560  0.0306
14565W        W30749  10.495  11.983   2.838 -0.0915 -0.0265 -0.2475
14566W        W30750  11.896   7.981   1.039  0.1357  0.1844 -0.1206
14567W        W30751  17.944   4.591   0.458  0.0155 -0.0275  0.1070
14568W        W30752   2.924   0.831  13.937  0.1200  0.0160  0.1447
14569W        W30753   1.043  12.312   2.633  0.2872  0.1752  0.1312
14570W        W30754  10.947  10.551  14.709  0.5717  0.0015  0.0962
14571W        W30755   8.544   2.031   4.229  0.3301 -0.2164  0.1973
14572W        W30756   4.584  13.888  14.127  0.1594  0.0197  0.1786
14573W        W30757   1.496   5.316  16.649 -0.0220 -0.0094  0.3423
14574W        W30758   5.630   7.861  12.667 -0.1453  0.2753  0.2382
14575W        W30759   4.725  17.809   0.901  0.1216  0.0834  0.0303
14576W        W30760   0.710  17.284  10.742 -0.0084 -0.1307 -0.2445
14577W        W30761   7.509  17.025   2.517  0.0757  0.1320  0.1938
14578W        W30762  10.485  16.350  15.017  0.0086 -0.0656  0.2074
14579W        W30763   3.747   6.996   1.652 -0.0375 -0.2584  0.1017
14580W        W30764   2.748   5.137  12.322  0.1003  0.0632  0.1302
14581W        W30765  11.425   4.844  13.400  0.0967  0.2019 -0.0376
14582W        W30766   7.836   5.826  14.310 -0.1645 -0.4064 -0.2573
14583W        W30767  13.897   7.598   0.482 -0.2694 -0.0780 -0.0097
14584W        W30768  14.670   9.529  11.833  0.0016  0.1355  0.0419
14585W        W30769   3.363  15.932   4.360  0.2198 -0.3703  0.0148
14586W        W30770  15.841   4.426  14.121 -0.0605 -0.0563  0.0649
14587W        W30771  11.864   0.372  13.658 -0.1386  0.1933 -0.1528
14588W        W30772  16.393   6.434  11.664  0.0840  0.0909  0.0281
14589W        W30773  13.231  12.226   4.840  0.1804  0.2061 -0.0992
14590W        W30774   8.347   0.505   3.261  0.1568 -0.0532  0.0102
14591W        W30775   5.692  15.019   5.241 -0.0263 -0.0472 -0.2069
14592W        W30776  17.896   4.410  13.884 -0.0596  0.1964  0.0218
14593W        W30777  12.380   0.948   1.636  0.2230  0.0284  0.2399
14594W        W30778   9.190   8.542   2.987 -0.0867  0.0047  0.2017
14595W        W30779   6.290   1.205   1.561  0.2688 -0.0687 -0.2646
14596W        W30780  15.539   8.449  12.767 -0.0348 -0.2540 -0.0908
14597W        W30781   7.190   6.273   3.922  0.0473  0.4326  0.0528
14598W        W30782   4.971   3.746   4.076  0.1925 -0.0832  0.1787
14599W        W30783   3.016  15.314   1.851 -0.4227 -0.0350  0.1234
14600W        W30784   6.774   0.746  12.166  0.0807  0.0686 -0.1910
14601W        W30785  16.584  13.604  13.600 -0.1726 -0.3760 -0.0664
14602W        W30786  14.102   2.589   2.425 -0.2973 -0.0659  0.0201
14603W        W30787   3.247   2.837  11.844 -0.0161 -0.1212 -0.1474
14604W        W30788  14.576   5.047   0.159 -0.0456 -0.3614 -0.1735
14605W        W30789   5.257   0.461  14.838  0.0355 -0.0989 -0.1919
14606W        W30790  10.899   3.433  15.656 -0.1283  0.2585 -0.0810
14607W        W30791   8.265   0.121  14.562  0.0560 -0.1969 -0.1512
14608W        W30792  10.527  13.887   5.946  0.2521 -0.1438  0.0108
14609W        W30793   7.991  15.534   0.526 -0.1486 -0.4140 -0.0218
14610W        W30794  14.269   6.590  13.625 -0.1224 -0.1694 -0.0929
14611W        W30795  16.505  14.708  16.505  0.3604 -0.0957 -0.1288
14612W        W30796   8.137   6.294   1.842  0.0883 -0.2056 -0.4365
14613W        W30797   2.779   6.806   1.961  0.1008 -0.2587  0.1464
14614W        W30798   8.414   3.715  16.352  0.0053 -0.1697 -0.2213
14615W        W30799   1.693   7.844  15.962 -0.2368 -0.2638 -0.1312
14616W        W30800   8.386   0.103   3.602  0.4003 -0.0330 -0.1133
14617W        W30801   9.608   3.415  13.378 -0.0459  0.2968 -0.1016
14618W        W30802  16.257   7.207  15.523  0.1130 -0.0915 -0.2119
14619W        W30803   8.987   1.008   5.126 -0.1797  0.1502  0.1469
14620W        W30804   2.233  16.895   3.165 -0.1494  0.0084 -0.1756
14621W        W30805   9.905  12.516   1.935 -0.2947  0.2507  0.1639
14622W        W30806  14.951   7.298   1.930  0.0383 -0.3117 -0.0375
14623W        W30807   7.204   9.053  15.694 -0.3733  0.1101  0.0222
14624W        W30808   6.802  13.640   1.870  0.3655  0.2652 -0.2669
14625W        W30809   0.993   9.326   2.597 -0.2972  0.1090  0.4279
14626W        W30810  17.540  15.617  16.089  0.1413  0.0568 -0.2074
14627W        W30811  16.021  17.827   3.158  0.0662 -0.3406  0.2253
14628W        W30812  13.235   4.722  14.864  0.1858  0.0492  0.0732
14629W        W30813   1.764   1.361   4.109 -0.0551 -0.2507 -0.1926
14630W        W30814   6.633   3.077  11.708 -0.0080 -0.4070 -0.2001
14631W        W30815   2.083  10.146  12.135  0.0326 -0.1216 -0.0170
14632W        W30816   6.123  14.038   2.532  0.0743  0.0671  0.0388
14633W        W30817   4.808   5.989   5.184 -0.0520 -0.2338 -0.0568
14634W        W30818  14.212   6.424  12.764  0.1470  0.0344  0.1570
14635W        W30819   2.244   5.254  11.815 -0.0527  0.1474 -0.0253
14636W        W30820   0.620  15.483  12.483 -0.2260  0.1770  0.2929
14637W        W30821  13.074   1.978  14.273  0.1952  0.0466 -0.0416
14638W        W30822   4.382  15.610   2.325  0.0476 -0.0280 -0.0917
14639W        W30823  10.802   4.297  11.920  0.2557 -0.2050 -0.2139
14640W        W30824   7.949   8.302   0.313  0.1270 -0.0094  0.1927
14641W        W30825  13.280   8.535  11.745 -0.0932  0.3779  0.1537
14642W        W30826  14.277  15.712  11.756  0.1601  0.2310 -0.0764
14643W        W30827   7.263  16.829  13.022  0.0224  0.1900 -0.2606
14644W        W30828   8.868  12.912  15.713  0.2384  0.1023  0.1120
14645W        W30829   0.236   9.093   4.723  0.1518 -0.0869 -0.2420
14646W        W30830   8.782   5.847   1.485 -0.1843  0.0116  0.1184
14647W        W30831  14.889   3.842  14.403 -0.3550  0.0315  0.1149
14648W        W30832   7.900   6.836   4.545  0.2698 -0.1064  0.1027
14649W        W30833   2.279   7.658   1.589 -0.1858 -0.1059  0.0924
14650W        W30834   0.820   1.140  16.264  0.0859  0.2081  0.1899
14651W        W30835   2.709  11.325   1.464  0.2173  0.0224 -0.2146
14652W        W30836  13.272   5.297  12.607 -0.1411 -0.0840  0.3677
14653W        W30837   3.058   8.752  12.357 -0.4032 -0.2315 -0.1589
14654W        W30838   2.312  10.602   0.191  0.0540  0.1436  0.2435
14655W        W30839   2.080  16.224  10.929  0.1503  0.0405 -0.0523
14656W        W30840   5.170   7.870  12.938  0.0428  0.2903 -0.1508
14657W        W30841   9.409   4.687   0.668 -0.1645 -0.0687  0.2384
14658W        W30842   9.665  17.221   3.038  0.0063 -0.1809 -0.1289
14659W        W30843  15.262   6.562  11.325  0.0594 -0.0009  0.1826
14660W        W30844   3.947   3.255   2.359  0.0459 -0.0432  0.2077
14661W        W30845  15.291  13.623  13.376  0.1916  0.0012 -0.0527
14662W        W30846  10.483   5.252   2.940  0.0755 -0.1389 -0.2682
14663W        W30847   7.385  16.511   4.872 -0.3074 -0.1816 -0.0460
14664W        W30848   4.963   5.573  12.068  0.0922 -0.0015  0.0097
14665W        W30849   5.051   7.472   2.881 -0.0082 -0.0692 -0.1629
14666W        W30850   4.476   4.673   0.754  0.2287  0.0316  0.0234
14667W        W30851   6.292   4.214   5.335 -0.1624  0.1375 -0.0081
14668W        W30852  13.240   8.110   3.232 -0.3723  0.1460 -0.2046
14669W        W30853   7.571   8.249  15.035  0.2327 -0.2558 -0.5102
14670W        W30854   9.154  10.935  11.779  0.1278 -0.0020 -0.2096
14671W        W30855   7.756  17.645  13.680 -0.0740 -0.0900  0.0041
14672W        W30856   4.080  15.961   3.794 -0.1896 -0.0098 -0.0102
14673W        W30857   2.011   0.324  14.794 -0.1204 -0.1043 -0.2553
14674W        W30858   0.857   5.015   3.577 -0.0035  0.1450 -0.1055
14675W        W30859  10.928   0.822  15.604  0.0302  0.2199 -0.2844
14676W        W30860  12.211  14.583  16.021 -0.0484  0.2358 -0.1182
14677W        W30861   1.682  15.068   1.973  0.0985 -0.1010 -0.0007
14678W        W30862   8.043   4.816  13.163 -0.0760  0.0568 -0.3024
14679W        W30863  14.904   4.287   2.941  0.0450 -0.0598  0.2314
14680W        W30864   7.264  10.356   1.783 -0.0160  0.1302 -0.2849
14681W        W30865   3.847   7.338   4.720  0.1213 -0.0795 -0.1550
14682W        W30866  11.865   3.594  16.025  0.1051  0.1594  0.0363
14683W        W30867   2.438   0.147  15.053  0.0114  0.0995 -0.2429
14684W        W30868  15.964   0.212   4.951  0.2996 -0.2000  0.3673
14685W        W30869   7.478   5.813   3.785  0.3059  0.0898  0.1423
14686W        W30870  14.706   5.743  11.668  0.0947 -0.0631 -0.0649
14687W        W30871   5.088   9.633   4.137  0.1642 -0.0562 -0.3335
14688W        W30872  17.417   5.272  11.659 -0.2720  0.0728  0.0224
14689W        W30873  17.633   4.407  14.670 -0.0335 -0.0631  0.0096
14690W        W30874  10.130  14.409  14.273 -0.1669 -0.2392  0.1856
14691W        W30875   0.828   0.878   4.043 -0.1901  0.2221 -0.1339
14692W        W30876   4.407   6.828  14.415 -0.0875  0.1612  0.2078
14693W        W30877   1.170   9.857  12.925  0.0888  0.0223  0.0519
14694W        W30878   0.185  16.661   2.136 -0.0776 -0.0679  0.2268
14695W        W30879  10.164  13.573   2.839  0.0930  0.3396  0.2292
14696W        W30880   3.032   6.533   1.553  0.0936 -0.0402  0.1423
14697W        W30881  15.080  13.850  16.584 -0.1943 -0.1747  0.2193
14698W        W30882  11.678  15.423  11.494 -0.1962 -0.1378  0.1799
14699W        W30883   1.462   2.590   0.685  0.1130 -0.0058 -0.3743
14700W        W30884  12.310  15.706   2.236  0.1927 -0.4185  0.0983
14701W        W30885   7.956  17.861   0.995 -0.1714  0.3199  0.0041
14702W        W30886   8.051  11.223   6.335  0.2562  0.0669  0.2707
14703W        W30887  11.617  17.406  15.568  0.1930  0.1050 -0.2654
14704W        W30888   3.241  14.646  16.479  0.0471  0.1721 -0.0150
14705W        W30889  10.056  12.265   0.167 -0.0480 -0.0087  0.3162
14706W        W30890   1.703  13.091   3.990  0.0145  0.1909  0.0046
14707W        W30891   3.356   2.902   5.539 -0.1494 -0.0657 -0.0495
14708W        W30892   8.362  11.161   4.634 -0.1570 -0.0602  0.2060
14709W        W30893   7.843   6.290  14.571 -0.1592 -0.0988  0.1890
14710W        W30894  16.793  13.782   5.131 -0.0204 -0.1592 -0.1896
14711W        W30895  17.108  17.690   2.414  0.0115  0.0412  0.0982
14712W        W30896  17.659  12.826   4.357 -0.2796  0.3834 -0.2496
14713W        W30897  14.498   6.845  16.536  0.0582  0.3010 -0.0220
14714W        W30898   1.898   9.404   4.046 -0.1445  0.2533  0.3650
14715W        W30899  11.776   5.745  13.806  0.0872 -0.1466  0.0234
14716W        W30900   0.894  16.668  16.353  0.0146  0.1368  0.1125
14717W        W30901   4.009  10.582   0.052 -0.1273 -0.3524 -0.2624
14718W        W30902  13.530   6.331  14.996  0.0142  0.1456 -0.0740
14719W        W30903  15.240  13.006   0.337 -0.2301  0.0123  0.2051
14720W        W30904   3.102   4.994   5.992  0.2260  0.3154  0.0314
14721W        W30905   8.528  15.732   3.676 -0.3941 -0.0220  0.0796
14722W        W30906   0.631   6.980   4.634  0.0656  0.1623  0.0427
14723W        W30907  10.692  11.691  14.480  0.0986 -0.1187  0.2986
14724W        W30908  15.173   8.599  13.182 -0.0280  0.1713  0.0780
14725W        W30909   4.830  17.474   1.550 -0.2134  0.1284 -0.1412
14726W        W30910   2.735  10.618  16.512 -0.2089  0.0540 -0.2788
14727W        W30911  14.760   2.719  14.714 -0.0178 -0.1037  0.3111
14728W        W30912   9.084   1.019   5.616  0.1406 -0.1275  0.1305
14729W        W30913  10.365  17.665  13.776 -0.0055  0.2577  0.0938
14730W        W30914  12.203   4.554   0.498 -0.0717  0.2327  0.0478
14731W        W30915  17.937   9.708   2.069 -0.0181  0.1563 -0.0752
14732W        W30916   9.155   1.629  12.525 -0.1244  0.0810 -0.0624
14733W        W30917  16.744  17.334   0.254 -0.3991 -0.0428 -0.2765
14734W        W30918   9.826  15.464   2.570 -0.1906  0.1903  0.1632
14735W        W30919  15.169  17.410  12.915 -0.1046  0.4619 -0.0101
14736W        W30920  10.353   8.165   1.327  0.1856  0.0902  0.2374
14737W        W30921  15.904  14.863  13.026 -0.1765 -0.0298 -0.2519
14738W        W30922   2.856  13.339   2.618 -0.0654  0.1720  0.0885
14739W        W30923   0.601   2.349  13.961  0.1052 -0.1353  0.1827
14740W        W30924   4.228   6.447  13.602 -0.2343  0.2347  0.0616
14741W        W30925   9.919  11.671  16.307  0.0110 -0.1571  0.1537
14742W        W30926  11.209  17.800  14.844 -0.1716 -0.0997 -0.0840
14743W        W30927   4.627  16.969  15.238 -0.0829  0.0753  0.1589
14744W        W30928  13.822  11.950   0.219 -0.0765  0.1687  0.0549
14745W        W30929  11.246  16.666  13.505 -0.1437  0.1745  0.2750
14746W        W30930   5.549   5.305  16.306 -0.2856 -0.0947 -0.1793
14747W        W30931   1.718   5.785   0.858  0.3157  0.3746  0.0696
14748W        W30932   9.699  18.003  14.685 -0.1532  0.2793 -0.1341
14749W        W30933  11.014   6.874  12.790  0.1879 -0.0284 -0.2407
14750W        W30934  12.120   4.237  14.655  0.1307  0.0059 -0.1490
14751W        W30935   0.199  15.102  16.644 -0.0543 -0.0503  0.0881
14752W        W30936   0.703   4.831   4.823 -0.0724 -0.1199  0.0384
14753W        W30937  13.871  14.520  14.311  0.0358  0.0358  0.1376
14754W        W30938   0.856   6.899   1.474  0.0213  0.3837 -0.3833
14755W        W30939  13.014   1.757   1.366 -0.1516 -0.0117 -0.0592
14756W        W30940  13.558  14.830   1.325  0.0929  0.1718  0.0783
14757W        W30941  12.488   4.382  15.041 -0.1017  0.1425 -0.0684
14758W        W30942   5.237  14.926   0.114 -0.1261  0.1110  0.2654
14759W        W30943   2.103   1.053   5.945 -0.2285  0.0112  0.0520
14760W        W30944   8.502   7.807  16.315 -0.0629 -0.0948  0.0510
14761W        W30945   3.754   9.369   3.430 -0.1488 -0.1510  0.0087
14762W        W30946  14.777  10.455  12.746 -0.0732 -0.0035 -0.0951
14763W        W30947   3.476  12.579  13.592 -0.2391 -0.0932 -0.1144
14764W        W30948   1.196  15.723  10.930  0.2546  0.3265 -0.3202
14765W        W30949   3.635  17.541  12.150  0.2445 -0.0543 -0.2152
14766W        W30950  11.685   3.619  11.697 -0.1223 -0.0018 -0.1716
14767W        W30951  10.517  11.093   3.099  0.1299  0.0629 -0.1282
14768W        W30952  14.485  12.646  13.438  0.1669  0.2766  0.2864
14769W        W30953   0.718   5.363  11.790  0.1806  0.0612 -0.0139
14770W        W30954  17.329  13.324  16.557  0.1924  0.0721  0.0881
14771W        W30955  10.924   2.735  14.113 -0.2144  0.1198  0.1434
14772W        W30956   6.682   7.233   5.350 -0.1756  0.0194  0.0146
14773W        W30957  13.707  17.247  14.409  0.2586  0.0974 -0.0087
14774W        W30958   7.129  14.754  12.978 -0.1088 -0.0555  0.0303
14775W        W30959   9.160  16.839   0.986 -0.0749  0.0273  0.1100
14776W        W30960   7.002   1.351   0.322 -0.1701 -0.0118  0.0452
14777W        W30961   7.934   8.818  16.412 -0.1387  0.0561  0.0678
14778W        W30962   2.499   4.245  14.986 -0.0867  0.2176  0.3303
14779W        W30963   2.684  12.901   2.949  0.0419 -0.2033  0.0216
14780W        W30964  11.542   8.321   1.034 -0.1588  0.3755 -0.2673
14781W        W30965   4.289   6.077  12.690  0.1516  0.0451  0.0586
14782W        W30966  11.486  15.333  14.566 -0.1255 -0.0481 -0.0156
14783W        W30967  16.922  17.107   3.415  0.1738 -0.0773 -0.2337
14784W        W30968   4.281  14.980   0.933 -0.0528  0.2136 -0.4589
14785W        W30969  10.498   6.942  12.528  0.0687  0.1222  0.1173
14786W        W30970  12.824  14.014   5.766 -0.1258  0.0661  0.1117
14787W        W30971  16.070  14.238  13.869 -0.3339 -0.1450  0.0828
14788W        W30972   9.800   5.177  13.270 -0.0454 -0.1429 -0.2962
14789W        W30973  13.068  16.576  12.368  0.2030  0.3269 -0.0773
14790W        W30974   1.804   5.967  14.034 -0.1343  0.1482  0.0861
14791W        W30975   7.428   8.449   4.039  0.1230 -0.6154  0.0003
14792W        W30976  12.626   7.885   0.322  0.0077  0.0946  0.0798
14793W        W30977   4.251   6.544  12.668 -0.1264 -0.1576  0.0062
14794W        W30978   9.715  16.070  14.890 -0.1534  0.0493 -0.1722
14795W        W30979   7.195  11.919   1.984 -0.0476  0.1474  0.0135
14796W        W30980   2.407   9.166  12.952  0.1542  0.4756  0.0016
14797W        W30981  12.399  17.764  15.993 -0.1993  0.2249 -0.0902
14798W        W30982   3.039   7.808   6.463  0.3176  0.1623 -0.0689
14799W        W30983   0.972  13.504   0.154  0.1242 -0.0251  0.1574
14800W        W30984  15.774   5.898  15.891 -0.3034  0.1655 -0.1843
14801W        W30985   9.277  15.082   0.594 -0.1643  0.2385 -0.1794
14802W        W30986  16.443   7.318  12.229  0.2049 -0.1631  0.3031
14803W        W30987  16.228   2.323   2.724  0.0731  0.0339  0.0520
14804W        W30988  13.426  13.197   5.760  0.0589 -0.4856  0.0358
14805W        W30989  16.452   9.235  13.543 -0.2059  0.1076 -0.3130
14806W        W30990   3.150   8.738  14.200  0.0418  0.0662  0.2935
14807W        W30991   9.958  10.346  12.016  0.0997  0.4556  0.0658
14808W        W30992  12.910   9.461   3.320  0.1998  0.1226  0.0787
14809W        W30993   2.158  11.588   0.021  0.2081  0.2569  0.1915
14810W        W30994   4.341   7.607  16.288  0.1243  0.2312  0.2259
14811W        W30995   7.627  17.513   1.223 -0.0903 -0.2613 -0.2391
14812W        W30996  17.015   3.261  12.544  0.0992 -0.3214 -0.0281
14813W        W30997   3.410  12.622   4.051  0.3369 -0.0842  0.1957
14814W        W30998   5.076  13.857   0.862  0.1262 -0.3198  0.1409
14815W        W30999  16.779   9.777  15.639 -0.1976  0.0862  0.2329
14816W        W31000   1.729   3.795  12.736  0.1808 -0.0191  0.1887
14817W        W31001   8.844  15.831  11.921 -0.1849  0.0733 -0.0988
14818W        W31002  14.453  14.442  12.320 -0.0753  0.0254 -0.1767
14819W        W31003   6.841  15.748  14.664  0.0194  0.1753  0.0998
14820W        W31004  10.277   3.866   2.807 -0.2577 -0.0290  0.0533
14821W        W31005   9.471  17.930  14.012 -0.0690  0.1472 -0.0742
14822W        W31006  14.574   3.670  11.681  0.1931 -0.0016 -0.2014
14823W        W31007  13.007   9.337   3.806  0.1319  0.2878  0.1490
14824W        W31008  17.980  11.526   5.118 -0.0394 -0.0698 -0.2967
14825W        W31009  11.144  14.736   4.280  0.0894 -0.2545  0.2935
14826W        W31010   8.412  12.144  13.481 -0.2366  0.2701  0.1078
14827W        W31011   0.911   7.106  13.453 -0.1325 -0.2593 -0.1335
14828W        W31012  14.265   9.340  12.460 -0.2672 -0.0970  0.1041
14829W        W31013   6.976   8.380  16.329 -0.3194  0.0617  0.1832
14830W        W31014   0.671   4.927  13.141 -0.1463  0.1551  0.0830
14831W        W31015  17.948   3.231   1.904 -0.0654  0.0770  0.0018
14832W        W31016   2.712  13.844   2.618 -0.1232 -0.4547  0.0735
14833W        W31017  12.901  17.160   0.440 -0.0630  0.0062 -0.0851
14834W        W31018  13.073  10.798   3.496  0.0356 -0.0630  0.2435
14835W        W31019  15.746   8.062  12.551 -0.1742  0.0547 -0.1603
14836W        W31020  12.364  12.722   4.392 -0.3223  0.0659  0.1557
14837W        W31021   4.352   6.348  16.162 -0.0717 -0.1732 -0.3156
14838W        W31022  16.883  16.658   3.952 -0.0117 -0.0358 -0.0108
14839W        W31023  12.386  15.652  15.437 -0.1189 -0.0728  0.0485
14840W        W31024  11.501   2.035   1.992  0.2146  0.0613 -0.3320
14841W        W31025   8.522   1.343   3.747  0.2105  0.0765  0.0782
14842W        W31026   5.845  11.711   1.130 -0.3076  0.0486 -0.0378
14843W        W31027  12.768  15.378   5.967 -0.1034  0.2618 -0.0833
14844W        W31028   3.406  14.079  13.709 -0.0111 -0.4103 -0.0015
14845W        W31029   9.440   8.420  14.178 -0.2188  0.0609  0.2747
14846W        W31030  11.143   2.164  14.038 -0.1642 -0.0492 -0.2932
14847W        W31031  16.038   9.603   2.545  0.1163  0.2512  0.0088
14848W        W31032  13.167   4.742   0.633 -0.0748 -0.1432 -0.1326
14849W        W31033   0.629   5.655   3.940 -0.0558 -0.1187  0.0275
14850W        W31034  17.849  14.456  13.769  0.0341 -0.2963 -0.1737
14851W        W31035   7.977  11.370   4.321 -0.3006 -0.1063 -0.1793
14852W        W31036   4.995   0.829  12.020 -0.0916  0.1438  0.0763
14853W        W31037   6.311  11.501  15.008 -0.2066  0.2562 -0.0798
14854W        W31038  12.659   9.437   1.884  0.5694  0.1639 -0.2004
14855W        W31039   7.921   5.240  12.891 -0.0751  0.1341  0.0738
14856W        W31040   6.902  12.151  16.489 -0.3916  0.1997 -0.1389
14857W        W31041   9.565   9.827  14.796 -0.2495  0.0625  0.0298
14858W        W31042  16.986   0.093  14.764 -0.0484 -0.0018 -0.2267
14859W        W31043  14.238   2.364   5.558 -0.1631  0.2308 -0.1684
14860W        W31044  13.154   8.404   4.918 -0.2160  0.0834 -0.2526
14861W        W31045   9.383   9.465   0.304  0.2816 -0.0723  0.4755
14862W        W31046   5.058   6.618  12.153  0.2447  0.0897  0.2505
14863W        W31047   8.865   1.912  11.782 -0.0726  0.3840 -0.0832
14864W        W31048   7.992  13.566  12.318  0.0337 -0.1334 -0.2629
14865W        W31049  11.523  16.529   5.573 -0.2098 -0.0173 -0.0626
14866W        W31050  16.496   2.425  14.586  0.1232  0.1536 -0.1222
14867W        W31051  14.321   4.601  13.008 -0.1891 -0.0649  0.4089
14868W        W31052   4.719   0.059   3.885 -0.0156  0.1220 -0.0420
14869W        W31053   3.388   8.329   0.993  0.3534  0.5411 -0.1359
14870W        W31054  17.338   9.002  13.796  0.0656  0.2850 -0.2141
14871W        W31055   3.465   9.997  13.585 -0.1904  0.1226  0.0298
14872W        W31056  17.883  13.679   4.800  0.2117 -0.0339  0.2211
14873W        W31057  13.998  13.321  11.894  0.2256  0.2163 -0.0445
14874W        W31058   1.924   9.795  15.832 -0.2629 -0.0303  0.4562
14875W        W31059   0.781  10.607  12.952  0.1290 -0.2210  0.4746
14876W        W31060   4.072   8.088   4.934  0.0925  0.3493  0.1082
14877W        W31061  10.621   2.079  15.505  0.1100  0.4160  0.0649
14878W        W31062  10.927  10.350   1.788  0.1750  0.3347 -0.0974
14879W        W31063  12.440   0.280  16.237 -0.1597 -0.1568 -0.0814
14880W        W31064   0.240   6.121  12.936  0.0236 -0.1572  0.4589
14881W        W31065   2.416   7.898   2.935 -0.2706  0.0881  0.4426
14882W        W31066  16.261   9.457  14.968 -0.0452 -0.1373 -0.2938
14883W        W31067  16.978   8.473   0.421  0.2395  0.1752 -0.2111
14884W        W31068  13.429   5.220   5.386 -0.1620 -0.2222  0.0250
14885W        W31069  12.529  14.309  15.708  0.3922 -0.1252 -0.1309
14886W        W31070   0.185   5.125  13.168 -0.0582 -0.0023 -0.2698
14887W        W31071   8.345   6.206  12.594 -0.0522  0.3112  0.0822
14888W        W31072   4.669   9.044   1.335  0.0950 -0.0200  0.2185
14889W        W31073  12.993  11.029   1.705  0.0264 -0.2378  0.0142
14890W        W31074   4.102  16.695   3.269  0.2563 -0.1166  0.0125
14891W        W31075   7.614  11.150   1.892  0.3437 -0.0879 -0.0504
14892W        W31076  16.051  12.017  16.484 -0.0524  0.0979 -0.1602
14893W        W31077  11.516  16.462  11.575  0.0058 -0.0542  0.0694
14894W        W31078  16.333  12.030   4.803 -0.0564  0.1884  0.0678
14895W        W31079   5.338   7.498  13.217  0.1332  0.3242  0.0263
14896W        W31080   1.192   1.860  13.701  0.0093  0.2259 -0.1328
14897W        W31081  14.509   8.133  12.050  0.3314  0.2618  0.2038
14898W        W31082  17.699   2.808  14.746 -0.4047 -0.2448 -0.1303
14899W        W31083  11.480   2.247  13.393  0.2295 -0.0213 -0.0465
14900W        W31084   3.021   5.527   3.885 -0.2057 -0.2263  0.1445
14901W        W31085   9.172   6.441   0.647 -0.3145  0.1648 -0.3477
14902W        W31086   1.406  13.149   5.860 -0.0604  0.0732 -0.0202
14903W        W31087   8.739   3.058   3.365  0.0851 -0.0613 -0.0339
14904W        W31088   4.535   9.892  14.889 -0.0400 -0.0489  0.0361
14905W        W31089   4.369   8.608   4.445 -0.3026 -0.0919  0.1503
14906W        W31090   2.470   7.199   0.466 -0.0060  0.0418 -0.2223
14907W        W31091   5.461  14.771   2.765 -0.0551 -0.3698  0.1914
14908W        W31092   0.953  13.190  16.401  0.3534  0.0308 -0.4454
14909W        W31093  15.311  11.687  14.134 -0.1082  0.1911  0.2310
14910W        W31094  12.832   8.254  11.925 -0.0142 -0.0727 -0.3256
14911W        W31095   0.490  10.928  15.576  0.3068 -0.0336 -0.0822
14912W        W31096   1.798  15.456   3.749  0.1391  0.1319  0.0789
14913W        W31097   7.315  13.872  11.985 -0.0916 -0.2398 -0.3728
14914W        W31098  10.057  16.499   5.412  0.4519 -0.2728  0.1992
14915W        W31099  17.815   9.823   5.113  0.0713 -0.0495 -0.1735
14916W        W31100   8.201   3.246   1.344  0.1565 -0.2150  0.0984
14917W        W31101  17.410   5.934  12.909  0.1079 -0.0764 -0.2201
14918W        W31102  12.634   0.584  12.095  0.2099 -0.2233 -0.2412
14919W        W31103   7.065   2.713   5.039  0.2025  0.2230 -0.1536
14920W        W31104  17.620  10.134   1.665  0.3094  0.3642  0.0868
14921W        W31105   1.649  14.092  13.905  0.4126 -0.1975  0.0834
14922W        W31106  15.586   5.059   5.606 -0.2286 -0.1378 -0.1954
14923W        W31107   3.131  15.987  11.871 -0.3187  0.0086  0.0654
14924W        W31108  16.436  12.370   2.610 -0.2087  0.2995 -0.0565
14925W        W31109  17.730   5.536   0.381 -0.3307  0.1722  0.0856
14926W        W31110   2.308   7.850  10.755 -0.2021  0.2043 -0.0551
14927W        W31111  14.974  11.941  12.755 -0.1725 -0.3876 -0.3388
14928W        W31112   4.244   3.019   2.006  0.1059 -0.2255  0.1844
14929W        W31113  10.582   6.018   3.450 -0.1506 -0.3596 -0.5291
14930W        W31114   4.986  15.980   0.854  0.2492 -0.1806  0.2773
14931W        W31115  13.143   8.729  13.232  0.1464 -0.2688 -0.1064
14932W        W31116   4.397  17.199   0.246 -0.1715 -0.2019 -0.3150
14933W        W31117  12.997  16.331   4.340  0.3244  0.3401 -0.1640
14934W        W31118   0.869  16.190   0.717  0.3571 -0.0950  0.0764
14935W        W31119  11.750   3.998   1.028 -0.1035 -0.1637  0.1215
14936W        W31120   4.517  17.726  15.807 -0.1529 -0.1638  0.0524
14937W        W31121   7.321   2.147   0.817  0.0615 -0.0181  0.2083
14938W        W31122   0.668   5.738   0.840  0.1490 -0.1346  0.2155
14939W        W31123   1.300   0.615   4.474 -0.0579 -0.2395  0.0345
14940W        W31124  15.850   0.428  14.217 -0.0842 -0.0706  0.2585
14941W        W31125   4.727   8.894  14.994 -0.3594 -0.0044  0.1566
14942W        W31126   9.895   5.199  15.657  0.1129 -0.2254 -0.1069
14943W        W31127   4.065  11.752  12.900  0.2723 -0.1221 -0.2610
14944W        W31128  16.892   2.456   2.008 -0.1038  0.0761 -0.0968
14945W        W31129   0.432  12.435  12.475 -0.2797  0.0215  0.1018
14946W        W31130   2.178   2.564   1.676 -0.3475 -0.0184 -0.4727
14947W        W31131  16.801   8.062   4.562 -0.0590  0.0462  0.0425
14948W        W31132  12.274  14.042   5.594 -0.1225  0.1195 -0.0521
14949W        W31133  15.151  17.981  16.580  0.2835  0.0853 -0.0286
14950W        W31134  14.344  15.138  14.582  0.0309 -0.2915 -0.1132
14951W        W31135   9.684  16.591   2.654 -0.2058 -0.1912  0.0544
14952W        W31136   6.058  17.876   3.344 -0.0986 -0.1548  0.1182
14953W        W31137  13.200   2.710   0.787 -0.1256  0.1132  0.0024
14954W        W31138   6.606   3.952   4.664 -0.2241  0.0036 -0.1121
14955W        W31139   3.413   7.593   4.527 -0.1122 -0.1091 -0.1661
14956W        W31140  11.336   1.126  15.165 -0.0103 -0.0896  0.0216
14957W        W31141  17.174   2.664  11.201  0.1606 -0.3493 -0.1939
14958W        W31142  11.197  17.953  12.094 -0.2045  0.1082  0.1309
14959W        W31143  11.756  13.073   5.450 -0.0950 -0.0676 -0.1021
14960W        W31144   3.457   8.048  16.109  0.3363  0.0332 -0.1109
14961W        W31145   0.460   4.491  11.896 -0.2179  0.2541 -0.2091
14962W        W31146   0.696   7.488  15.827  0.2093 -0.2365 -0.0763
14963W        W31147  14.726   1.280   0.658 -0.1908 -0.0546  0.1679
14964W        W31148   7.308  11.630   2.948 -0.0711  0.0223  0.0627
14965W        W31149   0.025   7.287  14.028 -0.2524 -0.1929 -0.0559
14966W        W31150   6.736  11.816  13.753  0.1830 -0.3014 -0.0017
14967W        W31151   1.549   2.867  13.988 -0.0474 -0.0350 -0.0421
14968W        W31152   8.188   3.247   3.046  0.0971  0.3744 -0.1637
14969W        W31153  11.274   6.126  15.978 -0.2329 -0.1152  0.0492
14970W        W31154   5.868  10.659   0.749 -0.0105  0.0385  0.2569
14971W        W31155   0.458   8.394   1.880  0.0265  0.4156  0.2405
14972W        W31156   9.426   5.535   5.621  0.1431  0.5371  0.3228
14973W        W31157   5.686  13.906   4.756 -0.0970  0.0229 -0.1479
14974W        W31158   9.564   5.229   6.389  0.1394 -0.0961 -0.0925
14975W        W31159  17.663   7.137  15.559 -0.1866 -0.1308  0.2804
14976W        W31160  10.916   0.228   4.123 -0.2112 -0.1232 -0.0202
14977W        W31161  13.671   2.691  11.543 -0.1636 -0.0511 -0.0306
14978W        W31162   6.861  12.539   5.300  0.4348 -0.0602  0.0023
14979W        W31163  12.863  17.052  11.696 -0.1151  0.1865 -0.0495
14980W        W31164  16.557   0.601   4.143  0.2067 -0.1258  0.1110
14981W        W31165   6.424   6.333   2.419  0.0724  0.0229 -0.2019
14982W        W31166   6.503  12.334   0.691 -0.2345  0.0256 -0.0472
14983W        W31167  16.997  11.984  13.649 -0.0583  0.1243 -0.2185
14984W        W31168   0.365  15.954  16.062  0.4141 -0.1982 -0.1208
14985W        W31169   3.113   1.790  14.088 -0.1138 -0.0403 -0.1511
14986W        W31170   5.603  16.669   1.827  0.1112 -0.0247  0.2699
14987W        W31171   2.866  16.299   1.773 -0.0471  0.0638 -0.0002
14988W        W31172  12.379   4.620   2.302 -0.1924 -0.1925  0.2722
14989W        W31173  13.523   0.245   3.692 -0.1471 -0.1176  0.1031
14990W        W31174   2.128   2.432   0.188  0.1931  0.1369  0.0140
14991W        W31175   2.617   5.965   0.521 -0.1387  0.2054  0.3324
14992W        W31176   6.008   8.631   3.360 -0.0624  0.0047  0.1420
14993W        W31177  15.088  10.709   1.823  0.1413  0.2230  0.1841
14994W        W31178   1.107   7.238   5.315  0.1764  0.1465 -0.1688
14995W        W31179   4.555   9.717   1.991  0.1092 -0.2033 -0.1086
14996W        W31180   7.389   3.883  13.479 -0.1470 -0.1845  0.2424
14997W        W31181   7.817  13.270  13.609 -0.0602  0.3876  0.2045
14998W        W31182   6.068   0.292  14.663 -0.2497 -0.0485 -0.0185
14999W        W31183   3.084  17.677   2.187  0.1409  0.1715  0.0315
15000W        W31184   2.575   1.098  13.675  0.4377 -0.1124  0.2588
15001W        W31185  12.362   0.732  16.477 -0.1625 -0.0582  0.0893
15002W        W31186  12.094   9.828   3.894 -0.0355 -0.0259  0.0661
15003W        W31187  11.084   0.367  12.873 -0.1475 -0.2460 -0.1850
15004W        W31188   5.407  13.834   3.457  0.1076  0.0462 -0.0361
15005W        W31189   2.128  15.320   1.443 -0.3224 -0.0877 -0.2352
15006W        W31190  11.065   0.682   4.239  0.1843 -0.1929 -0.0265
15007W        W31191  12.852   7.535  14.752  0.0308 -0.0184  0.4691
15008W        W31192  16.075  17.073  14.090  0.1297  0.2860 -0.0993
15009W        W31193  16.852   4.632   1.605  0.0262 -0.0400 -0.1034
15010W        W31194  17.805   4.877   3.535 -0.0371  0.1371 -0.0106
15011W        W31195   3.849   4.045   3.055 -0.0101  0.1505 -0.0012
15012W        W31196   5.381   8.146  11.899 -0.2492 -0.2007 -0.0169
15013W        W31197  11.140  13.198   0.873 -0.1026 -0.1847  0.1130
15014W        W31198   8.692  11.042  15.571 -0.2848 -0.2344 -0.0407
15015W        W31199  11.768   4.929   2.532 -0.0198  0.4208 -0.0437
15016W        W31200  16.907  13.826   2.719  0.0659 -0.1261  0.2710
15017W        W31201  13.106   2.054  16.359  0.0653  0.0012 -0.0376
15018W        W31202   2.909   1.331   2.486 -0.3209  0.1121  0.2171
15019W        W31203   8.244   3.668  15.058  0.0524 -0.1168 -0.1470
15020W        W31204  12.781  12.189  16.266  0.0615  0.0874 -0.2494
15021W        W31205   0.355  13.661   1.720  0.0729  0.1329  0.0419
15022W        W31206  11.774  12.583   4.338  0.0504  0.0749  0.3450
15023W        W31207   8.609  12.646  15.406  0.1598 -0.1579  0.1924
15024W        W31208  12.450  11.950  14.592 -0.3195 -0.1526  0.0361
15025W        W31209   6.582   9.266   0.733  0.1071 -0.1358 -0.1535
15026W        W31210   2.536   1.787  13.218 -0.1744  0.1059 -0.2934
15027W        W31211  14.111   5.492  11.986 -0.1074  0.0490 -0.1608
15028W        W31212   2.645   7.724   2.481  0.2427  0.1883  0.1075
15029W        W31213   6.544   3.806   1.091  0.0406  0.0702  0.0754
15030W        W31214   3.426   5.884  15.912  0.3261 -0.1108 -0.0691
15031W        W31215  16.358  17.028   2.149  0.1718  0.3848  0.0284
15032W        W31216   8.763   1.554  15.333  0.2595 -0.2144 -0.0359
15033W        W31217   0.724   2.173   4.250 -0.0834 -0.2120  0.1511
15034W        W31218  15.269   1.680   0.001  0.0011 -0.0705  0.3539
15035W        W31219  15.505   4.999  12.597 -0.2142 -0.0960  0.0195
15036W        W31220   6.349   6.350   2.904  0.3553  0.0363 -0.3711
15037W        W31221   7.801  13.493  16.312  0.1740  0.1475 -0.3149
15038W        W31222   0.614   1.838   2.846  0.2380  0.0854 -0.0766
15039W        W31223  15.870   9.455  11.413  0.0433  0.1466  0.1260
15040W        W31224   2.498  16.739  14.412  0.2916 -0.1247  0.0080
15041W        W31225  12.781  11.786  11.408 -0.1544 -0.2849  0.0527
15042W        W31226  12.743   8.362  13.187 -0.0130  0.1411  0.1691
15043W        W31227   1.190  15.915   4.849 -0.1283 -0.1229 -0.0160
15044W        W31228  12.570  17.742   2.004  0.2825 -0.0626  0.0023
15045W        W31229   1.457   6.149   3.567 -0.0245  0.0577 -0.0531
15046W        W31230  15.973   8.391  16.516 -0.2385  0.0145  0.0119
15047W        W31231  11.055   8.092  12.178 -0.0751 -0.0890 -0.0819
15048W        W31232  15.304  15.434   4.393  0.1206  0.0568 -0.0047
15049W        W31233   5.511   2.985  13.952  0.3709 -0.1011 -0.0792
15050W        W31234  17.671  15.873   3.294 -0.0926 -0.1966 -0.2846
15051W        W31235  15.645  11.894  14.867  0.3824 -0.1258 -0.2035
15052W        W31236   0.600   0.800  13.056  0.1627  0.0982 -0.0062
15053W        W31237  13.991   8.829   4.950  0.1196 -0.1041  0.2529
15054W        W31238   8.618  16.137   0.498  0.1923  0.0393 -0.2285
15055W        W31239   4.833   8.780   4.007 -0.0054  0.0166  0.0583
15056W        W31240   8.746   2.228  12.808  0.1691  0.0332 -0.0036
15057W        W31241  14.080   3.939   2.714 -0.2454 -0.2768 -0.0248
15058W        W31242   5.362   7.111   3.567  0.1383  0.1057 -0.2493
15059W        W31243   8.115   4.278   4.719 -0.1645 -0.0494  0.2070
15060W        W31244   0.878   0.403   1.747 -0.2364 -0.1150  0.1247
15061W        W31245  12.362   7.477   5.880  0.1794  0.1680  0.0904
15062W        W31246  11.884   8.452  14.934  0.1350  0.1601 -0.1085
15063W        W31247   0.767   8.216  13.725 -0.0334  0.1200  0.4474
15064W        W31248  14.176   8.519   3.392 -0.1125 -0.1003  0.0889
15065W        W31249   5.537   2.419  16.015  0.2171 -0.2251  0.0472
15066W        W31250  12.927  12.993  13.179 -0.1936  0.0895 -0.0573
15067W        W31251  14.783  12.247  12.424 -0.0362 -0.1325  0.2447
15068W        W31252  13.827   3.308  13.769  0.2652 -0.0423 -0.3198
15069W        W31253   0.795   8.331  11.681 -0.0057  0.2691 -0.0522
15070W        W31254   5.132   9.544   1.918 -0.1241  0.1010 -0.1564
15071W        W31255  11.858   7.102  16.171 -0.0094 -0.1743  0.1192
15072W        W31256  15.196   3.443  14.248  0.1896  0.0545  0.1305
15073W        W31257   8.204  17.942   4.080  0.0088  0.3640  0.2308
15074W        W31258  12.269   5.478   4.112  0.1488  0.0408 -0.4278
15075W        W31259  15.934  17.392   1.786  0.2037 -0.1692 -0.0212
15076W        W31260  13.045   8.783   1.532 -0.2716  0.2008  0.2892
15077W        W31261   1.604  17.977   0.742  0.3491 -0.1911 -0.0901
15078W        W31262   5.072  11.219   0.472 -0.3630 -0.2076  0.0415
15079W        W31263   1.816   5.782   3.347  0.1812 -0.4372 -0.0204
15080W        W31264  13.494  16.844  13.751  0.1753 -0.1455 -0.0534
15081W        W31265   9.813   9.241  13.376  0.0468 -0.0613 -0.3386
15082W        W31266   4.107  15.866  16.060  0.0305 -0.0406  0.0482
15083W        W31267   4.242  13.818   6.474  0.1175 -0.1241  0.0826
15084W        W31268  13.792  11.215  12.230  0.0659 -0.0070  0.0120
15085W        W31269  15.215   7.679   4.806 -0.2085 -0.0925 -0.3142
15086W        W31270  14.042   8.289   0.741  0.0337 -0.0699  0.1171
15087W        W31271  11.393  11.533   4.717  0.1155  0.2183 -0.1707
15088W        W31272   5.795  12.952   3.386 -0.1790 -0.3742  0.0941
15089W        W31273   5.320   6.774   1.700 -0.1904 -0.3587  0.0962
15090W        W31274   6.718   9.710   0.885 -0.1155  0.1437 -0.1137
15091W        W31275  14.256   8.288  14.414 -0.0972  0.0819  0.0331
15092W        W31276   8.188   7.074   3.672 -0.1262 -0.0978 -0.0718
15093W        W31277   2.137   5.583   1.198 -0.0632 -0.0409  0.0071
15094W        W31278   9.814  16.057   1.149  0.1416 -0.1173 -0.1880
15095W        W31279   7.123  16.927  14.519  0.2386  0.1314  0.0425
15096W        W31280   8.970   1.256   3.996 -0.1534  0.2495  0.1101
15097W        W31281   9.362  14.016   2.077  0.0953  0.0250 -0.0506
15098W        W31282  14.966  12.121   3.366  0.2372  0.0332 -0.1244
15099W        W31283   3.092   1.193  14.612  0.0324 -0.0614  0.0615
15100W        W31284   7.557   3.566   2.346 -0.1091 -0.0994  0.0128
15101W        W31285  13.085  17.566  12.028  0.0860 -0.0064  0.0527
15102W        W31286  16.345   2.637   0.007  0.0098 -0.0342 -0.1445
15103W        W31287   3.936   2.618   1.666  0.0537  0.0257  0.1507
15104W        W31288  14.317  14.820  11.896 -0.0419 -0.1791  0.0730
15105W        W31289  15.799  12.593  14.114  0.2682 -0.5114 -0.3230
15106W        W31290   1.623   2.589  15.423 -0.0623 -0.0663 -0.0753
15107W        W31291  17.927   0.812  13.121 -0.1220 -0.0568  0.1652
15108W        W31292   6.649  10.196   0.916 -0.0554 -0.0049  0.0875
15109W        W31293   7.888  12.226  12.835  0.2776  0.0475 -0.1976
15110W        W31294   0.022   8.870   0.104 -0.2702  0.1682  0.0928
15111W        W31295   0.225   7.781  14.376 -0.1151 -0.4066 -0.1491
15112W        W31296  16.784   4.016   4.869  0.0872  0.1851  0.0609
15113W        W31297  16.001   7.610   5.450 -0.0746 -0.2772  0.2210
15114W        W31298  13.293   4.483  12.207 -0.0781  0.2833  0.1586
15115W        W31299   3.920   0.022  13.021 -0.2310 -0.1351  0.1121
15116W        W31300  13.706   3.246  12.380  0.2529  0.2682  0.1886
15117W        W31301   9.677  12.148   0.540  0.1413 -0.0959  0.1155
15118W        W31302   7.811   1.369   1.343 -0.0530  0.1027  0.0145
15119W        W31303   3.143  13.996  15.891  0.1068  0.1424  0.4188
15120W        W31304  16.284   9.805   4.156 -0.0848 -0.0988  0.0332
15121W        W31305   5.278  13.673  14.364 -0.3849 -0.0549  0.1738
15122W        W31306   4.867   7.026   2.653 -0.2537  0.2752  0.2608
15123W        W31307   1.368   4.663   2.293  0.0464 -0.3903 -0.2548
15124W        W31308  15.724  16.079   1.464 -0.0862  0.1612 -0.1362
15125W        W31309   4.410   6.741   3.473 -0.2992  0.0458 -0.2950
15126W        W31310   6.972   8.653  11.406 -0.0763 -0.0171 -0.0313
15127W        W31311   0.241  17.135   4.370 -0.0591 -0.3960  0.1813
15128W        W31312  16.000   3.343  11.498  0.0121 -0.3284  0.2029
15129W        W31313  15.073   6.493   2.681  0.2304 -0.1822  0.2613
15130W        W31314   6.905   0.550   2.746  0.2689 -0.2777 -0.2053
15131W        W31315  13.454   1.787   3.379 -0.0342  0.1887  0.1315
15132W        W31316   1.404  13.452  13.574  0.1443  0.3258  0.0132
15133W        W31317   0.674  12.879   2.280 -0.4556 -0.1648  0.0843
15134W        W31318  13.065   8.307  15.515 -0.1920  0.1913  0.2716
15135W        W31319   6.582   3.602   3.464 -0.0517  0.0140 -0.0120
15136W        W31320  15.685   9.917   4.756  0.0372  0.1772  0.2518
15137W        W31321   3.440   7.069   0.829 -0.2989 -0.1374 -0.0831
15138W        W31322  16.541  12.406  13.530  0.1923  0.1566 -0.0311
15139W        W31323  10.558   1.164  15.727  0.6149  0.1296  0.0290
15140W        W31324  13.042  14.074   2.930  0.0711  0.4088  0.0627
15141W        W31325   9.968   0.963  14.735 -0.4069  0.0608 -0.1013
15142W        W31326   5.831  14.083  14.560 -0.1194  0.1528 -0.0067
15143W        W31327   0.844   7.502   4.831 -0.1798  0.0113 -0.1144
15144W        W31328   7.670   3.853   2.808  0.1940  0.2260 -0.0692
15145W        W31329   7.974   2.422  13.544 -0.0322 -0.0643  0.4735
15146W        W31330  12.951  10.913   2.158  0.2636  0.0191  0.0113
15147W        W31331  11.844  11.520  15.898  0.1664  0.2360  0.1645
15148W        W31332   4.559  16.087  16.290  0.4531  0.1801 -0.1853
15149W        W31333   2.501  14.844  11.328 -0.0057  0.2956 -0.0652
15150W        W31334  10.868  10.307   4.700 -0.1712  0.0447  0.3241
15151W        W31335  14.446  15.681  15.671 -0.1334 -0.2808 -0.0234
15152W        W31336   5.993   1.189  14.702 -0.0502 -0.0860  0.0544
15153W        W31337   7.137   4.744   4.578 -0.0477 -0.4015 -0.2177
15154W        W31338   9.912   2.661   4.381  0.1684 -0.0344 -0.0815
15155W        W31339   0.421   8.176  11.423  0.4531 -0.1820 -0.0031
15156W        W31340  17.200  16.428   0.787  0.3310 -0.0403 -0.0930
15157W        W31341  15.393   2.854   6.043 -0.2587 -0.0113 -0.0545
15158W        W31342  16.108  10.765  11.847 -0.1404 -0.0308 -0.2826
15159W        W31343   5.928  12.607  11.736 -0.2191 -0.1420 -0.2233
15160W        W31344  14.216   0.738   5.242 -0.1112 -0.1216 -0.0076
15161W        W31345   0.129   5.029   5.202 -0.0564  0.0756 -0.0189
15162W        W31346   8.498  16.040  12.272 -0.1489 -0.3221  0.0915
15163W        W31347   0.543  13.760  11.897 -0.0196  0.2533 -0.1701
15164W        W31348  12.961   1.841   0.222  0.2200  0.0102  0.0927
15165W        W31349   0.745  10.684  15.108  0.3132 -0.3931  0.2915
15166W        W31350   1.821   4.042  13.187 -0.0938 -0.3290  0.1884
15167W        W31351   0.611  17.968   2.018 -0.0989  0.0026 -0.2871
15168W        W31352  13.845  11.611  11.938 -0.2779 -0.0638 -0.1996
15169W        W31353  12.658  10.420   1.302 -0.1628 -0.1776 -0.2637
15170W        W31354  13.173  15.568  12.724 -0.0809 -0.2900 -0.1478
15171W        W31355  12.071   1.008  15.001 -0.3944 -0.0475 -0.1721
15172W        W31356   8.006   3.051   5.368  0.3550 -0.2758 -0.1010
15173W        W31357   8.716  12.449   2.040 -0.2118 -0.1159  0.1816
15174W        W31358   4.982   5.383   1.030 -0.1075  0.1880  0.2883
15175W        W31359   5.848   1.960   2.205 -0.2341 -0.1361 -0.3916
15176W        W31360  11.237  10.233  11.628 -0.2279  0.0827 -0.0219
15177W        W31361  15.620  14.988   3.606 -0.0044 -0.0812  0.0544
15178W        W31362   4.349   6.699   4.650  0.1464 -0.0019  0.0674
15179W        W31363   4.424  11.403   3.523  0.3105 -0.1027 -0.1120
15180W        W31364  11.434   0.085  14.431 -0.1248  0.0826  0.0003
15181W        W31365  13.818  17.644  15.413  0.1805 -0.2403  0.1481
15182W        W31366  17.121  15.359  12.396  0.0690  0.0488 -0.0176
15183W        W31367  13.357   1.237  11.447 -0.3862 -0.1396  0.1335
15184W        W31368   7.921  11.162  12.930 -0.1310  0.0177 -0.1967
15185W        W31369   3.045  14.854   1.240 -0.0243  0.1498  0.1845
15186W        W31370   4.218  12.164  15.424  0.1741 -0.0049  0.0956
15187W        W31371  14.728   2.994   5.610 -0.4469  0.0148  0.2475
15188W        W31372   8.637   9.029   1.303 -0.0501 -0.3016  0.1221
15189W        W31373   6.961   9.786  13.877 -0.1887  0.1531 -0.0848
15190W        W31374  16.988   5.801  12.210 -0.1997  0.3583 -0.1344
15191W        W31375  17.126  13.196  13.887 -0.0092 -0.0628 -0.1871
15192W        W31376  14.786  12.917   3.223 -0.2741 -0.2706 -0.0165
15193W        W31377   7.270   0.765  12.197 -0.0200 -0.3476  0.3077
15194W        W31378   3.728  11.395   3.008  0.0863  0.2582 -0.1434
15195W        W31379   2.206   0.906  15.539 -0.0963 -0.1825  0.0771
15196W        W31380   1.387  11.124   5.507  0.1218  0.1231 -0.4533
15197W        W31381   2.746  12.852  11.562  0.0239 -0.1139  0.2106
15198W        W31382   6.626  10.063  10.827  0.0204 -0.1189 -0.3628
15199W        W31383  14.165  13.958  14.623 -0.0466 -0.1956  0.0510
15200W        W31384   0.986  17.581  11.520 -0.0766 -0.1062 -0.1323
15201W        W31385   9.215   6.555  16.102  0.0196 -0.1810 -0.4000
15202W        W31386   1.429  11.628   2.186  0.0402 -0.1637 -0.6138
15203W        W31387   7.312   0.200  13.549 -0.0168 -0.0839  0.3071
15204W        W31388   8.796   7.660  14.892 -0.0326  0.0164  0.1149
15205W        W31389   4.355   2.082   0.125 -0.1021  0.1213 -0.2706
15206W        W31390   4.793   2.693   2.748 -0.1355 -0.1594  0.1161
15207W        W31391   3.447   1.150  12.686 -0.0282 -0.1806  0.0452
15208W        W31392   4.600   2.272  13.809  0.1462 -0.1170  0.0546
15209W        W31393  13.515   1.114  15.446 -0.1377 -0.2090  0.0337
15210W        W31394  16.315   3.099  13.605 -0.0267  0.0502 -0.0177
15211W        W31395  11.422   3.450  14.783  0.0575 -0.2626  0.1161
15212W        W31396   4.673  17.654   4.155 -0.0172  0.4229  0.1115
15213W        W31397   0.916   0.444   5.696 -0.1147  0.0789  0.1380
15214W        W31398   4.934  15.226   4.743 -0.2026  0.1584 -0.0911
15215W        W31399   3.362  12.432   3.146 -0.2211 -0.1361 -0.4210
15216W        W31400   9.358  17.101  14.198 -0.0901  0.0507 -0.2274
15217W        W31401  17.990  14.659   0.167  0.0059  0.0039 -0.1030
15218W        W31402   0.763  13.144   0.986 -0.2395  0.1326 -0.4311
15219W        W31403   3.969  14.451  15.158  0.1448  0.0097  0.0526
15220W        W31404   4.722  10.825   1.278 -0.0131 -0.1232 -0.5024
15221W        W31405   4.773   6.887   5.635 -0.0878  0.1245  0.0117
15222W        W31406  12.557   8.722   2.411 -0.1244 -0.1779  0.1369
15223W        W31407   2.271  11.951   1.266  0.0466 -0.1271  0.0612
15224W        W31408  12.046  12.432   0.097 -0.1264  0.2656  0.0988
15225W        W31409   0.183   7.362   5.910  0.0476  0.5041  0.0055
15226W        W31410   4.522  17.695  15.297  0.0358 -0.0786 -0.1925
15227W        W31411  17.398  17.864   5.351 -0.1942 -0.2484  0.1386
15228W        W31412   0.089   9.507  13.948 -0.0910 -0.0576  0.4969
15229W        W31413   2.277  14.646  12.706  0.4462  0.2892  0.0430
15230W        W31414   1.969  12.487  15.647  0.1202  0.0575 -0.0844
15231W        W31415   7.921   1.432  13.256 -0.1028  0.1358 -0.1525
15232W        W31416  16.018   7.686  16.403 -0.2507 -0.1833  0.0579
15233W        W31417   1.186   1.264  12.545  0.0038 -0.0983 -0.1311
15234W        W31418  14.530  17.983   0.208 -0.0914 -0.1744  0.0140
15235W        W31419   8.591   8.759  12.212  0.0487 -0.0881  0.1542
15236W        W31420  12.149   5.756   0.162  0.1485 -0.1217 -0.3714
15237W        W31421   7.595   2.482   1.030 -0.0002 -0.1314  0.0236
15238W        W31422   7.514  16.508  15.046 -0.0476 -0.0257  0.2278
15239W        W31423  17.250  12.968   0.627  0.0357 -0.1136  0.3874
15240W        W31424  12.546   1.080   5.061  0.1302  0.0230  0.1178
15241W        W31425  13.081   4.352   5.470 -0.0585 -0.0538  0.0997
15242W        W31426   3.303   5.188   1.953  0.0616  0.0974 -0.1129
15243W        W31427  17.836   5.396   3.886  0.0129  0.1876 -0.0397
15244W        W31428   9.015   6.624  14.009 -0.0258  0.1199  0.0387
15245W        W31429   9.134  12.734  13.452 -0.1380  0.1576 -0.3125
15246W        W31430   6.871  14.870  15.002 -0.0591  0.2745  0.2473
15247W        W31431  14.194   2.512  15.393  0.1275  0.1064  0.0737
15248W        W31432  15.898   2.541   5.171  0.3962  0.0678  0.0209
15249W        W31433   7.863  14.635   4.151  0.2740  0.1788  0.0413
15250W        W31434   5.416   6.631   0.512 -0.1934 -0.1233 -0.0922
15251W        W31435   3.271   6.858   1.791 -0.0893 -0.0426  0.0965
15252W        W31436   0.196   3.265   0.501  0.1809  0.0731 -0.1834
15253W        W31437  17.283  17.649   1.475  0.1698 -0.0303  0.1023
15254W        W31438   8.527   2.508   0.872 -0.1669  0.2086  0.0025
15255W        W31439  17.226  17.825   4.547 -0.0749 -0.0612 -0.3813
15256W        W31440  13.260  12.591   4.415  0.1357  0.3483  0.0747
15257W        W31441   8.864   1.699   4.509 -0.0245  0.1024 -0.1889
15258W        W31442  15.737  11.004  12.173  0.2372  0.1016 -0.2077
15259W        W31443   9.185   4.966   1.651  0.0293  0.1273 -0.2192
15260W        W31444   2.923  17.867  13.036 -0.1512 -0.2436 -0.0078
15261W        W31445   3.362  11.753   2.979 -0.2093  0.1369 -0.1636
15262W        W31446  17.078  13.396   4.674 -0.4007 -0.0453 -0.2152
15263W        W31447  14.968   3.946  13.400  0.0933 -0.3540  0.1400
15264W        W31448   9.155  10.227  10.926  0.5755 -0.1927  0.1438
15265W        W31449   7.918   0.537   2.047  0.1792  0.1299 -0.1314
15266W        W31450  14.167  16.080   3.100 -0.2109  0.0467 -0.0319
15267W        W31451   0.454   9.996   4.791 -0.0450  0.0821  0.0226
15268W        W31452  15.628  14.616  12.638 -0.1111  0.2154 -0.2632
15269W        W31453  11.859  15.416  12.962  0.3627 -0.0610 -0.0497
15270W        W31454  15.790   6.817  14.852 -0.1780 -0.1086  0.0850
15271W        W31455   1.254  15.107   3.974 -0.1964  0.4082  0.1131
15272W        W31456   2.033   1.633   2.983 -0.2409 -0.0726 -0.1153
15273W        W31457   0.725  17.058   3.017 -0.0100 -0.0407 -0.0803
15274W        W31458   1.955   6.826   1.692 -0.0784 -0.2679 -0.0816
15275W        W31459   0.421  13.658  14.613  0.0746 -0.2240  0.1920
15276W        W31460   4.436   9.132  15.934 -0.3026  0.1247  0.0420
15277W        W31461   6.446  15.174   2.362  0.1283  0.3667  0.0894
15278W        W31462  16.518  16.338   1.567 -0.0187 -0.0080 -0.0169
15279W        W31463   8.382  13.429  14.209  0.2696 -0.0912  0.1468
15280W        W31464  15.610  11.556   5.142 -0.0151  0.2162  0.1229
15281W        W31465   2.289   4.283  15.586  0.4450 -0.1088 -0.1078
15282W        W31466  11.774   0.238   4.390 -0.1782 -0.0391  0.0825
15283W        W31467  13.571   4.097   5.497 -0.2889  0.3781 -0.1614
15284W        W31468  11.786   1.249   0.379  0.0509  0.1520 -0.2341
15285W        W31469  14.659  17.414  12.843 -0.2698  0.0365 -0.0458
15286W        W31470  15.537  13.302  12.528  0.1101  0.2357 -0.3038
15287W        W31471  13.348   0.844   1.376 -0.0061  0.0553  0.0762
15288W        W31472  13.990  17.376   0.842  0.0360  0.2890  0.1428
15289W        W31473  15.893   9.785  14.775  0.3674  0.1317 -0.3819
15290W        W31474  16.982   9.882  14.562  0.1043 -0.0738 -0.0310
15291W        W31475  17.910   4.686   4.953  0.1190  0.1346 -0.1243
15292W        W31476   4.412   4.206   3.698 -0.2432  0.1466 -0.0007
15293W        W31477   4.053  16.207   4.731 -0.2756 -0.1526  0.1508
15294W        W31478   1.993  10.115  15.286 -0.1230 -0.4234  0.0821
15295W        W31479  17.158   5.335  16.451 -0.1647 -0.1128  0.1747
15296W        W31480  10.621  12.728   5.455 -0.1720 -0.0902  0.2602
15297W        W31481  11.845   4.052  16.421  0.0748  0.1100 -0.0331
15298W        W31482   0.593  16.468  12.719 -0.0056 -0.1439  0.0736
15299W        W31483   0.470  15.628  16.403  0.0725 -0.1186 -0.2281
15300W        W31484  13.025   7.832  12.098  0.4377 -0.0068 -0.1153
15301W        W31485  11.922   5.794   5.294  0.1872  0.0197 -0.0101
15302W        W31486   1.808   0.249  13.378  0.2465 -0.0919 -0.3008
15303W        W31487  13.808   6.959   1.781 -0.1019 -0.0494 -0.0881
15304W        W31488   4.327  11.854   2.168 -0.2443  0.1129  0.3183
15305W        W31489   5.482  17.653   3.005 -0.3299  0.2231 -0.1754
15306W        W31490   7.309   5.937  15.235  0.1119  0.1280  0.0569
15307W        W31491  17.899   1.682  13.020 -0.5217  0.1203 -0.1395
15308W        W31492  10.103   9.308  16.424 -0.0070  0.6226  0.3932
15309W        W31493   1.178  13.596   2.028  0.0059 -0.0984  0.3344
15310W        W31494  13.662   8.096   2.749 -0.0141 -0.0739 -0.1769
15311W        W31495  17.862  17.389  12.352 -0.0517  0.1039  0.0835
15312W        W31496   1.123   0.519   1.311 -0.0622 -0.4039  0.0320
15313W        W31497   8.004  17.186   1.261 -0.0384 -0.0337 -0.1660
15314W        W31498   1.165  16.214  11.704 -0.1563 -0.0638  0.1800
15315W        W31499   2.854   9.706   3.538 -0.2964 -0.0796  0.0474
15316W        W31500  16.854  14.330  15.515  0.1032 -0.4113 -0.2337
15317W        W31501  10.788   7.981   2.494  0.0892  0.2763 -0.1320
15318W        W31502   4.370   2.150   6.357 -0.1928  0.0439  0.1112
15319W        W31503   8.093   0.703  15.221 -0.2308 -0.2416  0.0882
15320W        W31504  15.412   8.962   4.266 -0.0270 -0.0534 -0.1054
15321W        W31505  15.472  12.006   1.905 -0.2687 -0.1251  0.2829
15322W        W31506  12.110  17.141   4.830 -0.0873  0.3405 -0.0132
15323W        W31507   8.578  12.987  13.378 -0.1977 -0.0512  0.0992
15324W        W31508   4.074   6.503   5.882 -0.0385 -0.0299 -0.0212
15325W        W31509  12.498  14.727   0.356  0.3532  0.1301 -0.0264
15326W        W31510  11.287   7.012   2.610 -0.1846  0.1269  0.0844
15327W        W31511  13.141   7.629   1.627  0.0726 -0.0335  0.0649
15328W        W31512  17.705  13.966   4.304  0.3613 -0.0908  0.2159
15329W        W31513   9.686  11.737  14.340  0.1843 -0.1217  0.0640
15330W        W31514  14.206  11.247   1.524 -0.0378  0.1678  0.2312
15331W        W31515   7.081  14.655   2.141  0.3201 -0.1197 -0.2013
15332W        W31516   4.003  11.921  11.555  0.0347 -0.0728  0.0627
15333W        W31517   9.696  17.225  15.220 -0.0335  0.2553 -0.2504
15334W        W31518  10.902  12.306  13.993  0.1447  0.1695  0.1384
15335W        W31519  16.666  15.240   5.594 -0.1040  0.1567  0.1303
15336W        W31520   0.022  12.577   0.602 -0.2490  0.2526 -0.1030
15337W        W31521  13.475   0.755   3.760 -0.2528 -0.2719  0.0094
15338W        W31522  14.382  11.340   2.431 -0.0295 -0.0418  0.0261
15339W        W31523   3.260   5.614  13.320  0.3040  0.0040 -0.0957
15340W        W31524  10.045   3.936  12.520  0.1680 -0.2672 -0.0153
15341W        W31525  17.539  14.291   3.547 -0.1395 -0.0560  0.1194
15342W        W31526  12.565   7.920   5.862 -0.0517 -0.2151 -0.3550
15343W        W31527   6.704   8.460  13.375  0.0600  0.0999  0.0423
15344W        W31528  13.968   3.837   0.063  0.0503  0.1743  0.1131
15345W        W31529  13.165   0.014   1.172  0.2367  0.0334 -0.1038
15346W        W31530  13.631  17.788   5.419 -0.1410  0.2167  0.4799
15347W        W31531   4.594   7.667   6.004  0.0341 -0.1360  0.2993
15348W        W31532  10.649   8.374   4.575 -0.0832  0.1722  0.1938
15349W        W31533   8.119   8.105  12.798 -0.0071 -0.2642 -0.0022
15350W        W31534  10.519  14.477  12.287  0.1607  0.4792  0.3036
15351W        W31535   5.453   1.817  13.739  0.2884 -0.1386  0.0496
15352W        W31536  17.806  16.290  15.619  0.0636  0.2448  0.1021
15353W        W31537  17.135  12.136   1.056 -0.1472  0.1782  0.2505
15354W        W31538  14.421   7.072   3.337  0.0275  0.0987 -0.0524
15355W        W31539   0.560  14.990  16.211 -0.1812  0.0371  0.0974
15356W        W31540   8.333  17.238  15.681  0.0023  0.0944 -0.2035
15357W        W31541  10.318   6.830   1.669  0.3201 -0.3393 -0.1380
15358W        W31542   5.819   7.348  15.766 -0.0201  0.1069 -0.0398
15359W        W31543  13.668   4.163   1.432  0.2647 -0.0028 -0.2112
15360W        W31544   1.444   9.367   2.819  0.0273  0.1110  0.0152
15361W        W31545   9.852  10.161   0.203 -0.0611  0.0195 -0.1876
15362W        W31546  12.283   1.425   5.876  0.0254 -0.3130 -0.3718
15363W        W31547  14.125   6.633   2.139 -0.0298  0.2028 -0.1382
15364W        W31548   7.685   8.269  13.141  0.2686  0.2296  0.0002
15365W        W31549  16.747  17.676   4.747  0.0302  0.1190 -0.1845
15366W        W31550  13.575   6.304  11.964 -0.0601  0.0447  0.1078
15367W        W31551  15.726   0.138  12.682  0.2105  0.2006  0.0651
15368W        W31552   5.437  17.592  13.966  0.0353 -0.0791  0.2306
15369W        W31553   1.187   8.809   4.691 -0.0210 -0.0302 -0.2719
15370W        W31554  14.203   2.148   2.290  0.0077 -0.1947 -0.1487
15371W        W31555  16.406  11.973   2.362 -0.2952  0.2359 -0.2406
15372W        W31556   5.888  16.139   1.192 -0.0558 -0.1419 -0.1059
15373W        W31557  17.248   1.692  11.091 -0.2655 -0.1403  0.0935
15374W        W31558   4.218  11.506  14.603  0.0049  0.0887 -0.1335
15375W        W31559   0.512   3.620   4.116 -0.0746 -0.0197 -0.2513
15376W        W31560   1.890   6.199  15.603 -0.3310  0.0817  0.1094
15377W        W31561   3.426   3.490   3.825 -0.1748  0.0567 -0.2006
15378W        W31562  15.531  15.227  10.609 -0.1015  0.1270 -0.0436
15379W        W31563  15.709   8.726  11.907  0.1731  0.3979 -0.0615
15380W        W31564   5.744   1.601  14.296  0.0413 -0.3033  0.0225
15381W        W31565   5.109  11.758   1.537 -0.3345 -0.1944  0.0309
15382W        W31566  14.083   8.185  12.355  0.0846  0.0065 -0.0050
15383W        W31567  10.693   5.301  15.191 -0.0727 -0.0636 -0.0230
15384W        W31568   1.291  13.903  16.182  0.1299 -0.2690 -0.2939
15385W        W31569   6.199   3.004  16.473  0.4649  0.1548 -0.0492
15386W        W31570  16.539   8.904   4.255 -0.1236  0.0398  0.1325
15387W        W31571   0.205  15.695   1.096  0.1158 -0.4067 -0.0561
15388W        W31572  10.460   4.344   4.313 -0.0780  0.0420  0.2078
15389W        W31573  14.822   9.851  15.595  0.3017  0.1556  0.1971
15390W        W31574  17.233   7.105   5.409 -0.0843 -0.1367  0.1056
15391W        W31575   7.988  14.482  12.462 -0.2848  0.1149 -0.3781
15392W        W31576  13.761  11.203  15.581  0.2117  0.0231 -0.2200
15393W        W31577   5.928   2.275  11.744 -0.1184  0.0738  0.2261
15394W        W31578  15.069   9.180  11.703  0.1046  0.1617 -0.1232
15395W        W31579  10.203  10.997   4.203  0.0925  0.0353  0.0212
15396W        W31580  12.266   5.241  14.504  0.3734  0.0971  0.2662
15397W        W31581   9.155   3.468   2.785  0.1196 -0.1058  0.0964
15398W        W31582  12.864   2.756   3.206  0.1002 -0.1804 -0.0185
15399W        W31583   3.876   8.042  15.775 -0.0012  0.1841  0.0991
15400W        W31584   0.041   4.141   0.272  0.0002 -0.1316 -0.1100
15401W        W31585   2.454   7.252  12.815 -0.2972  0.0115  0.1771
15402W        W31586  13.660   4.200  16.442 -0.0975 -0.1412  0.0127
15403W        W31587   8.472   2.765  12.656 -0.0425 -0.1742  0.0032
15404W        W31588  12.532   9.197  15.614 -0.2996  0.1861  0.2760
15405W        W31589   7.730   7.810  16.446 -0.4207 -0.3119  0.0799
15406W        W31590   2.555  13.970   0.753  0.0464 -0.2960 -0.0001
15407W        W31591  13.808   2.107  15.390 -0.0446 -0.3022  0.1666
15408W        W31592  10.929   9.566  12.266  0.0178 -0.2022 -0.0845
15409W        W31593   4.885   2.230   2.722 -0.1984  0.0924 -0.2895
15410W        W31594   3.751   3.160  12.188  0.2126  0.0301  0.2047
15411W        W31595  15.285  11.131  12.497 -0.0892 -0.0287 -0.3581
15412W        W31596  16.609   4.519   3.504 -0.2171 -0.1478  0.1983
15413W        W31597  14.931  10.432   4.236 -0.2934 -0.1404 -0.1987
15414W        W31598  11.562   6.201  15.600 -0.1125  0.0409 -0.3038
15415W        W31599  11.395  10.546  15.883 -0.1955  0.0097 -0.4487
15416W        W31600   1.762   8.933   5.451  0.1403 -0.3564 -0.0695
15417W        W31601  10.250  13.817   4.972 -0.2117  0.1751  0.1654
15418W        W31602   8.519  10.430   3.074  0.0130 -0.0486  0.1737
15419W        W31603   4.357  17.622   5.976 -0.2802 -0.0682  0.1062
15420W        W31604  16.755  10.321   4.444 -0.0403 -0.0191  0.0446
15421W        W31605  11.472  16.367   0.690  0.0020 -0.1192  0.3498
15422W        W31606  11.742  14.975  12.409 -0.0178  0.1034 -0.0273
15423W        W31607   6.049  13.527   1.147  0.1133 -0.1276  0.1140
15424W        W31608   6.608   4.953   1.112  0.2820  0.2923 -0.1987
15425W        W31609   0.743   5.527   5.598 -0.0366 -0.1017 -0.2617
15426W        W31610  10.894   7.352  12.784  0.0449  0.0949  0.2379
15427W        W31611   8.034  14.759   0.763 -0.0749 -0.2002  0.0639
15428W        W31612  12.064   3.330   2.185  0.0311  0.0309  0.1528
15429W        W31613   6.720  11.946   1.003  0.1531  0.0559  0.0486
15430W        W31614   9.627  15.838   0.176 -0.2019 -0.0651 -0.1532
15431W        W31615   6.069  10.165  15.480  0.1580 -0.1487 -0.1040
15432W        W31616   4.781   1.723   0.197 -0.0762 -0.2968  0.1609
15433W        W31617   3.617   5.824   2.888  0.0912  0.0105 -0.1361
15434W        W31618  14.970   2.620  16.523  0.1134 -0.1164 -0.1595
15435W        W31619   1.691  15.822   4.060 -0.4170  0.2854  0.2193
15436W        W31620  15.911   5.529  15.546  0.0687  0.0658  0.1503
15437W        W31621  10.275   7.105   2.630 -0.3578  0.0700 -0.1447
15438W        W31622   7.692  11.786  15.226  0.2169 -0.1762  0.3189
15439W        W31623  11.963   2.046  12.467 -0.1972  0.2745 -0.2096
15440W        W31624   7.171  10.981  12.601  0.1899 -0.0181 -0.1821
15441W        W31625  11.819   9.015   0.136 -0.4253  0.1343 -0.2158
15442W        W31626  17.085  17.962   5.000  0.0713 -0.1858  0.2051
15443W        W31627   6.367  14.086   4.243  0.0074  0.2272 -0.2995
15444W        W31628   4.013  11.652   1.169  0.2565  0.0329  0.1141
15445W        W31629  11.696   1.037   5.697  0.2815 -0.0662 -0.0675
15446W        W31630  12.645   3.556   2.826 -0.1934  0.1938  0.1112
15447W        W31631  17.433   6.582  14.225 -0.0128  0.0117  0.1035
15448W        W31632   9.771  12.310   1.010 -0.1572  0.1532  0.1151
15449W        W31633  12.715  12.636  14.760 -0.1084 -0.0823 -0.0260
15450W        W31634  11.945   0.210  14.456  0.0032 -0.4694 -0.0475
15451W        W31635   7.186  16.208   3.593  0.1703 -0.1910 -0.1239
15452W        W31636  13.775   2.292   4.096  0.0876 -0.1585  0.0063
15453W        W31637  10.863  14.137   2.811  0.2389  0.2029 -0.1175
15454W        W31638   0.794   5.806  11.667  0.3451  0.1168  0.1852
15455W        W31639  11.369   5.153  12.605  0.0743  0.0838 -0.0557
15456W        W31640  15.177  11.043  14.382  0.1876 -0.1171  0.0425
15457W        W31641  12.591   3.747   3.388 -0.2634  0.0883 -0.1041
15458W        W31642   6.495   9.417   2.710  0.1154 -0.1718  0.1235
15459W        W31643   7.223  11.385   2.059  0.1430  0.2369  0.2875
15460W        W31644  12.727  15.974   2.430 -0.0544 -0.2011 -0.0304
15461W        W31645  10.029   5.576   3.788 -0.0306 -0.3256  0.2628
15462W        W31646  14.041  17.120  16.368 -0.0374 -0.2159  0.1116
15463W        W31647   4.421   2.860  14.653 -0.2328  0.2050 -0.2201
15464W        W31648  16.032   8.279   2.281 -0.0221 -0.1814 -0.1034
15465W        W31649  10.293  13.467   2.378 -0.2022 -0.0799 -0.1717
15466W        W31650  15.984   2.518  12.336 -0.0878 -0.0187  0.1023
15467W        W31651  13.280   3.634   5.269  0.1889 -0.1748 -0.0155
15468W        W31652  14.581   2.265   2.569  0.2304 -0.4400  0.2060
15469W        W31653  16.044  12.404  13.712 -0.0890  0.1165  0.2223
15470W        W31654   5.452   4.072   5.455 -0.0622 -0.1865 -0.1207
15471W        W31655  14.761   8.517   4.078  0.1656  0.1062 -0.4005
15472W        W31656  10.946  17.518   1.254  0.0845  0.0770 -0.1460
15473W        W31657  11.357   6.609  12.473  0.3497 -0.0009  0.1195
15474W        W31658   5.373  11.745   3.394  0.2037  0.4192 -0.1207
15475W        W31659   9.314   5.237   1.223 -0.2746 -0.1877 -0.1023
15476W        W31660   8.024   8.952  13.781 -0.0482  0.1865 -0.0184
15477W        W31661   8.387   3.190   3.800  0.0904 -0.1603 -0.0007
15478W        W31662   7.072  15.021  13.411  0.0309 -0.2512  0.3418
15479W        W31663   9.322  17.315  16.001  0.0327 -0.3047  0.2256
15480W        W31664  12.383   1.584  15.793  0.2444  0.0767 -0.1166
15481W        W31665   2.368  13.298  15.163 -0.0597  0.0376 -0.0779
15482W        W31666   5.052   3.672  12.766  0.0763 -0.2077  0.2276
15483W        W31667   9.126  14.550   0.847  0.0376 -0.0848 -0.0439
15484W        W31668  10.139  16.388   2.583  0.2176  0.2019 -0.1048
15485W        W31669   2.752   6.632  13.967 -0.3912 -0.2064  0.1343
15486W        W31670  14.067   8.304  15.429 -0.0848 -0.1068  0.1206
15487W        W31671   7.395   4.766  12.299  0.2404  0.3243  0.0716
15488W        W31672   2.943  12.073   3.080 -0.2624 -0.0386  0.0446
15489W        W31673   6.812   9.408   3.569 -0.1579  0.1406 -0.1789
15490W        W31674  13.734   4.710   2.875  0.0956 -0.1483  0.1607
15491W        W31675  10.471   8.847  13.864  0.1473  0.3613 -0.0622
15492W        W31676   3.055  12.499   2.745 -0.1134  0.2487  0.0399
15493W        W31677  15.995   1.736   3.574 -0.3937 -0.0571  0.0093
15494W        W31678   9.892   5.458   2.521 -0.2753 -0.2691 -0.1791
15495W        W31679  15.034   5.168   4.826 -0.3085  0.1044  0.0866
15496W        W31680   7.008   6.911  16.129  0.2580 -0.0393 -0.2216
15497W        W31681   3.292   8.122   3.224  0.3878  0.2209 -0.1460
15498W        W31682  17.505  11.348   2.617  0.0246 -0.0439  0.1103
15499W        W31683   4.664   7.625   4.042  0.1506  0.1850  0.1218
15500W        W31684  15.994  13.270  12.718  0.0783  0.2634 -0.0700
15501W        W31685   0.052  16.675  14.851  0.2761 -0.2620 -0.0399
15502W        W31686  12.268   4.353   0.012 -0.0246 -0.1137  0.3307
15503W        W31687   8.597  16.881  11.961  0.2386  0.1164  0.3027
15504W        W31688   0.437   0.046  13.426 -0.0586  0.0942  0.1991
15505W        W31689  17.392  10.257  13.932  0.2628  0.1969 -0.0890
15506W        W31690  12.120  17.723  12.110 -0.1487 -0.3774  0.1642
15507W        W31691   5.874   5.742  14.940  0.3120 -0.0563 -0.1782
15508W        W31692   8.728  13.414   6.121  0.0721  0.1023 -0.4208
15509W        W31693   9.144   1.096  13.989  0.3171 -0.1422  0.1165
15510W        W31694   2.526  11.841   0.429  0.1027 -0.0227 -0.2487
15511W        W31695  17.393  11.606  16.576 -0.1811 -0.1135 -0.1610
15512W        W31696   6.616  13.645   0.251  0.1549  0.1676 -0.2655
15513W        W31697  16.606   0.413  14.759  0.0180  0.0050 -0.0033
15514W        W31698   2.410   2.335  14.364  0.3080 -0.0493 -0.0316
15515W        W31699  14.212   6.272  13.226 -0.3728  0.1056  0.0989
15516W        W31700  15.110   7.314  12.224  0.0170 -0.1636  0.2312
15517W        W31701   9.521   5.774   2.723 -0.0647 -0.1983 -0.0838
15518W        W31702  17.713  13.162  10.134  0.0028 -0.0761 -0.1565
15519W        W31703   6.605  15.311  11.661 -0.0278  0.1524  0.0057
15520W        W31704  10.634  16.162  11.747 -0.0157 -0.3062 -0.0506
15521W        W31705   5.034   1.918   4.332  0.0068  0.0184  0.2628
15522W        W31706   4.035   3.349  13.441 -0.1752 -0.2188 -0.0098
15523W        W31707  16.447  17.748  11.576 -0.1983  0.0423  0.1190
15524W        W31708   5.335   0.995  14.968  0.3438 -0.2096 -0.0792
15525W        W31709   7.477   0.639   3.638 -0.2374  0.3058  0.3007
15526W        W31710   7.465  14.816   0.012 -0.0627  0.1530 -0.0428
15527W        W31711   1.765   7.248  14.961 -0.1495 -0.2167  0.2765
15528W        W31712   4.965  14.536   3.286 -0.1113 -0.2007 -0.1454
15529W        W31713   3.007  11.626   3.379  0.1683  0.3472 -0.1352
15530W        W31714   0.217   5.938   3.387  0.1536  0.0080 -0.0312
15531W        W31715  16.605  16.492  15.732 -0.2294  0.1809  0.0469
15532W        W31716  14.757  17.740  16.457  0.3678 -0.1831  0.1419
15533W        W31717   9.405  15.188  12.049  0.0402 -0.0884  0.1354
15534W        W31718   5.319   9.330   1.105 -0.0405 -0.2900  0.0325
15535W        W31719  12.096   1.836  11.651  0.2018  0.3410 -0.2042
15536W        W31720  13.909  16.841   2.776  0.0998  0.2371 -0.0046
15537W        W31721  10.324   6.809   4.055 -0.2835 -0.4366 -0.1723
15538W        W31722   7.996  17.377  16.127 -0.2167  0.0231  0.0521
15539W        W31723  11.578  15.083   0.393  0.1226 -0.1318 -0.4303
15540W        W31724  12.745   4.884   2.524 -0.1837  0.0465  0.2531
15541W        W31725   9.545   6.716  14.133 -0.1346  0.2806  0.0030
15542W        W31726  15.052   1.403   1.202  0.1799  0.2037  0.1414
15543W        W31727   4.842   3.377   2.988 -0.0543 -0.1606  0.1088
15544W        W31728   7.838   6.323   2.289  0.0519  0.2755 -0.1447
15545W        W31729  15.821   6.317   1.994 -0.3399  0.1824  0.3583
15546W        W31730   4.658  17.563   3.168  0.3144 -0.1083 -0.1939
15547W        W31731  11.418  10.668  14.881  0.1323  0.2578 -0.3552
15548W        W31732  11.791   1.381  15.282 -0.0924  0.0029 -0.0274
15549W        W31733  17.872  10.274   3.127 -0.3021 -0.2371 -0.1594
15550W        W31734  15.962  10.986   5.724 -0.0601  0.0202 -0.1586
15551W        W31735   0.519   5.552   1.617  0.0224  0.0876 -0.3272
15552W        W31736  17.699   5.815  13.798  0.1051 -0.0027 -0.3229
15553W        W31737  17.747   8.903   1.856  0.0074  0.0085 -0.0157
15554W        W31738   6.949  14.358  13.337  0.1081  0.3754 -0.2142
15555W        W31739   8.313   5.699  11.805 -0.1558  0.0124  0.1407
15556W        W31740  17.941  14.545   3.247 -0.0302  0.3939  0.2238
15557W        W31741  15.415   9.034  13.611 -0.1004  0.2268  0.0283
15558W        W31742   1.908   6.038  14.539  0.1255  0.1093  0.0676
15559W        W31743   1.099   6.674  16.411  0.0056  0.1371 -0.3666
15560W        W31744  10.536   7.679   1.629 -0.0077  0.1187 -0.2197
15561W        W31745  16.206   4.707   0.810  0.0106 -0.0731 -0.1951
15562W        W31746   0.109   8.156  12.736 -0.1385 -0.2266 -0.3332
15563W        W31747   5.421   1.111  13.142  0.0635  0.3155  0.1049
15564W        W31748   3.818   2.370   2.692 -0.0084 -0.0224  0.0105
15565W        W31749  15.811   6.339   0.160 -0.0857 -0.0243  0.0303
15566W        W31750   2.964  16.271  11.395 -0.2679 -0.1700  0.1616
15567W        W31751   8.161  11.907   1.979  0.1848  0.0862  0.0139
15568W        W31752  14.719   2.712  13.742 -0.0739 -0.0875  0.0198
15569W        W31753   0.798   8.898  11.598 -0.0198  0.1772 -0.0725
15570W        W31754  15.934   8.335  11.591 -0.0234  0.0647  0.0914
15571W        W31755   1.005   4.268   3.032  0.0780 -0.1499 -0.1191
15572W        W31756   3.440   0.577  14.677 -0.5513 -0.3139 -0.1010
15573W        W31757   3.162   4.803   0.055 -0.2229  0.1905 -0.2985
15574W        W31758  13.385   1.678  15.445 -0.0326 -0.0510 -0.2275
15575W        W31759  17.476   6.041  11.498 -0.1825  0.2362 -0.0691
15576W        W31760   8.582   7.065   5.437 -0.1968 -0.1253 -0.1913
15577W        W31761   9.995   7.945   2.579  0.2561  0.0093  0.0539
15578W        W31762   3.997   6.105   0.470 -0.1588 -0.0299 -0.1092
15579W        W31763  13.487  14.920   3.260 -0.0441 -0.2050  0.2981
15580W        W31764  13.520  16.298  13.558  0.0304 -0.0804 -0.1404
15581W        W31765  16.681   7.800   4.950 -0.4014  0.1875  0.0153
15582W        W31766  11.094   4.677   1.825 -0.2326  0.2702 -0.3301
15583W        W31767  11.246   3.391   3.928 -0.0083  0.1270 -0.0597
15584W        W31768   9.351   1.157  12.694 -0.1768  0.0203  0.2572
15585W        W31769   0.746   1.451   1.016  0.1862  0.1525 -0.1864
15586W        W31770  15.186  17.848   1.857  0.0352  0.2015  0.1102
15587W        W31771   0.147   1.163  11.341  0.0274 -0.0177 -0.1681
15588W        W31772   8.212   1.855   3.175 -0.1008  0.3398  0.0884
15589W        W31773  15.029   5.297   3.720 -0.0261  0.0117  0.3520
15590W        W31774   2.675   0.569   2.096  0.0513  0.1082  0.1879
15591W        W31775  11.403  13.959   4.599 -0.1682 -0.0251  0.0782
15592W        W31776  12.216   3.589  12.533 -0.0543 -0.1087 -0.1878
15593W        W31777   2.813   1.124   4.914  0.1443  0.1403  0.3078
15594W        W31778   1.575  11.391  16.292  0.4097  0.3218 -0.2759
15595W        W31779   4.552   9.227  13.749 -0.4065  0.2250  0.0328
15596W        W31780   5.910  12.641   1.944  0.0396  0.1658 -0.1766
15597W        W31781   6.331  11.964   3.451  0.0916  0.0370 -0.2685
15598W        W31782   2.687   4.967  14.098 -0.2745  0.1950 -0.2285
15599W        W31783  16.043   8.620  14.959  0.0403  0.2172 -0.0330
15600W        W31784   2.585   8.805  16.522  0.1123 -0.1593 -0.2049
15601W        W31785   7.636  14.223   3.785  0.0482 -0.0478  0.0627
15602W        W31786  17.146  15.026  11.030  0.0814  0.0943  0.1857
15603W        W31787  10.159   9.177   3.508 -0.1083 -0.2047 -0.2544
15604W        W31788   9.071   2.043   5.494 -0.1168  0.1037 -0.1226
15605W        W31789   8.783   1.165  15.605 -0.2293 -0.1411  0.2450
15606W        W31790   0.407  11.970  16.362  0.1746 -0.4583 -0.2434
15607W        W31791   5.883  13.286   4.182 -0.2561 -0.1801  0.1718
15608W        W31792  15.957   1.848   2.565  0.0581 -0.0263 -0.1975
15609W        W31793  13.609   2.565   6.045  0.0678 -0.0825 -0.0456
15610W        W31794   2.116   6.970   3.025  0.0609  0.1622 -0.0238
15611W        W31795  10.025   7.377  15.397  0.1659 -0.2150  0.0440
15612W        W31796   7.935   3.069   4.032 -0.1141  0.0932  0.1848
15613W        W31797   9.808  13.335   2.545  0.4773 -0.0666 -0.1410
15614W        W31798  15.866   4.404   2.896 -0.1280  0.1157  0.2551
15615W        W31799  10.728   9.669   0.422  0.1032  0.2344  0.0637
15616W        W31800  15.286  10.691   3.272  0.0123  0.0300 -0.0155
15617W        W31801   9.909   5.274  11.728  0.1742  0.2184 -0.1824
15618W        W31802   9.139   7.599   5.262 -0.1297  0.2033 -0.0989
15619W        W31803   9.906  13.412  15.221  0.1028  0.0521  0.0890
15620W        W31804   8.439  14.272  11.496  0.0398  0.0417 -0.0534
15621W        W31805  15.579  13.385   0.299 -0.2740  0.2328 -0.0395
15622W        W31806  14.550  16.110   5.168  0.0180 -0.3081 -0.3972
15623W        W31807   2.007  13.238  10.244 -0.0916 -0.3350 -0.4870
15624W        W31808  15.919   1.357   2.663  0.0555  0.0348  0.2404
15625W        W31809   6.881   5.612  16.273 -0.1682 -0.0354  0.3857
15626W        W31810   6.770  12.545  14.810 -0.2365  0.2052  0.3443
15627W        W31811   6.800  10.510   1.961 -0.0750 -0.1136  0.0183
15628W        W31812   9.133   0.727   2.821  0.2778 -0.0668  0.0595
15629W        W31813   5.736  14.816  16.485 -0.0511  0.0850 -0.0568
15630W        W31814  12.348   9.035   4.439 -0.3956  0.0700 -0.0264
15631W        W31815  10.834  16.583   3.663 -0.0512 -0.2443 -0.0473
15632W        W31816  13.831  10.660   5.844  0.1083 -0.4784 -0.1651
15633W        W31817  11.255   3.766   3.631 -0.3847 -0.1749  0.0085
15634W        W31818  15.271   8.451   3.046  0.0070  0.1242 -0.0572
15635W        W31819   8.591  17.163   3.383 -0.0982  0.0433 -0.0605
15636W        W31820   3.317  13.622  14.893 -0.0383  0.0235  0.1186
15637W        W31821   0.273   4.435   4.129 -0.0965 -0.0554  0.0203
15638W        W31822  14.932  10.218  14.474 -0.3558  0.0849  0.0624
15639W        W31823   0.978  15.655  14.280  0.4237 -0.3276  0.1342
15640W        W31824  14.750  12.179  14.670  0.2826 -0.0155  0.2134
15641W        W31825   3.321   2.314  14.101 -0.1158  0.1630  0.0868
15642W        W31826   6.713   1.165  12.882  0.1767 -0.2052  0.1273
15643W        W31827  15.060   5.513  16.130  0.0901 -0.0422 -0.2568
15644W        W31828   9.387  15.739   2.612  0.0686 -0.1362  0.0927
15645W        W31829   8.826  13.710  16.618 -0.1025 -0.0311  0.1330
15646W        W31830   1.080   3.373  12.249  0.2056  0.2342 -0.0029
15647W        W31831  16.739   3.343   2.032  0.2244 -0.1030 -0.1627
15648W        W31832   6.462   7.595   4.396 -0.2259 -0.0597  0.1056
15649W        W31833   8.269   9.434   4.941 -0.0548  0.1452 -0.1558
15650W        W31834  17.189   3.002  12.121 -0.1100 -0.0713 -0.1272
15651W        W31835   7.108   0.678   2.313  0.1277 -0.0829 -0.3557
15652W        W31836   9.086  12.336   5.670 -0.0119  0.1947  0.3125
15653W        W31837   3.824   4.193  13.425  0.1815 -0.2946  0.2865
15654W        W31838   4.853  11.776   3.607  0.1494 -0.0248  0.3188
15655W        W31839  12.807   0.349   1.075 -0.0571 -0.3286 -0.1077
15656W        W31840   6.334  13.675   0.717 -0.0478  0.2575 -0.0809
15657W        W31841   6.023  12.065   0.675 -0.1862 -0.2594 -0.0394
15658W        W31842   5.643   5.179  15.737 -0.0717  0.2322 -0.0344
15659W        W31843   1.444   4.461   0.109  0.0726  0.1167  0.1759
15660W        W31844   2.583  12.190  12.055  0.0753 -0.2099 -0.1363
15661W        W31845   0.447  15.065   1.882 -0.1393  0.2307 -0.0522
15662W        W31846  14.378  16.705   2.328 -0.2676  0.0838 -0.2058
15663W        W31847   6.231   0.659  15.928  0.2734  0.2740 -0.1176
15664W        W31848   1.016  17.773   0.924  0.1255  0.0029 -0.0209
15665W        W31849  17.499  12.526  16.056 -0.3575 -0.2187  0.0119
15666W        W31850   5.864   3.140  14.966  0.0041  0.0550 -0.0570
15667W        W31851   9.620  16.777   5.535  0.1435 -0.1503 -0.1579
15668W        W31852   6.040   5.817   1.885  0.0120  0.0920  0.2644
15669W        W31853   6.244   3.800   0.218 -0.0219  0.2081 -0.1363
15670W        W31854  13.442   3.193  15.075 -0.2719 -0.0766 -0.1325
15671W        W31855   2.374   2.174  16.013 -0.1397  0.1752  0.0156
15672W        W31856   0.496  14.367   4.745 -0.0213  0.4453 -0.1129
15673W        W31857   7.590  13.195  13.083 -0.0397  0.1474  0.0911
15674W        W31858  14.189   7.450  14.778  0.0713 -0.0499 -0.3822
15675W        W31859  17.902   8.245  16.028  0.0472 -0.0766  0.3007
15676W        W31860   8.779  11.973  14.205 -0.1499 -0.1571  0.2562
15677W        W31861   2.811  12.744  14.342 -0.0197 -0.1943 -0.0037
15678W        W31862  15.018  15.848  11.220  0.1772 -0.1048  0.2735
15679W        W31863   7.712  16.895   5.044 -0.0693  0.0842 -0.1702
15680W        W31864   5.195  14.477  11.857 -0.1486 -0.2432  0.1164
15681W        W31865   7.395  17.531   6.001  0.2100  0.0921  0.1665
15682W        W31866  17.861  10.116  14.050 -0.0245 -0.1723 -0.1207
15683W        W31867  11.140  17.915   0.573 -0.0379 -0.2139  0.2160
15684W        W31868   0.181  14.640  14.232  0.1874 -0.0316  0.3626
15685W        W31869   8.317   1.253   1.421 -0.1341  0.2993 -0.1479
15686W        W31870  14.489   8.069   2.161  0.0030 -0.0273 -0.1070
15687W        W31871  10.068  11.135  15.017  0.1239  0.1808 -0.0592
15688W        W31872   9.133   1.932   2.192 -0.0175  0.2407 -0.1057
15689W        W31873  11.210  16.695  12.993 -0.2328  0.0676 -0.1645
15690W        W31874   5.831  14.897  14.236 -0.2003 -0.3058  0.0090
15691W        W31875   8.876  10.639  14.008 -0.2536  0.0939 -0.1452
15692W        W31876   6.389  13.516  16.463  0.2470  0.5412 -0.4433
15693W        W31877   7.792   9.819  16.230 -0.2917  0.3269 -0.0118
15694W        W31878   6.703   4.342   2.782 -0.3008  0.2810 -0.0266
15695W        W31879   8.572   5.366  13.581  0.4505 -0.0516 -0.2110
15696W        W31880  12.566   4.504  16.300 -0.1178 -0.0489  0.0570
15697W        W31881  13.060   1.316   5.348 -0.0175  0.0889 -0.1844
15698W        W31882  15.212  17.090   2.017  0.0665  0.0329 -0.1532
15699W        W31883   5.402   0.579  15.341  0.0818  0.1460 -0.0881
15700W        W31884  16.083   6.167  12.950 -0.0151  0.1850 -0.1531
15701W        W31885   8.556   8.123  10.745  0.0074  0.0604 -0.2851
15702W        W31886   1.829   6.788   2.189  0.1650 -0.0023 -0.0715
15703W        W31887   6.478  14.859  11.440  0.1395  0.0469  0.2732
15704W        W31888   3.534   3.400  12.647 -0.3172  0.1970  0.0680
15705W        W31889   9.703  13.792   4.672 -0.0083  0.0586 -0.1642
15706W        W31890  12.547  10.669   0.847 -0.3335  0.1813  0.0829
15707W        W31891  16.151  11.116   3.749 -0.1705 -0.4864 -0.0930
15708W        W31892   0.905  12.809  14.123 -0.1595  0.2235 -0.0031
15709W        W31893   9.647  16.753  15.453  0.0939  0.1948 -0.0836
15710W        W31894   0.204   2.172   5.090  0.1139  0.1942 -0.1831
15711W        W31895   4.029  15.502  15.555  0.0579 -0.2175 -0.0232
15712W        W31896   3.522   9.999  16.236  0.1403  0.1271  0.1283
15713W        W31897   7.167  17.304  15.261 -0.2587  0.1569 -0.0472
15714W        W31898   2.240   8.423  11.956 -0.1620  0.0197 -0.2480
15715W        W31899  16.965  14.355  12.070  0.0182 -0.3393  0.0515
15716W        W31900   3.694  14.735  16.646  0.3213 -0.2161 -0.1665
15717W        W31901  12.015   1.202  13.918 -0.0902 -0.3236 -0.1325
15718W        W31902   0.927  16.551  14.580  0.1707  0.3113  0.3150
15719W        W31903   2.688  16.507  13.523 -0.0261 -0.0477 -0.1079
15720W        W31904   2.767  11.946  11.668 -0.1815 -0.0558  0.0342
15721W        W31905   2.819   2.641  14.278  0.2599  0.0772 -0.2093
15722W        W31906  10.337   0.117  15.249  0.0494 -0.2562 -0.3527
15723W        W31907   3.415  16.699   0.350  0.0843 -0.2525 -0.2757
15724W        W31908   9.399  11.989   5.208  0.0935  0.0896  0.1271
15725W        W31909  15.957  17.495   4.446 -0.1578  0.0539 -0.2342
15726W        W31910  16.175  12.622  11.671  0.1113 -0.1583 -0.0051
15727W        W31911  13.350   8.639   3.084 -0.1907  0.2012  0.2058
15728W        W31912  14.990   8.164   2.274 -0.0608 -0.0767  0.0728
15729W        W31913   0.331  15.865  12.239 -0.0839 -0.5019 -0.0460
15730W        W31914   2.619  15.230  16.285  0.2009 -0.2665 -0.1963
15731W        W31915  11.875   6.413   1.618 -0.3086  0.0074  0.1617
15732W        W31916   5.226  12.532   1.752  0.0769  0.0947 -0.2210
15733W        W31917   5.288  17.679   2.382  0.1143 -0.0225 -0.0424
15734W        W31918  12.483   8.997   5.898  0.0720  0.0942 -0.1553
15735W        W31919   3.856   1.930   2.939 -0.1135  0.2198 -0.2739
15736W        W31920   3.642  15.409   4.530 -0.0334  0.1108  0.1124
15737W        W31921   1.845  17.858  15.623 -0.1256 -0.1543  0.1283
15738W        W31922  17.473   0.545   1.462  0.1642 -0.0429  0.2627
15739W        W31923  17.602   8.573  16.296  0.1056 -0.2186 -0.0007
15740W        W31924   7.139  15.773   4.346 -0.0195  0.1493  0.2364
15741W        W31925  16.001  11.390  15.512  0.3376  0.0978 -0.0813
15742W        W31926   8.354   8.877   0.546 -0.1400  0.0812  0.1093
15743W        W31927   7.827   2.786  13.892  0.5084  0.0920  0.2296
15744W        W31928   2.246  12.643   0.095 -0.0480  0.2770  0.1983
15745W        W31929   7.766   4.525   3.523  0.1918 -0.0266  0.3907
15746W        W31930  17.116   3.608   3.994 -0.3264  0.3174  0.1028
15747W        W31931   0.167  11.907   3.587 -0.0299 -0.0010  0.0940
15748W        W31932  15.715  11.990   2.888  0.1579  0.1241  0.0013
15749W        W31933   7.237  10.459  14.583  0.3327  0.0484 -0.0629
15750W        W31934  12.794   6.780  12.373 -0.0148 -0.0723 -0.0852
15751W        W31935   2.874  15.273  14.511 -0.2573 -0.1451  0.2249
15752W        W31936  10.087  15.068   2.514  0.2597 -0.0212 -0.2411
15753W        W31937   7.365   6.633   5.641  0.0524  0.3832  0.1170
15754W        W31938   3.604   8.620   2.530  0.0846  0.1004  0.1070
15755W        W31939   9.603  16.770   0.140 -0.0689  0.0494 -0.1532
15756W        W31940   4.480   2.988   5.453  0.1113  0.0515 -0.0198
15757W        W31941  11.862  13.648   3.536  0.1757 -0.1397  0.0406
15758W        W31942   0.856  17.169  16.403 -0.2347 -0.0438  0.1656
15759W        W31943   0.978   8.430   5.611 -0.1120  0.1814  0.2051
15760W        W31944   8.611  15.395   1.153  0.1077  0.2569  0.0667
15761W        W31945   0.900  10.613  11.906  0.2949  0.4926  0.0784
15762W        W31946   3.291   2.113  11.949 -0.2116  0.3465  0.1766
15763W        W31947  11.179   2.848   3.322  0.0294  0.2190  0.1010
15764W        W31948   8.511  10.596  14.886  0.1393 -0.2552 -0.2547
15765W        W31949   4.253   7.232  12.265 -0.1179  0.0358  0.2040
15766W        W31950   4.822   1.862   1.836  0.1809  0.1266 -0.0942
15767W        W31951  12.171   3.827   0.206 -0.1392  0.3328 -0.0005
15768W        W31952  12.720   3.790  12.553 -0.0642 -0.0858 -0.0375
15769W        W31953  16.380  14.588   5.040 -0.0244  0.1906  0.0972
15770W        W31954  10.240  11.787   1.492  0.1192  0.3940  0.0355
15771W        W31955  14.054   3.814  14.590  0.0425 -0.0530  0.5147
15772W        W31956  17.418   1.276   5.478 -0.0221  0.0895 -0.0895
15773W        W31957   6.091   7.806  12.863 -0.0734 -0.1638  0.1132
15774W        W31958  12.856  12.532   3.635 -0.1813 -0.2414  0.0085
15775W        W31959  17.686  10.568   1.961 -0.0130  0.3001  0.3032
15776W        W31960   6.720   8.939   2.262  0.1348 -0.1936  0.0118
15777W        W31961   6.820   6.212   4.351 -0.1456  0.1421  0.0119
15778W        W31962   4.255  14.440  10.577  0.1668  0.2958  0.0527
15779W        W31963  17.733  13.302   1.153  0.2054 -0.0647  0.0820
15780W        W31964   5.366  15.600  16.409  0.1658 -0.0404 -0.1289
15781W        W31965   9.106  17.801  15.891 -0.0335  0.1597  0.2110
15782W        W31966   6.797  17.675   5.422  0.0533 -0.2309 -0.1625
15783W        W31967  15.612   9.409  16.680 -0.2948 -0.0092  0.2816
15784W        W31968   8.737  15.761   0.152 -0.1085 -0.0770  0.2023
15785W        W31969  11.972   7.378  11.507 -0.0964 -0.0562 -0.0265
15786W        W31970  15.226   6.396  14.463  0.0546  0.0475  0.0436
15787W        W31971   0.108  12.347   0.087 -0.1192  0.3404 -0.3357
15788W        W31972   2.576   0.980  11.096 -0.1377  0.0630 -0.2478
15789W        W31973  17.699  11.194  13.136 -0.0262  0.1674 -0.1351
15790W        W31974  10.168   3.814   0.042 -0.0410 -0.1089 -0.0193
15791W        W31975   4.335   1.721   0.441 -0.1868  0.1940 -0.1117
15792W        W31976  11.909  15.102  14.832  0.0087 -0.0762 -0.0522
15793W        W31977   3.997   7.558  15.837 -0.0966 -0.1363  0.2096
15794W        W31978  15.424  15.768  13.889  0.1661 -0.0876  0.3314
15795W        W31979  17.623   4.802  16.134 -0.2576 -0.1681 -0.0531
15796W        W31980   3.210  13.085   2.960 -0.1112  0.0935  0.0734
15797W        W31981   5.580  17.677   0.461 -0.1911 -0.0897  0.2333
15798W        W31982   3.933   1.528   2.632 -0.1093 -0.0006  0.0966
15799W        W31983  13.880  17.701   3.853 -0.1622 -0.0881 -0.1083
15800W        W31984   2.938   0.910   4.284  0.1444  0.2614  0.0255
15801W        W31985   2.990  12.883   5.610  0.0318  0.2922  0.1060
15802W        W31986   4.811   4.597  14.082 -0.1650  0.1417  0.0638
15803W        W31987  13.667   0.342   2.614  0.0632  0.0584 -0.0935
15804W        W31988   1.365  13.707  15.288  0.2835  0.0378 -0.0974
15805W        W31989   1.363   3.287  15.323 -0.0988  0.0021 -0.1946
15806W        W31990  10.907   3.703   5.291  0.2762 -0.1251 -0.0400
15807W        W31991   5.115  17.289   3.365 -0.1176 -0.3731 -0.1230
15808W        W31992   1.077   4.807   5.249  0.0645  0.0946  0.1694
15809W        W31993  17.010  16.569  15.353  0.2352  0.0608 -0.0435
15810W        W31994  13.220   6.862  14.573  0.0194  0.0452  0.0862
15811W        W31995   2.431   5.336   0.881 -0.1578 -0.2832  0.1355
15812W        W31996  13.136   1.806   6.154 -0.0400 -0.1287 -0.0825
15813W        W31997   7.192  16.324  13.896 -0.1672 -0.0728  0.4169
15814W        W31998   1.635   4.433  14.967 -0.1358  0.0843 -0.2880
15815W        W31999   4.357   3.524   6.307  0.1556 -0.5083 -0.1698
15816W        W32000  17.750   5.913   3.055  0.0297 -0.0199  0.1281
15817W        W32001  13.230   2.187   0.501  0.2032 -0.2216  0.1297
15818W        W32002   0.547   5.195  12.711  0.1864  0.3960  0.0747
15819W        W32003   1.079  17.224  12.018  0.0861 -0.0794 -0.1728
15820W        W32004  11.297  12.151  12.624 -0.1851 -0.2453 -0.3195
15821W        W32005   4.926  14.836   5.073 -0.0783  0.1546 -0.1032
15822W        W32006  14.093   3.151  13.313 -0.1896 -0.0115  0.0488
15823W        W32007  15.821  11.427   6.063  0.1162  0.0069 -0.0961
15824W        W32008   0.524  17.001   2.234  0.2909 -0.1087 -0.2207
15825W        W32009   0.944   3.752   1.470 -0.0760 -0.0247  0.3141
15826W        W32010  11.984   1.426   4.882 -0.0311 -0.0361 -0.2025
15827W        W32011   7.746   5.225   4.312  0.2032  0.0746 -0.0055
15828W        W32012  15.492   2.487  16.213  0.0794 -0.2787 -0.2810
15829W        W32013  15.781  17.015   4.241 -0.1957  0.0741  0.0282
15830W        W32014   4.556   3.474  13.213 -0.0007 -0.0902 -0.0351
15831W        W32015  14.893   1.594  12.720 -0.0197 -0.0446 -0.1655
15832W        W32016  10.576   3.236   1.553  0.2082  0.2456  0.0423
15833W        W32017  15.284  10.963  12.018  0.0285  0.2777 -0.2291
15834W        W32018   5.670  16.152  11.772 -0.3151 -0.1807  0.2031
15835W        W32019   4.954   9.267  14.147 -0.1843 -0.6568  0.0420
15836W        W32020  10.877  17.252  16.155 -0.0732 -0.3345  0.0334
15837W        W32021  14.257  15.340   0.439  0.4184  0.1992  0.5021
15838W        W32022   4.635  17.462  12.160  0.2581  0.0526  0.0879
15839W        W32023   2.925  16.961   4.498  0.1293  0.0804  0.1666
15840W        W32024  13.996   8.450  16.480  0.2546 -0.0345  0.0989
15841W        W32025  11.465   5.210   2.840  0.0212  0.0002 -0.1136
15842W        W32026  15.378   1.815   3.728  0.0702  0.0158  0.0537
15843W        W32027  16.056  13.563   4.019 -0.1576 -0.0051  0.0692
15844W        W32028  15.048   4.090   0.367 -0.3454 -0.1912 -0.0542
15845W        W32029  14.742  16.378   0.222  0.3096  0.0290  0.2278
15846W        W32030   8.631   3.080   4.235  0.4082  0.2351  0.1136
15847W        W32031   7.267   1.826  12.629  0.0817 -0.1039  0.1358
15848W        W32032   3.908  13.459   6.364 -0.1971  0.2496 -0.1612
15849W        W32033   4.797  10.361   0.195 -0.2205  0.2266  0.2227
15850W        W32034  14.130  14.978   5.764 -0.1105  0.0333  0.2505
15851W        W32035  14.317  10.523  13.938  0.1617  0.0673  0.0506
15852W        W32036   9.541  15.874  14.045  0.1086  0.2105 -0.2271
15853W        W32037   7.650   3.342   5.138  0.4077  0.0797  0.0226
15854W        W32038   3.973  12.192  12.611 -0.0631 -0.1965 -0.1127
15855W        W32039   9.990   7.937   0.273  0.1074 -0.0490 -0.2008
15856W        W32040   9.895   5.555  12.390  0.0317 -0.3466  0.2703
15857W        W32041  12.638  15.745  15.023 -0.2002 -0.3243  0.3494
15858W        W32042  12.987  10.367   2.908 -0.0123  0.3061  0.2148
15859W        W32043  14.264  10.424  15.690  0.0590  0.1503  0.0932
15860W        W32044  15.514  14.327  15.776 -0.0690 -0.0152  0.1860
15861W        W32045   9.010   3.304   3.713  0.1141 -0.3208 -0.1622
15862W        W32046   8.239  10.741  12.827 -0.0634 -0.0140 -0.1500
15863W        W32047   1.483   2.406  14.990  0.1270  0.3561  0.3195
15864W        W32048   7.112  17.811   4.446  0.0162  0.0546 -0.1301
15865W        W32049  17.126  12.472   0.547  0.0353  0.3378  0.1511
15866W        W32050  17.347   2.594  14.367 -0.2221 -0.1138  0.0527
15867W        W32051   3.503  17.389   5.535 -0.0033  0.1302  0.0373
15868W        W32052   7.988   5.710  13.233  0.0787  0.1170 -0.0747
15869W        W32053  10.098  10.970  15.515  0.1079 -0.3694 -0.0012
15870W        W32054  16.487  17.309  11.936  0.0083  0.4440  0.2082
15871W        W32055   5.082   0.458   1.624  0.3086 -0.3044 -0.1113
15872W        W32056  12.160  17.787  12.610  0.3276  0.1257 -0.0485
15873W        W32057  12.401  12.857  14.409  0.2905 -0.2183  0.1577
15874W        W32058   2.313  17.172  15.217 -0.1588 -0.3889  0.1617
15875W        W32059   6.933   1.907   1.643  0.0217 -0.1315 -0.0314
15876W        W32060   8.686   4.683  15.088 -0.0238  0.2054 -0.0274
15877W        W32061   7.464   7.741  15.379  0.0187 -0.1928 -0.2916
15878W        W32062   2.925   5.263   0.976 -0.1604  0.0735  0.1773
15879W        W32063  14.431  16.860   0.117 -0.1657  0.0935  0.1313
15880W        W32064  12.359   0.401  11.693 -0.2867  0.4383 -0.0399
15881W        W32065   2.520  13.830  12.302  0.0508  0.0733  0.2509
15882W        W32066  11.235   3.291   5.181 -0.2675 -0.0431 -0.1453
15883W        W32067   4.957   5.445   5.434  0.1466 -0.3009  0.2482
15884W        W32068   7.414   9.694   3.334  0.0553  0.2558  0.1952
15885W        W32069   5.822  10.355  13.074 -0.2655 -0.1830  0.0780
15886W        W32070  16.434   9.313   3.038 -0.2116  0.0436  0.3160
15887W        W32071   6.682  17.926   4.230  0.0859 -0.0255 -0.1192
15888W        W32072   9.185  17.483   1.004 -0.1134 -0.0676  0.0540
15889W        W32073   2.861   8.382   3.541  0.2893  0.0814 -0.0991
15890W        W32074   1.179  12.139  12.780 -0.0794  0.1421 -0.1472
15891W        W32075  10.216   3.034   1.845  0.0640 -0.2202 -0.2483
15892W        W32076   4.886  13.348   2.462  0.0903 -0.0546 -0.1522
15893W        W32077   4.341   1.903   0.969 -0.3025  0.0615  0.1228
15894W        W32078   7.646   5.859  14.829 -0.1328 -0.0735 -0.0731
15895W        W32079  12.155  13.669   4.649 -0.2318 -0.0164  0.1234
15896W        W32080  12.659  15.243  12.666 -0.2627 -0.0511 -0.0829
15897W        W32081   4.556  12.171   4.884 -0.0028 -0.0847 -0.1085
15898W        W32082   6.096   5.963  14.109 -0.1468  0.0813  0.0205
15899W        W32083  11.414   3.214   0.981 -0.1150  0.4136 -0.0414
15900W        W32084  17.234   3.466  12.178  0.1849 -0.1385 -0.1626
15901W        W32085   3.302   1.813   2.869  0.2010  0.1067  0.1307
15902W        W32086   8.828   8.291  12.310  0.1863 -0.0822 -0.1796
15903W        W32087   5.883  16.995  13.633  0.0613 -0.0578 -0.1209
15904W        W32088   0.354   2.742  14.211  0.3211  0.0995 -0.1142
15905W        W32089   7.339   0.199  15.311 -0.2602 -0.0151  0.2790
15906W        W32090  12.671  17.409  11.252  0.1354  0.1613  0.0961
15907W        W32091  11.037  16.998  12.661 -0.1341 -0.0299  0.1190
15908W        W32092  13.751   2.927   1.197 -0.2788  0.2422 -0.4527
15909W        W32093   8.558   5.866   5.315  0.0778  0.2483 -0.1374
15910W        W32094  11.675  11.000  12.010  0.1056  0.0243 -0.0727
15911W        W32095   5.093  10.867   3.290 -0.1226  0.0075 -0.0643
15912W        W32096   5.401  16.543  16.391  0.3078 -0.1388  0.1148
15913W        W32097  15.540   3.071  14.108 -0.3162 -0.1880  0.0208
15914W        W32098  13.859   9.764  12.366  0.0866  0.0218 -0.1322
15915W        W32099   3.926  14.954  14.355 -0.0336  0.0932 -0.0635
15916W        W32100   2.338   7.659   2.071 -0.1573  0.0050  0.1267
15917W        W32101   8.121   8.678   2.151  0.0122  0.0533  0.4910
15918W        W32102  12.818   9.984  14.106  0.3756  0.1156 -0.0660
15919W        W32103  11.993   1.413   4.397 -0.2427 -0.0945  0.1051
15920W        W32104   6.401   9.524   3.764 -0.0852  0.0425  0.2408
15921W        W32105   3.555  17.443   2.846 -0.2802 -0.2428  0.0261
15922W        W32106  15.009  14.152   3.870 -0.0758  0.0554 -0.1896
15923W        W32107  16.999   9.183  15.787 -0.2188 -0.1275  0.1160
15924W        W32108  14.074   7.880   1.485 -0.1084 -0.3586 -0.0935
15925W        W32109  11.285  16.254   4.472  0.1399  0.0677  0.0495
15926W        W32110  12.938  13.877  11.406  0.0036  0.0970  0.1013
15927W        W32111  14.287   5.403   5.951 -0.1312 -0.3534  0.0642
15928W        W32112  11.243  11.933   1.433  0.2104 -0.2237 -0.2399
15929W        W32113  14.313   8.715  12.417  0.0962 -0.1059 -0.0120
15930W        W32114  13.215   3.990   2.644 -0.1791 -0.0774 -0.1657
15931W        W32115   3.875   6.841  15.568  0.0792 -0.3380 -0.0541
15932W        W32116   0.343   7.291   3.073  0.0571 -0.0085  0.0498
15933W        W32117  11.832   3.885   2.701 -0.0878 -0.3385 -0.1913
15934W        W32118  11.690   2.575   5.791 -0.2727  0.1752 -0.1095
15935W        W32119   5.730   4.118   1.715 -0.0364 -0.1156 -0.2961
15936W        W32120   0.256   2.151  14.284 -0.0874  0.1594  0.0777
15937W        W32121  15.560  14.827  15.464  0.3321 -0.0802  0.0113
15938W        W32122   6.617  15.650  15.741  0.2147 -0.0009  0.2085
15939W        W32123  12.150   0.511   1.769 -0.3214 -0.1859  0.1358
15940W        W32124   6.821   5.751  15.282  0.1498 -0.0570 -0.1296
15941W        W32125   9.961   1.131   0.135  0.2293 -0.1111  0.0358
15942W        W32126   9.370   1.155  11.924 -0.0499  0.0274  0.1106
15943W        W32127   0.213  13.828   3.955  0.0133 -0.4214 -0.1691
15944W        W32128  15.458   1.781   5.198  0.3165  0.0728  0.0091
15945W        W32129   1.096  12.476   1.000 -0.0880 -0.2653  0.1493
15946W        W32130   6.585  10.320  16.220 -0.1713  0.0992  0.2248
15947W        W32131   4.459  11.277   2.197  0.0138 -0.1624 -0.0582
15948W        W32132  14.349  12.239   1.457 -0.3350  0.4133 -0.0868
15949W        W32133  12.042   6.077  15.604 -0.0768 -0.0905  0.1273
15950W        W32134   5.347  17.275  15.821 -0.0171 -0.1063 -0.0520
15951W        W32135   5.582   2.082  14.115 -0.1394  0.0708  0.1215
15952W        W32136   3.209  13.627  13.776 -0.0679  0.3154  0.0062
15953W        W32137   7.437   1.469   3.655  0.2041 -0.0254  0.0975
15954W        W32138  14.307   8.892  14.487  0.1278  0.1404  0.2565
15955W        W32139  13.207  17.897  11.264  0.0010 -0.0800 -0.0224
15956W        W32140  12.389   4.757  13.262 -0.4586  0.0647 -0.1007
15957W        W32141   5.092   8.011  13.904 -0.1855 -0.3102  0.2407
15958W        W32142  11.447   0.589  14.319 -0.3183 -0.2360 -0.0624
15959W        W32143  10.702  16.408   4.664  0.0801  0.1111  0.1146
15960W        W32144   0.960   1.087  13.197  0.1362  0.0591  0.0788
15961W        W32145  12.786  14.019   4.062 -0.3965 -0.0580  0.0446
15962W        W32146   4.412  11.079  13.435  0.0907 -0.2378  0.1285
15963W        W32147  10.885  15.361  13.513  0.2809 -0.1226 -0.0010
15964W        W32148   9.530  15.566   0.585  0.0433 -0.1777  0.2888
15965W        W32149  13.211  14.569   3.010  0.0817 -0.0315 -0.0999
15966W        W32150  10.394  15.784   4.042  0.2260 -0.0269 -0.3695
15967W        W32151  15.717   8.264   2.637 -0.2458 -0.2416  0.2257
15968W        W32152  14.966   4.984   4.106 -0.3314 -0.0712  0.1476
15969W        W32153   3.026  13.539  12.408  0.1295 -0.0168 -0.0994
15970W        W32154   0.196  12.643   2.227 -0.2561  0.1592 -0.1002
15971W        W32155   1.123   5.822  15.782 -0.1520  0.4191  0.0841
15972W        W32156  17.706  10.235   3.895 -0.0410 -0.2670  0.1214
15973W        W32157   3.386  17.742   5.050  0.1072 -0.0694 -0.2787
15974W        W32158   1.681   0.534   5.211  0.0201  0.0469  0.0193
15975W        W32159  13.221   2.681  15.986 -0.0297  0.3738 -0.2550
15976W        W32160   9.269   3.614  16.433  0.1284  0.1392 -0.1223
15977W        W32161   3.426   1.098   5.457 -0.0402 -0.1751  0.3693
15978W        W32162   7.075  16.346  13.374  0.0044  0.0605  0.1478
15979W        W32163  17.146  10.223   3.692 -0.2737 -0.2635  0.0674
15980W        W32164   7.268   1.691   0.539 -0.2161 -0.1401 -0.2860
15981W        W32165   0.199  16.247   0.373 -0.2406 -0.1796  0.2236
15982W        W32166   0.103   1.383   1.153 -0.1166 -0.3041  0.2669
15983W        W32167   9.447   6.472  12.406 -0.1759 -0.1835  0.2489
15984W        W32168   0.066  10.083  11.634 -0.1141 -0.1229  0.2863
15985W        W32169  11.521  17.638   2.247 -0.1844  0.0186 -0.2053
15986W        W32170   0.881   9.081   4.405 -0.3201  0.1522  0.0283
15987W        W32171   7.489   2.524  15.215 -0.0793 -0.2452 -0.1601
15988W        W32172  15.384  14.882   1.695 -0.0560 -0.0473 -0.1011
15989W        W32173   7.632   5.515  15.269  0.0377  0.0013  0.0064
15990W        W32174  13.132   6.859   3.394  0.3356  0.4264  0.3810
15991W        W32175   8.791   3.720   1.674  0.2056 -0.1547  0.1625
15992W        W32176  13.203   9.602  16.155  0.1056 -0.0982 -0.3080
15993W        W32177   9.482   9.945  13.809  0.0483  0.1889  0.1575
15994W        W32178   2.683  17.282   1.010 -0.2215  0.0927 -0.1971
15995W        W32179  16.966   0.497  14.470  0.1875  0.2462 -0.0043
15996W        W32180  15.623   3.802  11.193 -0.0767 -0.0518  0.1350
15997W        W32181  15.334  12.144  13.058 -0.0134 -0.2817 -0.1861
15998W        W32182   4.544   0.708  16.143  0.0379  0.0981  0.1656
15999W        W32183  17.922   6.935   1.786 -0.1366 -0.1772 -0.1227
16000W        W32184   2.425   9.079   4.887  0.0666 -0.2971 -0.2044
16001W        W32185  15.472  14.372   1.634  0.0965  0.3518  0.0233
16002W        W32186  16.568  11.108  14.716  0.4936 -0.0270 -0.0346
16003W        W32187   2.392   1.682  16.105 -0.0042  0.0176 -0.3626
16004W        W32188   8.069  16.403  14.961  0.0872 -0.1392 -0.2317
16005W        W32189   4.161  13.890  12.067  0.1547  0.1096  0.1500
16006W        W32190  10.543   3.494   2.086 -0.1698 -0.0921  0.1848
16007W        W32191   8.614   8.855   2.418  0.3089  0.1404  0.0281
16008W        W32192   3.450   1.769   4.832 -0.2881 -0.1168  0.1662
16009W        W32193  13.219   0.616   2.671  0.1086 -0.1074  0.0833
16010W        W32194  13.595  13.026   1.433 -0.2311 -0.1922  0.3004
16011W        W32195  10.029  11.388   5.084 -0.1220  0.0982  0.2729
16012W        W32196   4.964  11.270  12.997 -0.2553 -0.1744 -0.3026
16013W        W32197   2.908   9.981  12.348 -0.1883 -0.1845 -0.1475
16014W        W32198   3.398  12.795   0.725  0.2099  0.2758  0.1549
16015W        W32199  16.205   5.525  12.515 -0.1243  0.0845 -0.1301
16016W        W32200   0.715  12.630   1.258  0.2439  0.0125 -0.3865
16017W        W32201   6.218   0.932   3.211  0.0059 -0.1877 -0.1405
16018W        W32202  14.286  11.394  13.915  0.3855 -0.4233 -0.2168
16019W        W32203   2.603   7.168   3.318 -0.0264  0.2828 -0.2142
16020W        W32204   1.618  17.750   5.584 -0.0721 -0.1137  0.1013
16021W        W32205  11.737   1.459  12.264 -0.0240  0.0422  0.1599
16022W        W32206  13.829   0.229  12.772  0.0039 -0.1111 -0.0153
16023W        W32207   2.423   9.296  16.566 -0.1205  0.0186  0.0750
16024W        W32208  10.178  14.375   4.295  0.1027  0.1037 -0.1252
16025W        W32209   3.364  14.086  13.089 -0.2107  0.2708 -0.3669
16026W        W32210   5.886  11.631  15.767 -0.0274 -0.0512  0.0120
16027W        W32211  13.917   5.949  14.778  0.2668  0.0600  0.1020
16028W        W32212  14.214   1.823  13.584 -0.0143  0.1654 -0.0473
16029W        W32213  15.862   1.505   5.083  0.1179  0.0808  0.0272
16030W        W32214  14.049   4.326   2.282 -0.1023  0.2127 -0.1067
16031W        W32215  15.912  17.685   5.684 -0.1902  0.0773  0.1575
16032W        W32216  16.748  14.576   2.280  0.1098  0.0215  0.2388
16033W        W32217   1.399   1.866  14.231 -0.2415  0.0340 -0.0655
16034W        W32218   3.704  17.968   3.997  0.3297  0.2135  0.0313
16035W        W32219   0.045  13.269   1.537  0.2036 -0.3849 -0.2020
16036W        W32220   9.474  15.538   4.032  0.0652  0.2262  0.0430
16037W        W32221  16.494   5.057  11.158 -0.1271  0.0505 -0.2555
16038W        W32222  10.771   6.848  15.639 -0.0785 -0.0653 -0.3017
16039W        W32223   2.067   7.545   4.545  0.0367  0.0512 -0.1142
16040W        W32224   5.812   3.766   3.232 -0.4439  0.0413 -0.0745
16041W        W32225  10.961  15.419  16.626 -0.2101  0.2044  0.1289
16042W        W32226   7.655   7.141   2.829  0.1918  0.1184  0.2628
16043W        W32227   1.663   7.682  13.090  0.0331 -0.3177 -0.3432
16044W        W32228  11.925   0.059   1.751 -0.0125  0.1697 -0.2194
16045W        W32229   6.748   6.653  13.354 -0.2748 -0.1129 -0.0079
16046W        W32230   7.036   2.794  14.449 -0.2514  0.1996  0.0934
16047W        W32231  13.800  16.648  13.352  0.1941 -0.0013 -0.2420
16048W        W32232  11.550   3.033   3.708 -0.0411  0.3859  0.0724
16049W        W32233  13.750   7.266   4.748  0.0495 -0.0675 -0.0853
16050W        W32234  14.379   6.669   0.361 -0.3238  0.1710  0.2545
16051W        W32235   6.347  11.500   2.647 -0.0002 -0.1741  0.1986
16052W        W32236   4.797   0.827   5.440 -0.0459 -0.0123 -0.1420
16053W        W32237   8.598   5.089   0.196 -0.2682 -0.0066  0.0650
16054W        W32238  15.382  17.542   2.692 -0.2212  0.0308  0.2769
16055W        W32239   6.975  13.267  12.464 -0.1598 -0.2790  0.2103
16056W        W32240   3.346   8.904  14.985  0.0732  0.2706  0.0563
16057W        W32241  11.424  17.136  16.668 -0.2313 -0.0764  0.0488
16058W        W32242  16.595  10.713  15.675 -0.1999 -0.1390 -0.3030
16059W        W32243   9.106   6.354   0.174 -0.0022 -0.0470  0.0598
16060W        W32244   3.903  10.509   2.990 -0.0887 -0.0690 -0.1640
16061W        W32245   7.255   6.602  13.288 -0.0184  0.1338  0.0359
16062W        W32246   9.931   8.625  12.465  0.1883  0.1324  0.0319
16063W        W32247   9.227  17.643  16.449 -0.1633  0.1340 -0.2651
16064W        W32248  13.999   9.899   4.854  0.0291  0.1078  0.1050
16065W        W32249  14.765  13.026  13.618  0.0375 -0.0448 -0.0716
16066W        W32250   2.058  14.621   4.888  0.0264 -0.2021 -0.1441
16067W        W32251  14.991  15.351  14.965 -0.0674  0.1051 -0.0358
16068W        W32252  14.896   9.093   4.156  0.0308 -0.1675 -0.0247
16069W        W32253   8.561   4.000  14.670 -0.0978  0.1586 -0.0155
16070W        W32254   4.467   6.752  12.150  0.3142  0.5108  0.0647
16071W        W32255  15.431  13.433  14.256 -0.0572  0.1168  0.0843
16072W        W32256   8.462  16.525   0.163 -0.0117 -0.0311  0.0693
16073W        W32257   5.783   4.078  14.997  0.3340 -0.0622  0.0731
16074W        W32258  10.280   5.053   0.907  0.3320 -0.0759 -0.0484
16075W        W32259  10.117   0.330   5.302 -0.0103 -0.0427  0.1538
16076W        W32260   4.668   7.846   2.138  0.0082  0.1389 -0.1901
16077W        W32261  17.331   6.292  16.373  0.1491  0.2655  0.0926
16078W        W32262   8.203   4.993   1.476  0.3575  0.1458  0.0118
16079W        W32263   6.443   9.978   5.314 -0.0056 -0.0112  0.0693
16080W        W32264   1.680  16.759   1.167 -0.1511 -0.0057  0.3092
16081W        W32265  10.774  12.599   2.047 -0.0542  0.0262  0.4269
16082W        W32266   5.035  11.457   3.074 -0.1752  0.0231 -0.0695
16083W        W32267   0.713  10.064   4.343 -0.1840  0.2551  0.0673
16084W        W32268   4.077  15.936   5.271  0.1636 -0.1506  0.1035
16085W        W32269   9.176   1.179  11.035 -0.1173 -0.1252 -0.2221
16086W        W32270   6.287   6.841   2.766  0.1100 -0.0196  0.1874
16087W        W32271  11.328   1.106   3.940  0.1436  0.0930  0.1876
16088W        W32272  11.600   4.770   4.325  0.0643  0.2178 -0.0229
16089W        W32273  13.121   8.116   4.105 -0.0072  0.1420 -0.2668
16090W        W32274  10.636  14.812   5.490 -0.2358 -0.0776 -0.1785
16091W        W32275   0.724  10.065   3.709  0.3412  0.0537  0.0256
16092W        W32276  10.016   8.144  11.594 -0.0368 -0.0646 -0.0410
16093W        W32277   1.821  14.746  14.989  0.2567 -0.1127  0.2130
16094W        W32278   2.126   2.222   5.049 -0.0966  0.0081  0.3119
16095W        W32279   6.757   0.877  16.587  0.0202 -0.0693 -0.1046
16096W        W32280   0.484   7.021  13.134  0.1030  0.0299  0.1279
16097W        W32281  10.394  11.310  16.286  0.3519 -0.3002 -0.0090
16098W        W32282   3.467   7.889   1.332 -0.0696 -0.0722 -0.1310
16099W        W32283  14.165   1.502   4.405  0.2512 -0.3857  0.2577
16100W        W32284   0.186   7.564  13.549 -0.0280 -0.3263  0.1680
16101W        W32285   0.387  16.810  14.492 -0.0797  0.0624 -0.1126
16102W        W32286  17.870  13.176   5.130 -0.4073  0.2383 -0.2353
16103W        W32287  17.188   8.878   5.430  0.1982  0.1152 -0.1239
16104W        W32288   0.467   0.744   3.256  0.1086 -0.2450  0.1081
16105W        W32289   2.607  15.517   4.263  0.1153  0.1967 -0.1767
16106W        W32290   9.979   2.924   5.043  0.0650  0.1066 -0.1053
16107W        W32291   5.673  16.597  11.614 -0.2490  0.2402  0.0207
16108W        W32292   6.512   4.114  12.930 -0.1830 -0.0425 -0.2928
16109W        W32293  16.509   7.173  13.198  0.0766 -0.2455  0.0242
16110W        W32294   2.699   8.858  14.993  0.4819 -0.1393  0.1018
16111W        W32295  12.588   4.870   1.280 -0.2249 -0.0803  0.1726
16112W        W32296   6.081  15.506  13.300  0.4747 -0.1732 -0.0477
16113W        W32297   9.306  13.706   0.259 -0.0173  0.2623  0.2697
16114W        W32298   4.874  15.721  14.952  0.0528 -0.0322 -0.0052
16115W        W32299   5.901  12.695   4.061 -0.2043  0.2540 -0.1510
16116W        W32300  16.683   9.199   0.535 -0.1855 -0.1776  0.1962
16117W        W32301   1.683   5.456   5.237 -0.1511  0.0103 -0.1880
16118W        W32302  15.896  17.636   5.019  0.1804  0.1644 -0.0785
16119W        W32303   6.681   3.572  15.830  0.0607  0.1079  0.1754
16120W        W32304   4.273   7.905   3.106  0.0950  0.0758 -0.0929
16121W        W32305   1.694   9.417  13.241  0.1994  0.0670 -0.0837
16122W        W32306   7.603  16.416   1.375  0.1023  0.0967 -0.0602
16123W        W32307   6.549   4.251  15.762 -0.2077 -0.2425  0.1008
16124W        W32308   1.750   2.803   1.735  0.0036 -0.0249  0.0703
16125W        W32309   0.493  17.473  15.378  0.1780  0.1167 -0.0282
16126W        W32310  13.337  10.882   5.434  0.0612  0.0581  0.2892
16127W        W32311   6.048  13.737   2.958  0.0436 -0.1609 -0.1333
16128W        W32312   4.067   1.250  15.321 -0.0477  0.0642  0.0591
16129W        W32313   4.875  10.338  15.659  0.1599  0.1828  0.4264
16130W        W32314   1.314  16.159  11.167  0.2720  0.0045 -0.3109
16131W        W32315  14.800   6.107   0.584 -0.1365 -0.1167  0.1134
16132W        W32316   7.721   8.279   1.466  0.1566 -0.1295 -0.1586
16133W        W32317   2.912   6.143   1.233 -0.1392 -0.1699  0.0524
16134W        W32318   0.426   3.849   4.955  0.0721 -0.1616  0.0337
16135W        W32319  12.389  14.273   3.515  0.1693  0.1594 -0.1477
16136W        W32320   8.830  11.399  13.349 -0.2208 -0.1078  0.0263
16137W        W32321   1.836   2.743  12.436 -0.0966 -0.0791 -0.3543
16138W        W32322  17.766  14.969  13.125 -0.1751 -0.0545 -0.2064
16139W        W32323   1.085  12.347  15.338  0.0169  0.2443  0.1596
16140W        W32324   9.267   4.131   5.084  0.0660 -0.2639  0.1537
16141W        W32325   6.572   6.181  15.898 -0.0450  0.2611 -0.2885
16142W        W32326  11.411   9.422   0.315  0.1258  0.1559  0.0078
16143W        W32327  15.502   1.192  14.858 -0.1025 -0.1561  0.1147
16144W        W32328  14.589   9.183  13.230  0.0205  0.1807  0.0590
16145W        W32329   4.791   9.998  16.338  0.2529  0.0909  0.0829
16146W        W32330  16.194  17.147  16.171 -0.1386 -0.3266  0.0197
16147W        W32331   4.503  14.042   3.991  0.0699  0.0864  0.1857
16148W        W32332   1.449  16.513  14.416  0.1030  0.0675 -0.1017
16149W        W32333  16.476  15.293  15.579 -0.1590 -0.0938 -0.1093
16150W        W32334  15.638   4.574   3.639  0.1600 -0.0663  0.0906
16151W        W32335  11.493  13.962  12.291  0.1459 -0.1918  0.1688
16152W        W32336   6.845  17.125   3.825  0.1912  0.1026 -0.0332
16153W        W32337   7.409   3.356  16.141  0.2506  0.0011  0.1181
16154W        W32338  15.510   6.847  14.483 -0.0123  0.1120 -0.0564
16155W        W32339   9.031  11.810   0.330 -0.0535 -0.0742  0.0126
16156W        W32340   3.214   0.861   4.807 -0.0930 -0.1889  0.1061
16157W        W32341  16.836  14.834  15.588 -0.1236  0.0122  0.1766
16158W        W32342   8.200  15.292  14.570  0.0010  0.3027  0.1990
16159W        W32343  11.802  10.158  14.943  0.0704  0.2439 -0.0597
16160W        W32344   1.983   5.791  15.859  0.0446  0.4143  0.2435
16161W        W32345   8.465  17.651   0.322  0.2515  0.0366 -0.0414
16162W        W32346   2.142   2.512  15.237  0.0880  0.0623  0.1524
16163W        W32347   5.508   0.098  14.112 -0.3024  0.0954  0.0485
16164W        W32348  13.905  17.171   4.619  0.0699  0.2052 -0.0662
16165W        W32349   3.539   4.112  16.304  0.2177 -0.0831 -0.3746
16166W        W32350   2.343  10.260  16.475  0.2075  0.2917  0.2115
16167W        W32351   3.974   3.786  15.628 -0.1476 -0.0504 -0.1347
16168W        W32352  14.167  14.317  10.970 -0.1650 -0.0354 -0.0388
16169W        W32353   4.651   3.854   6.069  0.0166 -0.0692  0.2312
16170W        W32354  14.968   3.905  16.193  0.1328 -0.0745  0.0755
16171W        W32355   7.153  13.741  12.545  0.1441  0.0670 -0.2994
16172W        W32356   3.622  16.853   0.788  0.1967  0.2801 -0.0912
16173W        W32357   6.917  14.308   0.178  0.1614 -0.3217 -0.0703
16174W        W32358   7.059  15.881   4.829  0.0758  0.2471 -0.2408
16175W        W32359   1.580  14.083   4.355 -0.0776 -0.0401  0.0302
16176W        W32360  13.918   8.022  11.120  0.0089  0.0791  0.0390
16177W        W32361   5.054   5.168  15.459 -0.2705  0.5745 -0.0199
16178W        W32362   7.028   4.857  15.593 -0.1838  0.2800 -0.1292
16179W        W32363   0.269   3.059  12.339  0.1605  0.1083  0.1612
16180W        W32364   9.482   6.740   2.920 -0.0027 -0.1452  0.1236
16181W        W32365  16.831  14.923   3.512 -0.0430  0.0642 -0.2654
16182W        W32366   0.290   4.392  13.632  0.1746 -0.1958 -0.4797
16183W        W32367  10.295  12.009  15.562  0.4085 -0.0237  0.0900
16184W        W32368   9.894  17.275   2.170  0.0529  0.0892 -0.1206
16185W        W32369   0.833  16.164  15.593  0.0047  0.1310  0.1093
16186W        W32370   4.103   3.494  14.011 -0.0978  0.1191 -0.1561
16187W        W32371   2.538   5.390   1.421  0.1344  0.0556  0.0424
16188W        W32372  17.225   8.510   3.060  0.1165  0.2558  0.0300
16189W        W32373   9.753   3.725  12.156  0.1076 -0.0153 -0.2200
16190W        W32374  14.539   1.365   2.980  0.5346  0.1955 -0.1348
16191W        W32375   2.032   4.261  10.631 -0.2811 -0.2538 -0.2773
16192W        W32376   9.106  10.002   4.671  0.1506 -0.1790  0.0920
16193W        W32377   7.151   1.009  15.763  0.1328  0.0667 -0.0076
16194W        W32378  15.200   1.952   0.384  0.1060 -0.0050 -0.4040
16195W        W32379  17.745  15.457  13.023 -0.2108 -0.1817  0.0330
16196W        W32380   1.553   5.442   1.834  0.0108 -0.2727  0.0475
16197W        W32381  10.980   0.672  12.436  0.0549 -0.0736  0.1881
16198W        W32382  15.223   2.403   4.428  0.0174  0.0868 -0.0445
16199W        W32383   5.360  11.002  12.799  0.1617 -0.1858 -0.1089
16200W        W32384   6.437   8.162  13.672 -0.0060 -0.0707  0.0901
16201W        W32385  10.866   2.010  16.318 -0.1124 -0.0061  0.0172
16202W        W32386   0.655   7.802   1.922 -0.2051 -0.3306 -0.1849
16203W        W32387   6.664  16.941   5.442 -0.2351  0.1413  0.3265
16204W        W32388  15.942   6.519   4.969 -0.1015 -0.3259 -0.0537
16205W        W32389  10.582   9.270   3.747  0.0969 -0.1264  0.0915
16206W        W32390  11.806   8.857  15.589 -0.1047  0.0458  0.1127
16207W        W32391   3.818   7.721   1.964  0.0397  0.0178  0.0068
16208W        W32392  17.428   7.065   3.008  0.1212 -0.0198  0.0372
16209W        W32393  17.839  12.939  14.852  0.0439  0.0471  0.2347
16210W        W32394   5.105   5.953   0.524 -0.3244  0.0222 -0.0221
16211W        W32395   1.271  10.738  12.881  0.3076  0.2092  0.0229
16212W        W32396  15.498  16.832  11.448 -0.0809 -0.2662  0.1643
16213W        W32397  16.876   3.789  16.176  0.1919 -0.1633 -0.2417
16214W        W32398   5.327   8.370  13.028 -0.3012  0.0940  0.2052
16215W        W32399  15.884   4.840  14.381  0.1138 -0.1210 -0.2841
16216W        W32400  13.880   9.163  14.293 -0.3447  0.0907  0.3405
16217W        W32401  15.862   7.165  16.411 -0.1750 -0.3098 -0.0646
16218W        W32402   9.372   8.027  16.495  0.1256 -0.0641 -0.0544
16219W        W32403   5.704   6.131  13.222 -0.0866  0.0815  0.1779
16220W        W32404   2.210   7.694  13.016 -0.1052  0.1033  0.2168
16221W        W32405   8.652   3.233  13.575  0.0283 -0.2181  0.2737
16222W        W32406   1.340   2.379  10.657  0.2855  0.2359 -0.2908
16223W        W32407  14.953  16.825   3.661  0.1028  0.2302  0.2413
16224W        W32408   6.866   1.435   1.294  0.0101  0.1916  0.0193
16225W        W32409   7.923  15.797  15.198 -0.0391  0.4460 -0.0244
16226W        W32410   8.903  15.607   3.352  0.0454  0.0393  0.0277
16227W        W32411   1.040  10.713   5.409 -0.1415 -0.0922 -0.1027
16228W        W32412   7.614   1.740  13.008  0.2371  0.0221  0.1199
16229W        W32413   5.003  17.813  15.425  0.3021  0.1660  0.0457
16230W        W32414   9.778  15.637  12.063  0.3316 -0.3104  0.0071
16231W        W32415   0.362   8.289  14.148 -0.0268  0.2282  0.0511
16232W        W32416  15.617  10.712  11.719  0.2176 -0.1509 -0.0829
16233W        W32417  12.773   8.088   3.782 -0.0165  0.0565 -0.1424
16234W        W32418  11.409  16.300   3.144 -0.0750  0.1583  0.1979
16235W        W32419  10.018  16.346  15.225  0.0251  0.0952 -0.2909
16236W        W32420   1.838   1.020  16.418 -0.2726  0.0690  0.1877
16237W        W32421  15.183  13.376   0.707  0.0329 -0.1187  0.4397
16238W        W32422  14.172  11.600   4.379  0.0513  0.0355  0.0432
16239W        W32423   2.637  12.895  15.371 -0.0306 -0.0024 -0.2225
16240W        W32424   3.130   5.133  16.351 -0.1143  0.2967 -0.0115
16241W        W32425   6.972   1.042  12.477  0.2232  0.0297 -0.1955
16242W        W32426  14.369  15.316   1.440  0.2835 -0.1151 -0.1283
16243W        W32427  15.082   8.460  10.562  0.0805 -0.0225  0.0268
16244W        W32428   0.431  13.958  16.260 -0.0369 -0.1877  0.1166
16245W        W32429   6.113   8.715   5.866  0.2853 -0.0135 -0.0691
16246W        W32430   9.859  12.490  13.646 -0.4222 -0.4050 -0.4163
16247W        W32431   8.517   6.891  14.189 -0.0468 -0.2439  0.2821
16248W        W32432   2.846  14.662  11.874  0.2341  0.2095  0.3780
16249W        W32433   7.167   7.928   3.814 -0.4104 -0.0070  0.2159
16250W        W32434  10.212   0.067  12.333  0.0020  0.3164 -0.0467
16251W        W32435   8.026   0.698   0.259  0.2128 -0.0450  0.1476
16252W        W32436   6.013  16.999   1.848 -0.0691 -0.1344  0.0071
16253W        W32437   6.509   2.910  15.100  0.6621  0.0985  0.4737
16254W        W32438  16.374   0.353  13.412  0.1734 -0.0520 -0.0980
16255W        W32439  11.520  11.970   4.514  0.1598  0.0857 -0.0660
16256W        W32440   0.071   0.755  11.637  0.0741  0.1677 -0.0904
16257W        W32441  14.045  12.079  13.832  0.2330  0.1430 -0.1735
16258W        W32442  15.682  15.702  12.546 -0.0902 -0.4544 -0.1299
16259W        W32443   6.899   9.037  13.475 -0.3007  0.1297 -0.1918
16260W        W32444  15.430  17.480  13.414  0.0805  0.2495  0.0374
16261W        W32445   2.899   1.594  16.520  0.0602  0.2432 -0.0221
16262W        W32446   1.203   5.752  13.139 -0.1114 -0.2048  0.1694
16263W        W32447   0.898   4.725   2.742 -0.0139 -0.0276  0.2888
16264W        W32448   5.809   9.603   1.774  0.1443  0.1003  0.2528
16265W        W32449   1.729   9.406   5.716 -0.2039  0.0682  0.1368
16266W        W32450   7.919  15.668   4.914 -0.1745  0.2966 -0.0510
16267W        W32451   2.646   2.555  13.410 -0.1177  0.0525 -0.1528
16268W        W32452   3.990   6.319   4.236  0.2517  0.1416  0.2675
16269W        W32453   5.545   4.998   5.427  0.1155  0.1967 -0.0086
16270W        W32454   7.275   0.201   2.575  0.1923 -0.3185 -0.1533
16271W        W32455   0.039  14.647  12.882  0.0640 -0.0713 -0.2266
16272W        W32456   0.778   4.358   4.908 -0.0828  0.0313 -0.0827
16273W        W32457   5.752   0.396  15.673 -0.0884  0.3457 -0.0781
16274W        W32458  17.766  14.510  13.272  0.1287 -0.1989 -0.3988
16275W        W32459   1.987  11.945   6.218 -0.3185  0.0359  0.0069
16276W        W32460   8.222   8.537  12.507 -0.2841 -0.1220  0.1271
16277W        W32461   5.274  14.306   3.655  0.0287  0.1074 -0.0309
16278W        W32462   8.553   9.128  16.205 -0.2591 -0.0128  0.1625
16279W        W32463   2.440  15.945   2.893 -0.1911 -0.0219 -0.1875
16280W        W32464   9.387  15.780   1.567 -0.1360 -0.1914  0.0930
16281W        W32465  13.810   6.289   4.465 -0.0580  0.2375  0.1861
16282W        W32466  16.338  17.896   4.922  0.1701 -0.4307 -0.1680
16283W        W32467   8.702  16.486  13.966  0.1804 -0.1770 -0.1991
16284W        W32468   0.156   9.981  15.707  0.0160 -0.1036  0.2422
16285W        W32469   6.949   7.973   0.993  0.0681 -0.1309  0.1733
16286W        W32470   9.927   1.095   5.621  0.1382  0.0404 -0.3720
16287W        W32471   5.337   2.389  11.925  0.1915 -0.0048  0.0923
16288W        W32472   5.079   6.115  14.609  0.0799  0.2073  0.1573
16289W        W32473  14.722   0.771   5.924  0.2412  0.2536 -0.0756
16290W        W32474   2.834   4.062  11.888  0.3430  0.0704 -0.1695
16291W        W32475  11.799   6.811  12.339  0.2353 -0.2387 -0.1175
16292W        W32476  13.059  14.574   5.640  0.1748 -0.0342 -0.1720
16293W        W32477   6.786   1.946  15.765 -0.1400 -0.4100  0.2020
16294W        W32478   3.862   8.828   0.371  0.1214  0.1022 -0.0778
16295W        W32479   8.613  14.391   5.188  0.1907 -0.0801 -0.0730
16296W        W32480   8.257   5.669  16.561 -0.1965 -0.0435  0.4292
16297W        W32481   0.007   0.799   3.556 -0.0336  0.1205 -0.1261
16298W        W32482   4.236   5.816   3.115 -0.0625 -0.0734 -0.1185
16299W        W32483   8.844  16.821  12.693  0.2122 -0.0184 -0.1650
16300W        W32484  17.388  14.343   2.441  0.2703 -0.1639 -0.1306
16301W        W32485   9.825  15.337  15.701 -0.1311  0.0513  0.1280
16302W        W32486   4.956   3.447   0.183 -0.0439 -0.1324  0.1155
16303W        W32487   4.834  11.499   0.804 -0.3091  0.1122  0.1947
16304W        W32488  13.338   7.292  12.760  0.0650 -0.1281  0.0079
16305W        W32489   1.583   4.172   2.371  0.0163  0.2939  0.0190
16306W        W32490  10.080   0.862   4.465 -0.1243  0.1051  0.4018
16307W        W32491  10.943  17.230   4.303  0.0365  0.0722  0.0035
16308W        W32492  12.641  10.549  16.098 -0.1641 -0.1192  0.3079
16309W        W32493   7.025  13.874   3.442  0.3163  0.1573  0.2098
16310W        W32494  10.418   2.059  13.313 -0.0979 -0.0024  0.0010
16311W        W32495  17.633  15.506  13.786  0.4560  0.0970 -0.0361
16312W        W32496  17.286   0.111  14.324  0.0575  0.0010 -0.3419
16313W        W32497  16.375  15.846   5.602  0.0435  0.1742 -0.0399
16314W        W32498   4.699   6.368  13.492  0.0523 -0.0890  0.1088
16315W        W32499  10.402   8.923  16.632 -0.0257 -0.0422 -0.0962
16316W        W32500  11.337  15.205   2.197  0.0470  0.1718 -0.1749
16317W        W32501  17.011  12.600   2.311  0.1910  0.0437  0.2979
16318W        W32502   0.009   1.732   0.479  0.1233 -0.0528 -0.1606
16319W        W32503   8.120   4.124   4.194 -0.0245 -0.0411  0.1678
16320W        W32504  13.712  14.915   3.887  0.2802  0.1120  0.2844
16321W        W32505  10.354   3.105   0.593  0.0786 -0.0528  0.0995
16322W        W32506   6.287   5.724   0.656  0.0156 -0.4232  0.1617
16323W        W32507  12.335   9.044  12.006  0.2622  0.1894 -0.2369
16324W        W32508   5.324   8.077  14.702 -0.2219  0.0576  0.1126
16325W        W32509  12.853   8.104   4.572 -0.4451 -0.2638 -0.1959
16326W        W32510   6.538   8.840   1.384 -0.0268  0.0354  0.0717
16327W        W32511   5.174  14.748  13.596 -0.0129 -0.0471 -0.1804
16328W        W32512   7.418   7.968  14.642  0.3808 -0.0962  0.2302
16329W        W32513  17.473  10.801  16.092  0.0930  0.2891 -0.0271
16330W        W32514   0.127   2.096   2.739 -0.0555 -0.0637 -0.1629
16331W        W32515  13.669  11.411  14.603  0.1420 -0.0367  0.2332
16332W        W32516  15.254  11.158   2.296  0.0592 -0.4401 -0.3600
16333W        W32517   1.125  11.535  13.590  0.0074 -0.3480  0.0219
16334W        W32518   4.921  11.277   3.552 -0.1145  0.0764 -0.2515
16335W        W32519   4.928  13.274  14.080 -0.0217  0.2823  0.0001
16336W        W32520   0.199  16.596   5.227 -0.1783  0.2706  0.0410
16337W        W32521  13.322   1.702   1.773  0.1161  0.0658 -0.1227
16338W        W32522  10.041   1.040  12.315  0.1244  0.1411 -0.1017
16339W        W32523   0.812   2.429   4.719 -0.2002  0.2057 -0.0642
16340W        W32524  13.930  11.891  14.799 -0.1382  0.1246  0.0241
16341W        W32525  12.401   6.456  15.523  0.2439 -0.1800  0.2292
16342W        W32526   8.673   5.694   4.833 -0.1477  0.1855  0.2047
16343W        W32527   4.448   3.924   2.647 -0.2216 -0.1553 -0.2295
16344W        W32528   7.394  15.649  12.746 -0.0013  0.2540  0.1421
16345W        W32529   7.458   7.917   3.239  0.4346 -0.2855 -0.3320
16346W        W32530   9.930   3.610  15.823  0.2117 -0.1709  0.1791
16347W        W32531   4.154  13.847   4.295  0.0207 -0.1619 -0.3967
16348W        W32532   7.484   0.286  11.727  0.2087  0.2586 -0.2226
16349W        W32533  12.718   4.775   4.754 -0.2687 -0.0424  0.2300
16350W        W32534  16.185  11.701  12.197 -0.0556  0.1186  0.0077
16351W        W32535   8.560  17.901  15.855  0.2483 -0.0032  0.1281
16352W        W32536   5.968  12.635   4.631  0.0610  0.0184 -0.2497
16353W        W32537   1.615   1.000   3.234  0.1500  0.0855 -0.0180
16354W        W32538   7.513   0.484   1.670 -0.3723 -0.0779  0.1133
16355W        W32539   3.727   3.689   4.350 -0.2248  0.2704 -0.0601
16356W        W32540   9.233   5.560  12.564 -0.0851 -0.3236  0.2027
16357W        W32541   5.656  14.578  12.870 -0.0199  0.0820  0.1787
16358W        W32542   4.606  15.167  16.678  0.0306 -0.1370  0.0986
16359W        W32543   7.565  10.121   2.105  0.2553  0.0532  0.1766
16360W        W32544  13.193  10.778   4.069  0.0007 -0.2716  0.2157
16361W        W32545  12.188  13.628  12.947  0.2446 -0.3615 -0.0343
16362W        W32546   8.168   2.975  15.710 -0.0965 -0.0187  0.0873
16363W        W32547  11.624  14.042   0.061 -0.1308 -0.2906 -0.0843
16364W        W32548   0.743   2.495   5.279 -0.1102  0.2204  0.2283
16365W        W32549   4.174  17.890  13.423 -0.0665  0.1981 -0.0259
16366W        W32550   1.560  16.898   5.168  0.1193  0.0296 -0.0914
16367W        W32551  17.663  15.066  14.383  0.2976 -0.0186  0.0193
16368W        W32552  13.040  15.632   5.042  0.2554  0.3095 -0.1285
16369W        W32553  16.943   6.635  14.408  0.0693 -0.1382  0.0369
16370W        W32554  13.454   7.774  15.866 -0.2389  0.1210 -0.0433
16371W        W32555   6.017  11.224  14.468 -0.0241 -0.2777  0.3557
16372W        W32556  14.900  17.467   4.830 -0.2456  0.0280  0.1554
16373W        W32557   4.569  12.801  11.365  0.0017 -0.0100  0.1375
16374W        W32558   1.408  11.098  14.706  0.1958 -0.1610 -0.1389
16375W        W32559  17.819  10.644   2.743 -0.1460  0.0534  0.3486
16376W        W32560   7.862  12.464  14.828 -0.1780  0.0117  0.1307
16377W        W32561  12.014  11.463   1.258 -0.0411 -0.1031  0.2955
16378W        W32562   7.248  17.631  16.041 -0.1868 -0.0709 -0.3276
16379W        W32563  11.013  11.226   5.091  0.2259 -0.0681 -0.2854
16380W        W32564   1.490   4.233   3.228  0.3011 -0.3047 -0.1841
16381W        W32565  15.362  11.511   0.230 -0.3304  0.1612 -0.1625
16382W        W32566  15.358   5.209  13.717  0.2455  0.3487 -0.0802
16383W        W32567   7.536  16.210  15.958  0.3150 -0.1292  0.2439
16384W        W32568   4.655  16.234   4.556 -0.3244  0.2424 -0.0723
16385W        W32569   5.317   1.038   5.237 -0.1529 -0.1788  0.2130
16386W        W32570  14.041  14.124  15.400  0.0528 -0.1706  0.1460
16387W        W32571  17.083   2.343  16.050  0.0513  0.4313 -0.2751
16388W        W32572   1.663   8.660   2.280 -0.0453  0.2217  0.0380
16389W        W32573   8.256   2.830  13.493 -0.3583  0.0017  0.0811
16390W        W32574   3.576  14.554  11.499  0.0774 -0.0669 -0.1171
16391W        W32575   0.212   8.038   2.112  0.1864  0.1363 -0.0235
16392W        W32576   8.848  17.506  16.179 -0.1312  0.1178  0.1271
16393W        W32577   9.105  15.942  13.778  0.0628 -0.4474  0.0880
16394W        W32578  17.177   1.011   3.626 -0.0222 -0.0482  0.0735
16395W        W32579   8.475  10.707  16.032  0.0390 -0.4028 -0.1078
16396W        W32580   6.941  17.150  12.165 -0.0987  0.3025  0.0105
16397W        W32581   4.187  11.319  12.577 -0.0656  0.1203 -0.3180
16398W        W32582   9.514   1.310   4.468  0.1637  0.0324 -0.0335
16399W        W32583   9.379   3.738   1.143 -0.1118  0.1656 -0.2749
16400W        W32584   3.025   6.508   2.948 -0.2251  0.1081 -0.0006
16401W        W32585   1.680   8.340  16.151 -0.1853  0.0906  0.0258
16402W        W32586  14.418   4.643   2.312 -0.0862 -0.0501  0.0183
16403W        W32587   3.462   9.721   0.636 -0.1560 -0.1496 -0.2204
16404W        W32588   6.519  13.461  13.497  0.3067  0.1735 -0.0994
16405W        W32589   8.759  14.306   0.570  0.1478 -0.0635 -0.0456
16406W        W32590   7.460   4.695   1.190  0.2105  0.3877  0.1105
16407W        W32591   6.658   8.038   4.632  0.1642  0.1309 -0.1603
16408W        W32592  13.176  11.453   5.412 -0.0107  0.1473 -0.2482
16409W        W32593   7.288  12.553   0.517  0.0122 -0.0237  0.1887
16410W        W32594   4.672   5.395   3.825 -0.2145 -0.0592  0.1495
16411W        W32595  16.290   3.346   5.482 -0.1276 -0.1183  0.0820
16412W        W32596  15.880   9.108   4.361 -0.0662 -0.1222  0.3142
16413W        W32597  16.703   6.352  15.150 -0.2665  0.1218 -0.0728
16414W        W32598  11.155   0.886  11.096 -0.0063  0.0217  0.1136
16415W        W32599   8.615   9.981  16.055  0.1053  0.2154  0.2274
16416W        W32600   6.268  12.186   0.245  0.0385  0.1031 -0.2499
16417W        W32601  10.770  15.498   1.614  0.0289 -0.2268 -0.1641
16418W        W32602  10.427   9.727   2.939  0.2746  0.0050  0.1406
16419W        W32603  15.667   6.250  11.304 -0.1669  0.2212 -0.2919
16420W        W32604   5.030   0.362  11.905  0.1984  0.1593  0.3105
16421W        W32605  10.364  17.223   2.495  0.4107  0.2147 -0.0395
16422W        W32606  12.262   3.088  12.379  0.2142 -0.1727  0.0717
16423W        W32607  11.475  15.346   4.825  0.0694 -0.0342 -0.0487
16424W        W32608  16.625   0.236  11.558 -0.3808  0.1522  0.2406
16425W        W32609   5.564   6.987  12.690  0.1585  0.3595  0.0672
16426W        W32610   2.075   1.030   0.156  0.3331 -0.3611  0.1593
16427W        W32611  17.094  12.551  12.522  0.0927  0.3116 -0.3324
16428W        W32612   4.035  11.131   0.850  0.2333 -0.1331  0.3040
16429W        W32613   0.775  11.121  12.126 -0.0692  0.0548  0.0720
16430W        W32614   6.127   1.095   5.795  0.1956  0.0165 -0.2437
16431W        W32615  16.207   9.662  13.336 -0.0777  0.3504 -0.3098
16432W        W32616   9.538  15.461   6.022  0.1231  0.0620 -0.0028
16433W        W32617   4.834  12.193   3.008 -0.3346  0.1845  0.0569
16434W        W32618   4.584   2.192   4.262 -0.0117  0.0516  0.1501
16435W        W32619   1.865  14.356  13.017 -0.3024 -0.0818 -0.1785
16436W        W32620  17.337  16.840  14.263 -0.1910 -0.1116  0.1098
16437W        W32621  12.157  17.513   3.862 -0.0716  0.0297  0.1508
16438W        W32622   4.880   2.996  13.403  0.0380 -0.1250  0.3069
16439W        W32623  16.639   2.467   0.507 -0.1200 -0.0846 -0.2366
16440W        W32624  13.166   6.843  11.454 -0.1138  0.0011  0.0659
16441W        W32625   7.643  14.042   4.755  0.0646 -0.0391 -0.0151
16442W        W32626  11.730  11.990  14.223 -0.0871  0.1166  0.0059
16443W        W32627   1.848   8.107  12.913  0.1236 -0.0010 -0.0318
16444W        W32628   4.367   9.494   5.515 -0.1525 -0.2372  0.0969
16445W        W32629  14.976   6.978  12.565 -0.1176 -0.1247  0.1310
16446W        W32630   5.117   5.534   3.964  0.1346 -0.0197  0.0331
16447W        W32631  12.487   7.159   0.003  0.0466  0.0769 -0.0120
16448W        W32632   1.595   4.087  14.598 -0.2486  0.1356  0.0786
16449W        W32633  15.311   9.250   5.681  0.0977 -0.2599 -0.0971
16450W        W32634   8.886  14.063  13.575  0.0336  0.0459 -0.0735
16451W        W32635   3.865   3.585   5.222 -0.0411  0.0092  0.0993
16452W        W32636  11.168   2.044  13.017 -0.1684  0.0120  0.0034
16453W        W32637   2.624   4.889   1.224  0.0286 -0.0592 -0.1359
16454W        W32638   7.901   0.335  16.573  0.2230 -0.1040  0.0303
16455W        W32639  16.971  17.048   5.422 -0.0919 -0.0188 -0.2988
16456W        W32640   1.536  11.591   5.066  0.0233 -0.0846 -0.0267
16457W        W32641   3.085  12.687  12.738 -0.1181 -0.2596 -0.3179
16458W        W32642   0.626  10.270   0.150  0.4340  0.1836  0.1271
16459W        W32643   1.996   8.597   2.720 -0.2961 -0.3228  0.0394
16460W        W32644  10.193  11.773  16.675 -0.2869 -0.2989 -0.1902
16461W        W32645  12.436  14.194  12.259  0.3959  0.1387  0.0622
16462W        W32646   6.556   4.737   2.501  0.0746 -0.0275  0.0526
16463W        W32647  10.555  11.823  12.489  0.2017  0.1064 -0.0886
16464W        W32648  16.640   2.120  11.715 -0.1366 -0.0264  0.3051
16465W        W32649   9.335   2.796   5.824 -0.0832 -0.4631 -0.1069
16466W        W32650   7.114   8.892   0.653 -0.3382 -0.1347 -0.1968
16467W        W32651   9.413   2.592  14.290  0.1359  0.3152 -0.0992
16468W        W32652  12.848   0.878  13.697  0.1830  0.1150  0.0032
16469W        W32653   0.033   9.216   2.164 -0.3463 -0.0259  0.1135
16470W        W32654  13.238  17.963  11.739  0.1644 -0.1071 -0.0127
16471W        W32655   2.448   8.429  13.656  0.2151 -0.0447 -0.0880
16472W        W32656  16.589  10.643   1.948  0.0445  0.0036  0.1027
16473W        W32657  15.009  13.046  15.196  0.0013  0.2440  0.2629
16474W        W32658   1.103  14.984  16.060  0.2121 -0.0123 -0.0607
16475W        W32659  14.931  16.861  14.919 -0.1566  0.2740  0.0842
16476W        W32660   6.464   9.639  12.559  0.0193  0.2650 -0.1745
16477W        W32661  16.211  15.346   0.354  0.4838  0.0082 -0.2194
16478W        W32662   5.507  17.863   4.443 -0.0302  0.1382  0.2585
16479W        W32663   2.378   2.846   0.401  0.3467 -0.0053 -0.1425
16480W        W32664   4.063   6.839  15.021  0.0465 -0.0265  0.3362
16481W        W32665   0.496  12.828  12.086 -0.0200 -0.0400  0.0558
16482W        W32666  13.241  16.169   0.722  0.2096  0.0830  0.0145
16483W        W32667   7.524   2.005   0.275 -0.0670  0.0360 -0.0691
16484W        W32668  14.595   9.431   1.951  0.1411  0.2438 -0.0425
16485W        W32669  12.494   6.837  14.212 -0.0339 -0.2541  0.0973
16486W        W32670  10.154   0.125   3.983 -0.0162 -0.1826  0.0429
16487W        W32671  12.672   9.898   2.210  0.3359 -0.0935 -0.3387
16488W        W32672   1.700   3.426  13.998 -0.1050  0.0570  0.0360
16489W        W32673   4.103  14.872  16.447  0.0869 -0.2573  0.2732
16490W        W32674   0.483   6.681  11.748 -0.0750 -0.3322 -0.1552
16491W        W32675  16.210  10.618  13.416  0.1960  0.0676 -0.3810
16492W        W32676   9.724   3.327   0.904  0.0997  0.3267  0.0642
16493W        W32677   7.054   9.414   0.641  0.0472  0.2178  0.2160
16494W        W32678   4.998  13.479   5.923  0.1049 -0.3135 -0.0408
16495W        W32679  12.339   6.429  13.427  0.0264  0.2686  0.1781
16496W        W32680  16.474   5.659   1.599  0.1620 -0.2449 -0.3066
16497W        W32681   1.197   8.505   3.226  0.1902  0.3346  0.1908
16498W        W32682  14.421  14.867  15.781  0.0166  0.1850 -0.3104
16499W        W32683   5.520   0.536  16.340 -0.0889  0.2458  0.0692
16500W        W32684   1.106  16.869   4.285  0.0135 -0.0389  0.0689
16501W        W32685   1.042  12.584   5.329 -0.2931  0.1907  0.1049
16502W        W32686  10.424  12.171   1.280 -0.0844 -0.0274 -0.3596
16503W        W32687   0.076  13.535   3.553  0.0283 -0.1504 -0.2075
16504W        W32688   7.547   1.448   1.937 -0.0110  0.1608  0.3420
16505W        W32689  13.034  16.275   1.591 -0.0716  0.2658 -0.2163
16506W        W32690   5.186   2.519   5.787  0.0345  0.0865  0.0023
16507W        W32691   7.637   2.612  12.673  0.1132  0.0025  0.0455
16508W        W32692  12.000  13.932  11.511  0.0856 -0.0761 -0.0586
16509W        W32693   4.515  17.339  12.645  0.1655 -0.1130  0.1807
16510W        W32694   8.725   9.833  14.570 -0.0689  0.1515  0.1850
16511W        W32695  17.545  17.028  16.551  0.0170 -0.2077 -0.1452
16512W        W32696   0.815  14.858  15.170  0.0330 -0.1101  0.0942
16513W        W32697  13.358   5.930   3.000  0.1072 -0.2360  0.0789
16514W        W32698  14.806  11.584   2.641  0.0767 -0.0748 -0.1412
16515W        W32699   3.293   3.873  11.862 -0.1116 -0.3844 -0.1256
16516W        W32700   0.689  12.686  15.019  0.0618 -0.2271 -0.1088
16517W        W32701   3.688  13.693   2.351  0.0685 -0.2111 -0.1499
16518W        W32702  13.683   3.701  13.450  0.0463  0.2470  0.0621
16519W        W32703   4.401   1.219  16.222 -0.1940 -0.0998 -0.3010
16520W        W32704  14.628   6.378  16.319  0.4005  0.0578 -0.1160
16521W        W32705  14.579  15.087   4.807  0.1165  0.1300 -0.1485
16522W        W32706  17.914   9.662  11.762 -0.2667 -0.0720 -0.0976
16523W        W32707   6.653   7.080  12.451  0.0486  0.1335  0.0921
16524W        W32708   2.021  14.704   2.760 -0.1144  0.2167  0.2940
16525W        W32709   7.974  12.124  15.434 -0.1338 -0.1564  0.1764
16526W        W32710   7.460   3.169  14.550 -0.0958 -0.3321 -0.0196
16527W        W32711  12.702  16.567  14.469 -0.0066 -0.0542 -0.0842
16528W        W32712  14.854   0.234  11.339 -0.1115 -0.1452  0.0241
16529W        W32713   7.263  10.453   2.333 -0.0066 -0.0824  0.4644
16530W        W32714   5.519   1.695  13.057 -0.0169 -0.4405  0.1001
16531W        W32715  13.092   8.103  12.951 -0.1910 -0.4260  0.0338
16532W        W32716  17.999   6.590   4.037 -0.2715 -0.0605  0.0431
16533W        W32717  12.445  10.813  14.001  0.0085  0.2593  0.1037
16534W        W32718  12.604   5.510  15.735 -0.2201 -0.2625 -0.0241
16535W        W32719  11.973   0.672  14.139 -0.0401  0.0806  0.0839
16536W        W32720   8.293   2.267   3.446  0.2725 -0.0925  0.0367
16537W        W32721   0.724  13.640  12.352  0.1552 -0.2192 -0.4949
16538W        W32722   1.070   1.738   3.030 -0.0824 -0.0802 -0.0148
16539W        W32723   2.947  15.652   1.268 -0.1577  0.2392  0.0900
16540W        W32724   9.437  13.305   4.754  0.2287  0.0059 -0.0274
16541W        W32725  10.927   9.163  16.624  0.1013 -0.0165  0.2458
16542W        W32726  10.021  14.422   1.091  0.0462 -0.0364 -0.1960
16543W        W32727  14.025  12.390   5.039 -0.1843  0.1336  0.0183
16544W        W32728  13.102  13.908   4.955 -0.3324  0.0459 -0.0150
16545W        W32729   7.882   4.792  12.142 -0.1396 -0.1766 -0.1768
16546W        W32730   4.492  11.158   0.541  0.0582 -0.1713  0.0884
16547W        W32731   2.891   2.189  14.476  0.1293 -0.0151 -0.2952
16548W        W32732  12.310   6.395  16.391  0.0346 -0.1878  0.1385
16549W        W32733   5.574   6.096  13.718 -0.0341  0.2809 -0.0856
16550W        W32734  10.206  13.686   3.932 -0.0848  0.0760 -0.0803
16551W        W32735   4.631   2.088  15.149 -0.1892 -0.0002  0.1274
16552W        W32736  11.777  10.709   3.610 -0.1414  0.2745 -0.1311
16553W        W32737  10.158   4.081  13.763 -0.0844 -0.0248  0.2760
16554W        W32738   6.925   4.856   3.440  0.1057  0.1456 -0.2124
16555W        W32739  15.754  16.502   1.749  0.0308 -0.0993  0.1074
16556W        W32740  17.347   0.442   2.582 -0.4244  0.2134  0.4301
16557W        W32741  14.227   9.941  16.074  0.4314 -0.3743 -0.1415
16558W        W32742  11.224   6.302  12.085 -0.1644  0.0362  0.1133
16559W        W32743  13.171  13.638  12.384  0.0197  0.0077 -0.0798
16560W        W32744   8.609   7.246  15.112 -0.1305 -0.1584  0.2416
16561W        W32745   3.552   5.408  16.004 -0.0961 -0.1757 -0.2772
16562W        W32746   3.293   8.801   5.102 -0.2009  0.0611 -0.0012
16563W        W32747   8.307   7.843   1.481 -0.0745  0.0543  0.0028
16564W        W32748  12.288   1.844  12.779 -0.2132 -0.2000  0.2787
16565W        W32749  13.279  16.661  15.678 -0.0505 -0.1032  0.0589
16566W        W32750  17.511  14.788   3.540 -0.2272  0.4374 -0.0698
16567W        W32751   3.940   2.211   4.035 -0.0996  0.0506 -0.0791
16568W        W32752   7.423   8.736  15.051 -0.2156  0.1268 -0.0112
16569W        W32753   8.963  10.683   2.907 -0.0511 -0.0765 -0.1065
16570W        W32754  11.503   0.559  16.558  0.2385 -0.1161 -0.0455
16571W        W32755  10.246  13.220  13.604  0.0705  0.0121  0.0837
16572W        W32756  11.737   5.678  13.276  0.1910 -0.0098 -0.0291
16573W        W32757   8.047   3.224   6.308 -0.1095 -0.1198 -0.1105
16574W        W32758  10.827   0.173  15.546  0.5414 -0.1084  0.0556
16575W        W32759  10.827  17.515   5.079  0.0336 -0.2104 -0.1934
16576W        W32760  10.770   0.409  15.935  0.0905 -0.1308 -0.0038
16577W        W32761   1.106  13.290   5.477  0.3002  0.0895  0.0488
16578W        W32762  13.980   4.099   5.123 -0.1032 -0.0545  0.2539
16579W        W32763  10.629  14.147  14.299 -0.4985  0.1031 -0.0146
16580W        W32764   1.114   4.256   5.324  0.3280 -0.3781  0.2175
16581W        W32765   7.690   8.768  13.163  0.0614 -0.2006 -0.2725
16582W        W32766   3.764   8.206   5.805  0.1057  0.1111 -0.1998
16583W        W32767  17.503   9.805   3.786  0.2278 -0.2138 -0.3028
16584W        W32768   2.050   2.906  15.552  0.0763 -0.1448 -0.2239
16585W        W32769   4.814   8.460   0.084 -0.2589 -0.1340 -0.3617
16586W        W32770   2.729  13.557   1.070 -0.0612 -0.0592 -0.1433
16587W        W32771  12.823   3.347  11.573 -0.0086  0.0826 -0.2348
16588W        W32772   8.791  13.541  13.469 -0.2977 -0.0264  0.0986
16589W        W32773  10.580   6.500   2.792 -0.0537  0.1649  0.0810
16590W        W32774  15.818   3.317   0.970 -0.4463 -0.2757 -0.1122
16591W        W32775  16.429   0.620   2.817  0.2959  0.5057 -0.0377
16592W        W32776  12.049   0.521  15.087  0.0974 -0.1243  0.0677
16593W        W32777   1.773   0.635  13.054  0.3493  0.1142  0.2505
16594W        W32778   4.020   6.321  13.140 -0.0171 -0.0217 -0.1767
16595W        W32779  15.329   8.511  13.793 -0.0177  0.2319 -0.1247
16596W        W32780   2.796   6.035  15.495 -0.1267 -0.3071  0.0316
16597W        W32781   1.373  17.294  16.689 -0.2485 -0.0799  0.2168
16598W        W32782   5.438   8.400   6.664  0.3548 -0.1775 -0.0860
16599W        W32783  14.830   0.138   3.683 -0.1062 -0.1055  0.0367
16600W        W32784  13.780  12.652   2.997 -0.2295  0.3159 -0.0080
16601W        W32785  12.721  17.889  11.071  0.0775 -0.1526  0.1532
16602W        W32786   2.101   7.988  14.546  0.3547  0.0391  0.0062
16603W        W32787   1.309   1.199   5.418 -0.0755 -0.0857  0.0773
16604W        W32788   3.288   9.354  16.212 -0.0356  0.1632 -0.3450
16605W        W32789  16.772   5.121   0.547 -0.2949  0.0174  0.2550
16606W        W32790  17.860  14.766  12.210  0.0569  0.1925  0.0022
16607W        W32791  15.838   9.043  12.718 -0.0713  0.1586 -0.1739
16608W        W32792  16.293  14.753  12.692 -0.1059  0.1165 -0.1320
16609W        W32793  10.611   9.088  11.962 -0.0013  0.0915 -0.1025
16610W        W32794   0.900  16.891  11.036  0.0752 -0.2031 -0.0554
16611W        W32795  15.507  17.702  11.842 -0.0721 -0.3203 -0.3413
16612W        W32796   9.846  10.318  13.599  0.1347  0.2355  0.2372
16613W        W32797   7.826   7.633  14.491  0.0281 -0.1090  0.0686
16614W        W32798   4.768   1.380   2.121 -0.2525  0.0289  0.4615
16615W        W32799   4.930   8.286  14.993  0.0096  0.2508 -0.0776
16616W        W32800  14.259   0.867  11.229 -0.1001  0.1319 -0.0623
16617W        W32801   7.952   6.076  12.889 -0.1693 -0.0702 -0.1155
16618W        W32802   0.396  17.787   4.568  0.2455  0.0461 -0.1065
16619W        W32803   5.630  12.378   3.647  0.0041  0.0449 -0.1191
16620W        W32804  17.047   1.816  13.059 -0.1674  0.2592  0.0211
16621W        W32805  16.343  11.713  11.747  0.4281 -0.2080  0.2995
16622W        W32806   7.164   6.131   0.985 -0.0850 -0.1090 -0.3554
16623W        W32807  17.939   6.224   2.521 -0.0348  0.2644 -0.0267
16624W        W32808   2.845   7.509   1.951 -0.1559  0.4047  0.1670
16625W        W32809   0.318  16.809   2.670  0.1402  0.1749 -0.1520
16626W        W32810   5.641  14.867   4.135 -0.2292 -0.0190 -0.1692
16627W        W32811  15.046   1.493   2.156 -0.0761 -0.0940 -0.1487
16628W        W32812   6.459  14.659  15.778 -0.1042 -0.0776  0.1295
16629W        W32813  17.431  15.952  13.194  0.2174  0.1389 -0.0583
16630W        W32814  14.408  15.450  16.685 -0.0474  0.1007  0.1483
16631W        W32815   7.264   3.821   1.551  0.0531  0.0285 -0.3408
16632W        W32816   7.642  15.040   2.765  0.0632 -0.2091  0.1009
16633W        W32817  15.664  11.166   2.967  0.1646  0.0156 -0.0068
16634W        W32818  15.535  14.771   0.645 -0.1157  0.0072 -0.0968
16635W        W32819  15.085  12.652  13.475  0.4623  0.0308 -0.0676
16636W        W32820  13.011  13.600  13.288 -0.1778 -0.1894  0.2259
16637W        W32821   0.232   3.137  13.240 -0.0597  0.4062 -0.4013
16638W        W32822   7.158   5.651  14.845  0.1363 -0.1447 -0.0975
16639W        W32823   5.037   1.225  14.260 -0.0385 -0.0951 -0.0961
16640W        W32824   3.752  10.004  12.782 -0.3079  0.1900 -0.2295
16641W        W32825   8.962   8.975   1.683 -0.0604  0.0354 -0.0403
16642W        W32826   5.676   3.037  12.768  0.0602  0.0884 -0.1678
16643W        W32827   8.657   9.983   0.064  0.1261  0.3759  0.2795
16644W        W32828   0.758   0.149   1.222 -0.2663 -0.1873 -0.2210
16645W        W32829  10.607  13.278   4.829 -0.0102 -0.0646 -0.0177
16646W        W32830   3.678  16.387   0.106  0.0748 -0.2396  0.1510
16647W        W32831  11.040  17.432   0.636  0.0420  0.1448  0.1848
16648W        W32832   0.444   7.635   2.366  0.0660 -0.0195 -0.1330
16649W        W32833   5.753  10.106   1.403 -0.2640 -0.1390  0.3764
16650W        W32834   0.741  11.225  15.257 -0.0495  0.1561  0.0958
16651W        W32835   8.476  15.987   3.133 -0.0916 -0.4079 -0.1846
16652W        W32836  17.633   7.761   0.562  0.2643  0.1981 -0.2174
16653W        W32837  15.712   3.653  13.013  0.0747  0.3148 -0.0942
16654W        W32838   8.029   8.157  15.170  0.0700 -0.4950 -0.2390
16655W        W32839   1.533  16.502  16.534  0.3572 -0.2357  0.0677
16656W        W32840   1.497  17.884  16.531 -0.1274  0.1876 -0.1588
16657W        W32841  10.547   2.803   3.886 -0.1041 -0.0857 -0.1400
16658W        W32842   4.724  14.540  11.980 -0.1298  0.0472  0.3014
16659W        W32843   8.471   0.629   2.058  0.0901  0.0084  0.2933
16660W        W32844   1.683   5.117  10.952  0.0425  0.0376  0.1104
16661W        W32845  11.929   9.719  12.043  0.1795 -0.3625 -0.0728
16662W        W32846   7.697  10.313  13.286  0.1864  0.0282  0.0135
16663W        W32847   4.623  16.928   5.002  0.1110  0.0454  0.2308
16664W        W32848  14.286  11.671  13.442 -0.4861 -0.1896  0.0316
16665W        W32849   5.639  15.829   0.142  0.1925  0.3614  0.2064
16666W        W32850   4.800  10.743  12.155 -0.0297  0.3553  0.1277
16667W        W32851   1.375   9.942   5.130 -0.0569 -0.4482  0.1075
16668W        W32852  16.473  11.254  11.464  0.0957 -0.0019  0.1060
16669W        W32853   4.420  12.345  12.459 -0.1776 -0.1717 -0.2079
16670W        W32854   6.802  11.226   5.116  0.0128  0.4215 -0.1103
16671W        W32855   9.226   0.401   3.964 -0.1443 -0.1332  0.1326
16672W        W32856   8.912  13.529   4.925 -0.0475 -0.1916  0.1470
16673W        W32857   6.917   9.873   3.303  0.1603 -0.1668  0.0853
16674W        W32858  13.531  11.860   2.033 -0.0090 -0.2135 -0.0033
16675W        W32859   9.771   0.171  15.118 -0.0474 -0.1737 -0.1998
16676W        W32860   3.733   4.767   4.240 -0.1812  0.2797 -0.1716
16677W        W32861   4.763  12.972  13.196 -0.4169  0.0510 -0.1750
16678W        W32862   2.764  16.738   9.960 -0.1937 -0.1834 -0.1323
16679W        W32863   2.078   8.905   4.533  0.4500 -0.1643  0.2699
16680W        W32864  11.309  14.371  13.651  0.0270 -0.1168  0.2434
16681W        W32865   1.076  16.605  13.470  0.0697  0.0872 -0.0894
16682W        W32866   0.227  11.974  15.309  0.0171 -0.0425 -0.1613
16683W        W32867   9.887  12.868   1.513  0.0597  0.0830 -0.1083
16684W        W32868   1.890   1.435  15.423  0.1349 -0.0466  0.2389
16685W        W32869   3.750   3.845   4.853  0.1856  0.2123 -0.0549
16686W        W32870  11.013   7.897   1.770  0.1990 -0.3965  0.0987
16687W        W32871   0.347  14.559   5.822 -0.3200 -0.3666  0.2434
16688W        W32872   7.476  15.754  11.865  0.1601  0.2320  0.2409
16689W        W32873   0.125   0.457   3.105  0.0174  0.1375 -0.0348
16690W        W32874  10.037  16.370  13.974 -0.1269  0.0911  0.0883
16691W        W32875   7.784  17.504  12.120  0.0237 -0.2150 -0.0037
16692W        W32876  12.464   3.784  13.969  0.0683  0.1619 -0.1510
16693W        W32877  11.709   6.331   5.972 -0.1744  0.1513  0.0208
16694W        W32878  10.027  11.683  12.312 -0.1642  0.0048  0.0523
16695W        W32879   6.958  12.072   4.951 -0.1775 -0.1824  0.2381
16696W        W32880  16.954  12.288  12.087 -0.1334 -0.1456 -0.1333
16697W        W32881  11.908   0.265  12.688  0.1001 -0.0170 -0.0768
16698W        W32882   6.541   2.855   4.210  0.0096 -0.0944 -0.3732
16699W        W32883  10.021   8.536   5.181 -0.0968 -0.2567  0.1803
16700W        W32884  15.047   4.952  12.829 -0.0490  0.1680  0.1361
16701W        W32885   5.034   4.142   5.208  0.0391  0.2201 -0.0554
16702W        W32886   7.250  15.148  12.629 -0.2544 -0.0509 -0.5013
16703W        W32887   0.880  13.696  16.374  0.1942 -0.0530 -0.2556
16704W        W32888   3.463  14.239   1.268 -0.2357  0.2294 -0.3419
16705W        W32889   5.285   2.154   2.069  0.2340  0.1608  0.1366
16706W        W32890  17.662   4.215   2.211 -0.0529  0.1452  0.0475
16707W        W32891   6.170   4.776  13.570  0.0714  0.2808 -0.0666
16708W        W32892   9.893   2.198   1.607  0.2982 -0.0866  0.3363
16709W        W32893  15.483  14.118  14.250  0.5057 -0.0328  0.0506
16710W        W32894  12.708  16.660  13.488 -0.0082 -0.2377 -0.0017
16711W        W32895   9.358   5.770  16.109 -0.0302 -0.1039 -0.1883
16712W        W32896   4.282   1.764  13.334 -0.0767 -0.3027  0.1347
16713W        W32897   3.721  12.149   2.558  0.0851 -0.3027 -0.0048
16714W        W32898   2.860   8.980   0.470  0.0370 -0.2669 -0.0908
16715W        W32899  12.806   3.876   4.594 -0.0524 -0.0086 -0.0943
16716W        W32900  17.043   3.741   5.151 -0.0174  0.0709 -0.1542
16717W        W32901  12.892  17.055   2.664 -0.1021  0.2001  0.2582
16718W        W32902   8.453  14.852   3.198 -0.0259  0.0220 -0.1545
16719W        W32903  10.438   7.228  15.774  0.1387 -0.1424 -0.1628
16720W        W32904   1.110   9.261  10.708 -0.1644 -0.2405  0.0551
16721W        W32905  13.969  11.130   2.015  0.0174  0.0126 -0.0625
16722W        W32906   8.984   7.914  13.642 -0.2240  0.2006 -0.3731
16723W        W32907   6.278   8.061  12.420  0.1139  0.0815  0.0351
16724W        W32908   2.519   7.723  14.444 -0.0918 -0.0476 -0.0171
16725W        W32909   1.452   6.409  11.846 -0.3946 -0.2537  0.0182
16726W        W32910   3.718   5.968   5.235 -0.2425  0.2405 -0.0890
16727W        W32911  11.557  13.044   2.916 -0.1752  0.0917  0.0311
16728W        W32912   7.061  16.417  15.290  0.0118  0.1125  0.0308
16729W        W32913  12.098   1.089  14.539  0.3166 -0.3149 -0.2035
16730W        W32914  16.408   0.173   2.476  0.0043 -0.1997  0.2287
16731W        W32915   1.979   4.416   2.074 -0.0184 -0.2215 -0.1598
16732W        W32916   0.050  10.962   2.036  0.0949 -0.1799 -0.1608
16733W        W32917  14.965  15.673   3.072  0.2925 -0.0673  0.0897
16734W        W32918   3.112   2.050  13.004 -0.1372 -0.2059 -0.1559
16735W        W32919  17.985  14.218  15.400  0.1414  0.1261 -0.4141
16736W        W32920   9.194   5.930   4.193  0.0165 -0.0739 -0.1043
16737W        W32921   3.066   7.255   0.480 -0.1860 -0.2500 -0.1300
16738W        W32922   6.783   9.711   6.086 -0.0324  0.0462 -0.1010
16739W        W32923  15.314   1.332  10.880  0.1636  0.1971 -0.1721
16740W        W32924   5.599   1.756   1.824 -0.1734  0.1611  0.1091
16741W        W32925   9.379  11.390  12.552 -0.0333  0.3150 -0.3090
16742W        W32926  14.119   5.547  11.452  0.1446 -0.0205 -0.2258
16743W        W32927   6.186  16.288  11.607  0.0955  0.0911  0.0105
16744W        W32928  16.182  14.696  11.811  0.1314 -0.1582  0.2012
16745W        W32929   5.936  11.278   1.318 -0.1946 -0.0247 -0.0272
16746W        W32930  10.979   5.148  13.307  0.1305 -0.0831 -0.1355
16747W        W32931   0.799   5.580   4.927 -0.0138  0.0795  0.1400
16748W        W32932   9.209   9.312  13.364  0.3480  0.1726 -0.0085
16749W        W32933  10.793   2.704  14.788  0.0650  0.1888 -0.1652
16750W        W32934   9.982   4.353   2.492  0.3596 -0.0420 -0.0155
16751W        W32935   3.798   9.038   4.880 -0.1550  0.1397 -0.1321
16752W        W32936   8.178   8.233   1.786  0.0106  0.0708  0.1096
16753W        W32937  11.314   0.113  11.660  0.2080 -0.3259  0.3643
16754W        W32938  16.353   9.450   2.014 -0.2550  0.5272 -0.0374
16755W        W32939  18.001   3.204  12.753 -0.1790  0.0401  0.2662
16756W        W32940   4.939   6.829   2.091 -0.2831  0.0540 -0.2516
16757W        W32941   1.312   7.306   2.804  0.2137 -0.1078 -0.0028
16758W        W32942   1.789  15.120   0.969  0.1124 -0.0170  0.1217
16759W        W32943   4.940  14.299   5.291  0.1188  0.1050  0.1158
16760W        W32944   0.774  16.401   2.738 -0.1155  0.0216  0.1755
16761W        W32945  16.000  17.097   5.635 -0.0359  0.3862  0.1169
16762W        W32946   8.471   8.157   4.968 -0.1647  0.1822 -0.4143
16763W        W32947  16.409   6.129   5.463  0.0131  0.1461 -0.0212
16764W        W32948   2.876   0.352  16.269 -0.2788  0.3300 -0.0338
16765W        W32949  16.359  15.304  13.195 -0.3245  0.0207 -0.0435
16766W        W32950  16.153   7.296   1.911 -0.1082  0.1073 -0.0856
16767W        W32951  17.995  17.054   0.888  0.0812 -0.1254 -0.0235
16768W        W32952   4.342   3.931   1.734  0.0063 -0.0824 -0.0246
16769W        W32953  11.273   9.747  16.160  0.0087 -0.1160 -0.0633
16770W        W32954  17.636   2.259   1.867 -0.0631 -0.1883 -0.2375
16771W        W32955   9.024   5.828   0.517 -0.2959  0.1803  0.0923
16772W        W32956  12.259  10.035  12.344 -0.1520 -0.1059  0.2501
16773W        W32957   2.971  16.284  15.204  0.2053 -0.1302 -0.1938
16774W        W32958   2.475   3.520   4.737 -0.0448  0.1295 -0.2773
16775W        W32959  14.284  14.803  13.339 -0.1342  0.1143  0.0142
16776W        W32960   0.887  15.891   3.994  0.0638 -0.2154 -0.0784
16777W        W32961   1.798   8.837  16.066 -0.1619 -0.2761 -0.0329
16778W        W32962   4.379  10.059  12.704 -0.0993 -0.0429  0.1070
16779W        W32963  17.480   8.088  13.954  0.2001 -0.1406 -0.0868
16780W        W32964   3.345  11.574   1.863 -0.2785  0.1672  0.0261
16781W        W32965   6.000   2.183   3.123 -0.0330 -0.0628  0.2702
16782W        W32966   8.913   7.540   2.618  0.1273  0.1113  0.0948
16783W        W32967  17.209   1.074   3.149 -0.0786  0.1085 -0.2124
16784W        W32968   0.493   3.339  12.852 -0.0155  0.1033  0.2083
16785W        W32969   2.307   3.884  14.326 -0.0689  0.0604  0.1942
16786W        W32970  17.701   9.424   3.501 -0.0373  0.0653 -0.2144
16787W        W32971   2.276   7.444  12.246 -0.2147 -0.2488  0.0249
16788W        W32972  15.296  16.871  13.957 -0.1123 -0.1010  0.0443
16789W        W32973   4.669  14.691  13.557 -0.2752 -0.1992 -0.0118
16790W        W32974  11.068  17.400  13.045  0.1240 -0.0868 -0.1723
16791W        W32975   5.888  17.971  15.926  0.2241  0.0458 -0.2745
16792W        W32976   9.673   7.970   1.672  0.0492 -0.0964 -0.0343
16793W        W32977  15.717   1.035  10.851  0.1693  0.1663  0.1347
16794W        W32978   5.571   0.489   0.842  0.3145 -0.2151  0.2776
16795W        W32979   2.809   0.357   0.138  0.0410 -0.0976  0.0700
16796W        W32980   7.193   3.782  15.935 -0.1463  0.0518  0.1438
16797W        W32981   9.327  16.706   4.666  0.1236 -0.0681  0.0354
16798W        W32982  10.044   8.973   2.639  0.2064  0.1612  0.1272
16799W        W32983   2.169  11.763  15.668 -0.0857  0.2170 -0.2377
16800W        W32984  17.219  10.547   5.315  0.1612 -0.0439 -0.0455
16801W        W32985  16.539  14.460  15.898  0.0898  0.2665  0.0426
16802W        W32986   2.039  14.165   2.778  0.1057 -0.1071 -0.1507
16803W        W32987   4.409  10.340  16.517  0.1203 -0.1191 -0.3419
16804W        W32988   5.805   5.506   0.718 -0.2174 -0.0304  0.1843
16805W        W32989   2.152  13.568  14.752 -0.1810  0.3418  0.2919
16806W        W32990   2.345  14.999   2.492 -0.0926  0.1200 -0.0203
16807W        W32991  14.479   1.146   1.292  0.2410 -0.5074  0.0343
16808W        W32992  17.195   2.250  12.322  0.0157 -0.1544  0.0891
16809W        W32993  13.496  16.203   1.143 -0.0958 -0.2278  0.2309
16810W        W32994  13.768   2.740  16.322 -0.0505 -0.1207  0.0050
16811W        W32995  10.900  13.535  16.208 -0.0647 -0.1266  0.0247
16812W        W32996  10.088   5.654  14.585  0.1545  0.1599 -0.2820
16813W        W32997   9.486   4.995   4.934 -0.1042 -0.0218  0.0229
16814W        W32998   7.112  10.064  15.539  0.2903 -0.1757  0.2574
16815W        W32999   1.210   2.968  11.945 -0.1287 -0.0666  0.2985
16816W        W33000  12.851  17.045   1.287  0.3548  0.2048  0.3154
16817W        W33001  16.118  12.611  12.688  0.1789  0.4056  0.0985
16818W        W33002   1.192   5.550  11.785  0.0996  0.1997  0.2650
16819W        W33003   2.185  11.386   3.659 -0.0439  0.1563  0.3222
16820W        W33004   0.617  17.339  12.390 -0.0898 -0.0415  0.2097
16821W        W33005   1.194   7.731  14.451 -0.3026 -0.0898  0.2596
16822W        W33006  13.776   7.530  12.851 -0.0772 -0.0531 -0.1116
16823W        W33007   5.094   7.820   1.307  0.1242  0.0735 -0.1796
16824W        W33008   7.369   9.472  13.666  0.1521  0.0145 -0.0081
16825W        W33009  15.188  12.763   1.838  0.1102 -0.5455  0.1593
16826W        W33010  14.469   6.473   3.178  0.0297 -0.0181  0.0529
16827W        W33011   7.438  16.463   2.637  0.0232  0.0660 -0.0668
16828W        W33012   4.883   2.263  11.988  0.1421 -0.0444  0.2493
16829W        W33013  13.153   6.622  11.917 -0.0491  0.0295  0.1075
16830W        W33014  12.976   1.750  13.379  0.3713  0.1043 -0.0691
16831W        W33015   5.224   8.209   0.126 -0.2000  0.2601 -0.0220
16832W        W33016   6.105  17.081   2.317 -0.0686  0.3018 -0.1080
16833W        W33017  13.377   8.699  12.246  0.1822  0.0293 -0.2713
16834W        W33018  17.107   0.398  12.286  0.0113 -0.1231  0.1132
16835W        W33019   1.351  13.292  14.956 -0.0605 -0.0553 -0.3144
16836W        W33020   5.632   6.148  14.766 -0.0950  0.0941  0.0521
16837W        W33021   1.590   5.083   5.593  0.1632  0.3316 -0.3121
16838W        W33022  14.578   3.747   1.999 -0.2193 -0.1738 -0.0843
16839W        W33023   0.380   0.419   0.184 -0.2006 -0.1762  0.1884
16840W        W33024  16.158   7.703  15.705  0.4935 -0.2838  0.0541
16841W        W33025  14.035   4.669  16.466 -0.0734  0.3078 -0.0252
16842W        W33026   1.194  17.753   5.759  0.0066 -0.4104 -0.0044
16843W        W33027  12.563   0.115  14.391  0.0407 -0.1380 -0.2272
16844W        W33028   1.276  12.450  13.827 -0.0143 -0.2448 -0.0591
16845W        W33029  11.710  15.987   1.558 -0.2980 -0.0881  0.0087
16846W        W33030  11.198   6.227   0.238 -0.0197 -0.0141 -0.0186
16847W        W33031  14.379  10.701  16.110  0.0178  0.0199  0.1936
16848W        W33032   8.237  17.109  14.698 -0.2435 -0.0037 -0.2458
16849W        W33033   8.863  17.904  11.472 -0.4466 -0.3839  0.0912
16850W        W33034   2.034   2.865   6.206  0.2554 -0.1130 -0.1708
16851W        W33035  12.779  10.259   0.717 -0.2540 -0.1514  0.0173
16852W        W33036   8.370   2.514  15.684 -0.1774  0.3491 -0.1260
16853W        W33037  13.047   7.049  15.536 -0.2644 -0.2842  0.1115
16854W        W33038   4.052   4.311   4.363 -0.0458 -0.1775  0.0010
16855W        W33039   7.587  12.984   0.540 -0.0144 -0.1627 -0.2196
16856W        W33040   2.874  12.438  11.776 -0.2383  0.1048  0.1129
16857W        W33041  14.566   3.642  12.222 -0.0023 -0.0883  0.0122
16858W        W33042  16.116   7.896   3.440 -0.2687 -0.4329 -0.0357
16859W        W33043  12.560  15.319  13.167  0.2066 -0.0518  0.1057
16860W        W33044  11.344  10.594   2.537 -0.1531  0.2094  0.1685
16861W        W33045  12.182   7.731   3.909 -0.1305  0.1759  0.2558
16862W        W33046   5.746   4.849  12.088 -0.0640 -0.0026 -0.1561
16863W        W33047   5.454   2.664   3.855  0.0278 -0.0350  0.0250
16864W        W33048   5.251   5.558   4.941 -0.1229  0.0714 -0.0437
16865W        W33049  16.842   0.646   1.437 -0.0705 -0.0821  0.0820
16866W        W33050   8.898   4.483   0.582 -0.2815  0.2455 -0.0973
16867W        W33051   1.694  13.791   0.280  0.0609  0.1230  0.0382
16868W        W33052  11.311   8.573  12.139  0.0750 -0.2268 -0.3547
16869W        W33053   1.190   9.841   2.465 -0.0592 -0.0124 -0.0436
16870W        W33054  11.035  14.155   4.824 -0.0732 -0.2028 -0.0342
16871W        W33055   9.847  15.168  14.578  0.1862 -0.1126 -0.0463
16872W        W33056   7.930  10.021   3.564  0.1018  0.1447 -0.0189
16873W        W33057   5.305   3.879  13.219  0.2012 -0.0393 -0.0616
16874W        W33058   6.865   0.203   0.494 -0.1044 -0.2169 -0.0807
16875W        W33059  17.677   6.936   5.066 -0.1274 -0.1380 -0.2068
16876W        W33060  13.597   7.566  15.422 -0.0679 -0.0077 -0.3196
16877W        W33061  13.550  11.952   3.744 -0.0854  0.0356  0.1703
16878W        W33062   0.437   5.536   2.418  0.1614  0.0614 -0.2341
16879W        W33063   1.910   4.542   5.720  0.3102 -0.1518  0.3188
16880W        W33064  13.173   4.831  15.437 -0.0944 -0.1969  0.2066
16881W        W33065   7.112   8.634   0.147 -0.0489  0.0785 -0.1913
16882W        W33066   7.909   2.460   4.717  0.0729 -0.1033  0.2274
16883W        W33067   8.213   5.789   4.551  0.1494  0.0247  0.0980
16884W        W33068   0.191   6.774  14.675 -0.1786  0.0689 -0.2291
16885W        W33069   3.338  17.260   1.916  0.1250 -0.0086  0.0235
16886W        W33070   6.084   1.405   3.036  0.1566  0.2765  0.1021
16887W        W33071   8.133  11.984   1.441  0.0843  0.1398  0.2385
16888W        W33072   5.131   3.691   4.865  0.1813 -0.1530 -0.0197
16889W        W33073  13.809  12.306   0.619  0.1218 -0.0406  0.0517
16890W        W33074  15.386  15.648  14.746 -0.0834  0.0260  0.0474
16891W        W33075  13.469   3.096  16.690  0.1222  0.1577  0.3389
16892W        W33076  14.713  12.163   5.244  0.1397  0.0445 -0.0294
16893W        W33077   9.154   7.591  13.966 -0.0742  0.1049  0.2846
16894W        W33078  15.156   5.309   2.433  0.1188 -0.0631  0.0768
16895W        W33079  15.608   7.652   2.754  0.1107 -0.2269 -0.0614
16896W        W33080  15.844   4.181   5.548 -0.0261  0.0788  0.2724
16897W        W33081   1.472   3.656  16.160 -0.0853  0.0741 -0.0087
16898W        W33082  15.728  10.597  14.106  0.3556 -0.1675 -0.2410
16899W        W33083   2.835  14.462  14.990  0.4215  0.0598 -0.1065
16900W        W33084  14.714  10.698  16.502 -0.3762  0.0315  0.1236
16901W        W33085   7.715   9.048  15.569  0.0919 -0.1997 -0.0315
16902W        W33086  13.645  10.079   0.456  0.1010 -0.1359  0.0010
16903W        W33087   2.236  14.421  14.442 -0.0076 -0.0248 -0.0072
16904W        W33088  16.436   2.674   0.894  0.0458 -0.2120 -0.1602
16905W        W33089   3.276   4.861  13.627  0.1234 -0.1263 -0.2128
16906W        W33090  14.068   6.152  15.386  0.1329  0.3149 -0.4416
16907W        W33091  10.208  12.256   3.938  0.3500 -0.1722  0.1557
16908W        W33092   9.639  15.614  12.626 -0.0928  0.1901 -0.1858
16909W        W33093   5.459  17.832   6.008 -0.0053 -0.0572 -0.2078
16910W        W33094  15.470  15.660  13.017  0.0725  0.0416 -0.2893
16911W        W33095  12.475  16.238   5.039  0.0990 -0.3513  0.0938
16912W        W33096   0.791  15.568   1.217 -0.0795  0.1807 -0.1701
16913W        W33097   8.064   3.087   5.850 -0.3002 -0.1648 -0.0603
16914W        W33098   5.554  11.942   3.877 -0.2779  0.0818 -0.0939
16915W        W33099  16.973   7.080  13.482  0.0660 -0.1613  0.0533
16916W        W33100   6.880  14.996   1.627 -0.1925 -0.2796 -0.2176
16917W        W33101  10.392  10.136   3.271  0.1940  0.0178  0.3436
16918W        W33102  15.222   6.281  15.493 -0.1802 -0.2404  0.3100
16919W        W33103  16.304   1.197   1.074 -0.0247 -0.0186 -0.0992
16920W        W33104   4.169   5.588   0.526  0.0161 -0.0666  0.1634
16921W        W33105  11.333  10.341  12.537  0.3223 -0.1579 -0.1015
16922W        W33106   0.734  17.870  15.545  0.1923 -0.0538  0.1195
16923W        W33107   9.351  17.750   5.546 -0.0290 -0.0590  0.1632
16924W        W33108  12.175  13.809   2.682 -0.1850  0.0453  0.0064
16925W        W33109  14.947   3.596   2.379  0.2131 -0.2638 -0.0919
16926W        W33110   2.445  14.111  14.878 -0.0133 -0.0050  0.1153
16927W        W33111  15.808  15.678   1.837  0.5078  0.0354 -0.1168
16928W        W33112  10.114  13.355  15.796  0.1573  0.0050  0.4021
16929W        W33113  13.078  14.968  16.383  0.1383 -0.1841  0.1661
16930W        W33114  16.292   7.604   1.250 -0.2407  0.0360  0.1097
16931W        W33115  10.595   1.982   3.247 -0.2941  0.2290 -0.2700
16932W        W33116   1.978   1.622   5.248 -0.2852 -0.1898  0.2631
16933W        W33117   2.025  10.718   2.846 -0.0074 -0.0732  0.2502
16934W        W33118   6.850  12.694  15.655 -0.0399  0.1947 -0.1245
16935W        W33119   1.813  10.844  15.984 -0.2105  0.2723  0.2828
16936W        W33120  10.704  15.055   6.378  0.2320 -0.0564 -0.1136
16937W        W33121   1.298   2.728   0.229 -0.0770  0.0751 -0.0264
16938W        W33122   5.399   9.836   5.513  0.1039 -0.0826 -0.1337
16939W        W33123   9.848   2.350  11.320  0.0536 -0.0675  0.2775
16940W        W33124   2.932   9.938  13.329  0.0030  0.1781  0.1019
16941W        W33125   1.475  12.470   3.523 -0.3913 -0.1352 -0.1189
16942W        W33126  15.093   4.181   1.567 -0.0721 -0.3327  0.3438
16943W        W33127  10.909   8.959   3.483 -0.0614  0.0545 -0.0392
16944W        W33128   1.220  14.851   2.149 -0.1700  0.0410  0.1423
16945W        W33129   4.779   5.069  12.459  0.1926  0.1241 -0.2228
16946W        W33130  10.794   8.742   0.304 -0.0128  0.2671 -0.2834
16947W        W33131  10.366   3.965   2.266  0.1470  0.1589  0.3250
16948W        W33132  16.791  15.535   1.054 -0.2343 -0.1909  0.1809
16949W        W33133  13.582   5.613  13.976 -0.2741 -0.1280  0.0992
16950W        W33134  16.641   9.568  14.268  0.0423 -0.0299 -0.2109
16951W        W33135   1.249   5.133   1.521 -0.2675 -0.0081 -0.3088
16952W        W33136  17.574   9.964   1.098  0.1232  0.0336 -0.0476
16953W        W33137   0.021  16.636   0.010 -0.1067  0.3217 -0.0670
16954W        W33138   4.099   3.876   3.525 -0.0669 -0.0539 -0.0121
16955W        W33139  10.262   6.813   3.471 -0.0845 -0.1342 -0.2104
16956W        W33140  15.267   1.522  14.510 -0.2061 -0.3687 -0.1220
16957W        W33141   6.191  10.882   1.532 -0.1083 -0.3225 -0.2331
16958W        W33142  14.815   3.878  14.919 -0.3458  0.1679  0.1218
16959W        W33143   1.165   4.738  12.270  0.0240  0.1341  0.2696
16960W        W33144  13.687   6.090   4.041  0.1588 -0.1447 -0.0652
16961W        W33145   5.596   2.015  11.536  0.0217  0.2414  0.2564
16962W        W33146   2.302   1.930   5.474 -0.0569 -0.0003 -0.1339
16963W        W33147  17.460   9.880  14.256 -0.0803 -0.0589 -0.0448
16964W        W33148  11.166   7.450   3.111 -0.0200 -0.1920 -0.3607
16965W        W33149   5.844  15.148   3.592  0.0209  0.1746  0.1676
16966W        W33150   2.471  11.232   4.495 -0.0010  0.0875 -0.0466
16967W        W33151  10.510   1.760  14.665  0.4025  0.5297  0.1037
16968W        W33152   8.407  12.152   2.282 -0.0172  0.1032 -0.1850
16969W        W33153   9.756  12.791   1.063 -0.1332 -0.3288  0.0612
16970W        W33154  14.579   3.055   4.706  0.1369  0.2279  0.1223
16971W        W33155  14.260  11.121  16.305  0.0096  0.1546 -0.0660
16972W        W33156  13.516   3.323   4.988 -0.0804 -0.1150 -0.2022
16973W        W33157  10.610  16.338   3.033  0.1357  0.0419  0.0114
16974W        W33158  13.084  12.944  14.932  0.0103 -0.0674  0.2007
16975W        W33159  11.129   8.669  14.516 -0.1633 -0.1321  0.0856
16976W        W33160  13.347   0.004   2.743  0.0630  0.1435  0.1252
16977W        W33161  13.597   6.097   1.529 -0.1845  0.1830  0.0036
16978W        W33162  15.069  13.020   2.457  0.1512 -0.1683  0.0942
16979W        W33163  11.707  10.565   5.258  0.1296 -0.3680  0.3056
16980W        W33164   5.034   2.814   4.045 -0.1483  0.0494 -0.1528
16981W        W33165  11.546   9.460   3.865 -0.1339 -0.0853  0.2876
16982W        W33166  16.351  13.325   6.239  0.0506  0.0617  0.1830
16983W        W33167  17.695   5.943   1.536 -0.1322 -0.3045  0.1090
16984W        W33168   0.202  12.295  13.026 -0.1434  0.1035  0.1728
16985W        W33169  13.540  13.737  14.040  0.3058 -0.1644 -0.0348
16986W        W33170   9.702   9.825   2.277  0.1030  0.1984  0.0478
16987W        W33171   7.765   2.856   4.432  0.0949 -0.2866  0.0264
16988W        W33172  17.571  14.308   2.954  0.1270 -0.0732  0.0938
16989W        W33173  16.652  16.862  16.081  0.0155 -0.2167  0.0138
16990W        W33174   2.301   1.821   4.828 -0.1122  0.1608  0.0746
16991W        W33175  10.293   2.405  11.775 -0.1438  0.3462 -0.0127
16992W        W33176  13.690  12.484   0.159  0.0789 -0.1266  0.1158
16993W        W33177   1.405   5.653  13.972 -0.1000  0.1379  0.0437
16994W        W33178  13.856  17.351   0.128 -0.0798  0.2196 -0.3650
16995W        W33179  13.995  15.607  15.439 -0.0498 -0.0701  0.1660
16996W        W33180  11.217  11.196  13.647  0.2819  0.3812 -0.0652
16997W        W33181  11.164   4.339  15.702 -0.1650 -0.1085  0.3312
16998W        W33182  15.447  17.677  13.955 -0.1712  0.0452  0.3327
16999W        W33183  15.407  10.921  16.141  0.2399 -0.1735  0.0801
17000W        W33184   9.480  14.299  12.135 -0.1972 -0.0775 -0.1503
17001W        W33185   6.676  16.296   0.908 -0.0262  0.0483  0.1221
17002W        W33186  16.510  14.215   2.694  0.1154 -0.1575  0.1522
17003W        W33187   1.244   2.921   5.539 -0.0388 -0.1129  0.1388
17004W        W33188   9.405  12.991  16.083  0.1652 -0.2305  0.2151
17005W        W33189   3.670   0.040   0.142 -0.2549 -0.1936  0.2036
17006W        W33190   5.535   1.776   4.385 -0.1812  0.1566 -0.2709
17007W        W33191  10.998   3.579   6.122 -0.0636  0.0112 -0.0246
17008W        W33192  17.737   5.247  14.075  0.2213  0.0811  0.4744
17009W        W33193   9.498   3.102  16.235  0.1082  0.1013 -0.1348
17010W        W33194  14.033   3.904  13.818 -0.4579  0.1234 -0.2770
17011W        W33195   9.424  10.242  13.342 -0.3180 -0.2663  0.0898
17012W        W33196   7.300  10.141   6.289  0.1786  0.3344 -0.2868
17013W        W33197   9.861  14.506   3.677 -0.2487  0.2336 -0.2258
17014W        W33198   5.942  14.326   1.301 -0.2678  0.1313 -0.0473
17015W        W33199   4.012   2.733   2.416 -0.0420 -0.1653 -0.3902
17016W        W33200  15.892   6.712  12.585  0.1575  0.1258  0.4067
17017W        W33201  15.152  17.388   3.918 -0.0567  0.4178 -0.0656
17018W        W33202   4.412  16.394  13.052  0.1397  0.1445 -0.0286
17019W        W33203  17.488  16.118   5.110  0.2085 -0.2797 -0.1171
17020W        W33204  15.700   1.169   1.800 -0.0662 -0.0873 -0.2114
17021W        W33205  15.675   4.762  11.332 -0.0115 -0.0059  0.0208
17022W        W33206  14.159   5.111  14.736 -0.2085 -0.1678  0.2386
17023W        W33207   4.305  16.434  12.171 -0.1756  0.0739 -0.3159
17024W        W33208   1.987  16.971  11.579 -0.1453  0.0139  0.1278
17025W        W33209  13.014   2.262   1.591  0.0062  0.0115  0.2807
17026W        W33210  17.859   8.707  11.497  0.2346  0.0727 -0.3415
17027W        W33211  11.397  17.450  14.529  0.2513 -0.1347  0.0322
17028W        W33212  16.397  13.842  13.960  0.1111 -0.0059  0.1967
17029W        W33213  12.398   5.028   5.577 -0.2864 -0.3430  0.3462
17030W        W33214   0.426   4.638   5.176  0.0695 -0.0590  0.1312
17031W        W33215   0.028   8.317   0.642  0.1445  0.0619  0.0644
17032W        W33216   9.432  10.330   5.242 -0.0249  0.2025  0.1746
17033W        W33217   3.899  15.902   3.085  0.0113  0.1494  0.0031
17034W        W33218  18.000   0.139   1.944  0.0179 -0.1120  0.2300
17035W        W33219  13.845  17.734  14.565  0.0988 -0.1166  0.0029
17036W        W33220   9.760   1.611   4.808  0.2055 -0.2562  0.1131
17037W        W33221  10.958   5.681   1.347  0.0180 -0.0301 -0.1186
17038W        W33222  12.005  11.167  15.200  0.0912 -0.0082  0.1233
17039W        W33223  16.886   5.042  12.708 -0.0689 -0.0142 -0.1310
17040W        W33224   1.650  15.000   4.618  0.2143  0.0502  0.2512
17041W        W33225   0.007   8.955  15.222 -0.0711 -0.0649  0.0671
17042W        W33226  12.475  10.751  15.574  0.0696  0.0651 -0.1327
17043W        W33227   7.480   1.355  16.376  0.3672 -0.0329 -0.1020
17044W        W33228  17.109   7.213  14.960  0.1346  0.2140 -0.0710
17045W        W33229   3.436   2.395   4.319 -0.0017 -0.2186 -0.2836
17046W        W33230   0.396  11.495  15.519  0.0257  0.0671 -0.1899
17047W        W33231   7.854   1.745   1.657 -0.2382  0.2368  0.1801
17048W        W33232   4.623   9.729   4.325  0.1096 -0.1274 -0.1172
17049W        W33233   4.249   5.986   5.084 -0.4671  0.0261  0.0785
17050W        W33234   0.346  13.359  15.505  0.2564 -0.2340 -0.1097
17051W        W33235   1.352   7.194  12.110 -0.1441  0.0386  0.1461
17052W        W33236  14.078  16.018   5.315 -0.0770  0.2255  0.0862
17053W        W33237  15.425  16.160  12.742 -0.0761 -0.0523 -0.2349
17054W        W33238   6.181   8.453   0.087  0.2069  0.0627  0.2098
17055W        W33239  17.112  17.666   0.383 -0.0450 -0.0458  0.1114
17056W        W33240   0.533   9.575  15.750 -0.0837  0.2243 -0.0096
17057W        W33241  10.670  15.610   6.017  0.0789 -0.1454  0.0669
17058W        W33242   1.930   7.059   0.976  0.0415 -0.0559 -0.3708
17059W        W33243  14.082   7.832  13.207 -0.0717 -0.2904  0.0373
17060W        W33244   2.175   5.701  12.773  0.2589  0.2336  0.1629
17061W        W33245  16.163   7.661   4.957  0.4354  0.2055  0.1533
17062W        W33246   1.186   2.212   0.827  0.0310 -0.4550  0.0865
17063W        W33247  12.045   4.378   5.339  0.2789 -0.0451 -0.0288
17064W        W33248  11.489   0.777   0.979 -0.1398  0.2680  0.1681
17065W        W33249   7.694   1.972   5.868  0.0052 -0.0621 -0.0591
17066W        W33250  15.503   3.912  12.035  0.0578  0.0308  0.0390
17067W        W33251   2.880  15.106  12.088  0.2911 -0.2903  0.0320
17068W        W33252   9.479  14.312   3.936  0.4381  0.1321 -0.1351
17069W        W33253   3.108  12.469   0.458 -0.2365 -0.1558  0.0763
17070W        W33254   1.472  14.704   1.099  0.0680 -0.0100  0.1885
17071W        W33255  11.568   3.845   4.034  0.0150  0.0792 -0.3726
17072W        W33256  11.082   4.985   3.246  0.2682 -0.0602  0.0003
17073W        W33257   3.606   9.978  14.048 -0.1555  0.1450 -0.0209
17074W        W33258  13.806   3.888   1.052 -0.1302  0.2395  0.1318
17075W        W33259   3.507   2.516   1.803  0.0042 -0.0262  0.0105
17076W        W33260  12.642   5.423   4.536 -0.2108  0.2014 -0.2547
17077W        W33261  16.007   4.156   1.026 -0.0538 -0.1685  0.1838
17078W        W33262  13.929   8.315  13.255  0.1269  0.0015 -0.0460
17079W        W33263   2.043  15.679   2.500  0.1433 -0.2311 -0.0001
17080W        W33264  15.015  12.471   0.381  0.1125  0.0850  0.0798
17081W        W33265   2.095  12.286  16.435  0.0583  0.0238 -0.3785
17082W        W33266  17.954  13.748   1.212 -0.1004 -0.1593  0.1255
17083W        W33267   9.650  15.824  16.389  0.1421 -0.1473  0.4780
17084W        W33268   5.846   2.712   3.032 -0.3652  0.0714 -0.0770
17085W        W33269   3.767   6.163  12.686 -0.2340  0.2280 -0.1401
17086W        W33270  15.321   4.450   0.729  0.1842 -0.0809  0.1348
17087W        W33271   7.472  12.183  15.052 -0.1435 -0.2523 -0.1684
17088W        W33272   8.114  15.802   2.854 -0.0559  0.3392  0.2219
17089W        W33273  12.006   5.346   2.930  0.0398 -0.1513 -0.3434
17090W        W33274   1.974  14.169  14.846  0.0212 -0.1153 -0.0408
17091W        W33275   0.542  10.838   5.610 -0.1425 -0.1083  0.0545
17092W        W33276   5.022  17.328  11.592  0.2938 -0.2381 -0.0419
17093W        W33277   0.089  10.614   2.348 -0.3893 -0.1830 -0.0597
17094W        W33278   0.084   4.326  14.438 -0.3623 -0.0518  0.1165
17095W        W33279  10.238  11.055   5.443  0.0045  0.2849  0.0577
17096W        W33280  12.970  11.049  11.543 -0.0930  0.0589 -0.0014
17097W        W33281   2.577  15.010   1.746  0.0346 -0.1340  0.0197
17098W        W33282   2.664   0.089   4.338 -0.0286  0.0936  0.1825
17099W        W33283   4.546   2.156  16.036  0.0106 -0.0095  0.0743
17100W        W33284  10.034   1.019   2.886 -0.0728  0.0812  0.0267
17101W        W33285  15.281   1.896   2.107  0.1579 -0.0582 -0.5231
17102W        W33286  16.177  16.114  16.576 -0.1346  0.2614 -0.1027
17103W        W33287  13.301   8.587   1.083 -0.0747  0.1092  0.2466
17104W        W33288  10.998   5.804   3.836  0.0877 -0.2971  0.1655
17105W        W33289   8.869  12.061   5.269 -0.0530  0.3703 -0.0012
17106W        W33290  12.077   3.637   5.433  0.0887  0.0970 -0.5365
17107W        W33291   4.309   8.683  15.853 -0.0752  0.0820  0.0907
17108W        W33292  13.607  15.752  12.488 -0.0440 -0.1090 -0.0294
17109W        W33293   8.134  17.549   5.696  0.1531  0.1285  0.1575
17110W        W33294   5.326  12.744   1.045 -0.0258  0.4573  0.1709
17111W        W33295   3.885   6.055  14.421 -0.0878  0.0533  0.2909
17112W        W33296  12.806   9.178  12.042  0.0259 -0.2399  0.1096
17113W        W33297   8.388  12.082  14.562 -0.0447  0.1266 -0.4255
17114W        W33298   1.122   5.853   4.040 -0.1222 -0.1635 -0.1284
17115W        W33299  14.341   8.149  15.863 -0.0022 -0.0436 -0.0565
17116W        W33300   8.009   4.295   2.559  0.2756  0.1454  0.0142
17117W        W33301  17.119  14.939   2.314 -0.1737 -0.0008  0.0394
17118W        W33302   5.657  12.826  13.130  0.0174  0.0754 -0.4859
17119W        W33303   7.106  11.781   0.613 -0.1221  0.1004 -0.2080
17120W        W33304   7.976  11.832   5.132 -0.0853  0.0029  0.1036
17121W        W33305  11.789  11.062  14.185  0.0166 -0.1554 -0.1065
17122W        W33306  13.808  10.563  11.474 -0.1837  0.0583 -0.0220
17123W        W33307   2.513  15.890  11.975  0.0860  0.0822 -0.2002
17124W        W33308   5.793   7.062   2.241 -0.1845  0.1186  0.0272
17125W        W33309   7.589   2.091   4.694  0.0279 -0.0955  0.0305
17126W        W33310  11.548   1.149   1.815 -0.3449  0.1703 -0.0989
17127W        W33311  14.147   4.020   1.853  0.0411  0.0345  0.0440
17128W        W33312  14.256  11.022   5.642  0.0381  0.5148  0.0233
17129W        W33313  10.675  12.495   3.132 -0.0626  0.1640  0.0521
17130W        W33314   0.253   4.091  13.144 -0.2237  0.2912  0.0779
17131W        W33315  11.603  14.261   2.155 -0.0602  0.1863  0.1501
17132W        W33316   3.748   7.069   0.444  0.0992  0.0524  0.0134
17133W        W33317  10.551  13.815  16.521 -0.1846  0.3437  0.0708
17134W        W33318  16.472   7.613   1.683  0.0270 -0.0522  0.1432
17135W        W33319  11.421   2.254   4.706  0.2077  0.0067 -0.0052
17136W        W33320   1.062  12.749   4.157  0.0922  0.2366  0.0188
17137W        W33321  17.358   8.202   4.417  0.0352  0.1990 -0.2562
17138W        W33322   4.728  15.423  13.322  0.1690  0.1550  0.0262
17139W        W33323   2.802  13.651  11.938  0.0425 -0.1664 -0.1143
17140W        W33324   7.085  17.318   5.601  0.2684 -0.0397  0.0915
17141W        W33325  16.873  13.418   0.983  0.2707 -0.0495  0.2749
17142W        W33326   2.971   1.682  14.560 -0.4323  0.0118  0.3967
17143W        W33327   5.204  11.703  12.219 -0.1154 -0.1029 -0.1291
17144W        W33328  11.458   9.100   2.902 -0.1494 -0.1494  0.3104
17145W        W33329  16.481  12.307  12.947 -0.1599 -0.0301  0.0688
17146W        W33330   7.082  14.160  12.840 -0.1144  0.0929  0.0361
17147W        W33331   3.633  16.708   3.453 -0.1598  0.0150 -0.2668
17148W        W33332   0.401   9.220  11.567 -0.0991  0.2229 -0.1065
17149W        W33333   9.720  12.861  11.352  0.0524  0.2078  0.1384
17150W        W33334  14.300   4.692  11.788 -0.2472 -0.0049 -0.0445
17151W        W33335   4.518   8.188   4.686  0.0814  0.0044  0.2808
17152W        W33336  10.774   4.699   2.270 -0.1713 -0.0290 -0.0131
17153W        W33337   0.808   1.284  13.663 -0.0139 -0.2070 -0.1067
17154W        W33338   3.606   1.448   3.033  0.3426 -0.0313 -0.0790
17155W        W33339  13.974  16.089  12.656 -0.3125  0.1451 -0.3892
17156W        W33340  14.230   0.707  14.933  0.2792  0.0340 -0.0615
17157W        W33341  15.729   4.639   1.149 -0.2665  0.2934 -0.2233
17158W        W33342   8.908  12.898   2.193  0.0130 -0.0635  0.0543
17159W        W33343  16.055   6.716   1.770 -0.1457 -0.0665  0.2181
17160W        W33344  15.360   4.107  13.159 -0.3466  0.1194 -0.1837
17161W        W33345   2.839   6.633  15.234 -0.1274  0.0922 -0.1593
17162W        W33346   5.508   6.649   4.523  0.0376 -0.0322  0.1548
17163W        W33347   5.123   0.310  12.852 -0.1162  0.0179  0.2356
17164W        W33348  15.591   9.136  16.241  0.3850  0.2861  0.2675
17165W        W33349   5.505  17.231   2.606  0.2728 -0.0189  0.0861
17166W        W33350  14.697   4.334  16.133 -0.1314 -0.0539 -0.1204
17167W        W33351   6.459   6.119   6.277  0.0552 -0.2014  0.0047
17168W        W33352   3.683   0.858   3.893  0.1338 -0.1193  0.2671
17169W        W33353  10.641   7.973  14.814  0.0138  0.1067  0.0921
17170W        W33354   0.707   1.789  13.743  0.1664 -0.0408  0.1268
17171W        W33355  15.713  16.533  11.912  0.2894 -0.1986  0.2061
17172W        W33356   8.068  15.817   3.344  0.1525  0.2910  0.0492
17173W        W33357   8.521   0.736   0.185  0.0319  0.1222  0.0147
17174W        W33358  10.322  12.193   1.819  0.1379 -0.0997  0.2681
17175W        W33359  10.512   3.017  16.057  0.1349  0.1144 -0.3728
17176W        W33360   2.559   6.379  14.404  0.0363  0.0503 -0.1786
17177W        W33361   2.584   8.526   0.250 -0.1137 -0.0475 -0.0195
17178W        W33362  17.487  17.485   0.114  0.0559 -0.1046  0.0978
17179W        W33363  10.505  13.393  12.682  0.1342 -0.0234  0.1105
17180W        W33364  12.696  13.407   5.165  0.0602  0.0864  0.2210
17181W        W33365  17.939  13.716  15.423 -0.0309  0.1165  0.0514
17182W        W33366   4.992   7.416   0.978 -0.2299 -0.1630  0.0157
17183W        W33367   6.709  15.528   0.793  0.0423  0.0263 -0.1007
17184W        W33368   9.946   2.361  16.469 -0.0618 -0.1217  0.3505
17185W        W33369   1.407  10.827   0.178  0.2673  0.0024  0.0881
17186W        W33370  13.405  12.760  12.467  0.1415 -0.3321 -0.1455
17187W        W33371   5.546   8.028   5.316  0.1738 -0.0158 -0.2771
17188W        W33372   3.659  13.633  11.767  0.0638  0.0678 -0.2652
17189W        W33373  12.499   1.865   2.743 -0.2564 -0.1254  0.1495
17190W        W33374   7.491  17.772  15.121  0.1493  0.0450  0.1133
17191W        W33375  12.612   6.444  13.809 -0.0935 -0.0495 -0.1950
17192W        W33376   2.744  17.477  15.158 -0.1665 -0.1308  0.1781
17193W        W33377  16.571   4.199  15.698 -0.0440  0.5406 -0.2187
17194W        W33378   6.727   9.033  15.608  0.0501  0.0239  0.1229
17195W        W33379   6.453  16.708   3.690  0.1189 -0.0712 -0.0557
17196W        W33380   9.916   8.843  15.603 -0.0540 -0.0560 -0.2096
17197W        W33381   0.889  11.099  12.789 -0.0831 -0.2823  0.0255
17198W        W33382   7.914   0.217   1.680 -0.1562 -0.1556  0.2034
17199W        W33383   9.833   0.874  12.733  0.2279 -0.1665 -0.0125
17200W        W33384  16.459  10.366  13.014  0.1527 -0.4148  0.0539
17201W        W33385   8.841   2.556   2.817  0.0127  0.0711  0.1888
17202W        W33386  12.500   9.713   1.274 -0.2978  0.2708 -0.0082
17203W        W33387  14.528  14.367  16.078  0.0720  0.1226 -0.2330
17204W        W33388   4.774  10.461   4.880 -0.0329 -0.1757  0.0681
17205W        W33389  13.660   5.468   0.860  0.0547 -0.0275  0.0252
17206W        W33390  12.907  11.735  16.439  0.0583 -0.3517 -0.2088
17207W        W33391   0.776   2.566  16.041 -0.2386  0.0505  0.0746
17208W        W33392   7.273  17.356  14.734  0.4327 -0.2453 -0.1241
17209W        W33393   9.332   2.851   0.307  0.0496 -0.2231  0.1952
17210W        W33394   9.081  14.130   2.646 -0.0620  0.0659 -0.1179
17211W        W33395   0.171   4.412  15.545  0.1874  0.0661 -0.0717
17212W        W33396   6.886   1.853  11.765 -0.0045 -0.2803  0.1766
17213W        W33397   9.988   4.433  12.427  0.2273  0.3341 -0.0104
17214W        W33398   3.990  15.027   5.416  0.1262 -0.2201 -0.1741
17215W        W33399   5.214   1.105   4.729  0.2139 -0.0399  0.1457
17216W        W33400   4.472   4.222   2.258 -0.0732 -0.0605 -0.1916
17217W        W33401   4.377  15.193   0.516  0.0783  0.1418 -0.1509
17218W        W33402   6.243   4.345  16.690  0.1443  0.1352  0.0009
17219W        W33403   9.908   2.011  11.728  0.0991 -0.1080 -0.0685
17220W        W33404  14.769  14.232   0.671  0.2969  0.1918  0.2637
17221W        W33405  12.132  14.101   4.936  0.1043  0.0590  0.4464
17222W        W33406  15.675  15.364  16.625 -0.1288  0.1372 -0.0950
17223W        W33407   2.113   4.062  12.647 -0.0058 -0.0273 -0.3533
17224W        W33408   5.597  16.036  16.347  0.0691 -0.0659 -0.1944
17225W        W33409   3.895   2.669  15.151  0.1375 -0.0539  0.2087
17226W        W33410   1.892  16.949   0.718 -0.3178 -0.0345 -0.1224
17227W        W33411   3.669   3.767  14.239 -0.3452 -0.1445 -0.1292
17228W        W33412   7.427   9.168   4.962 -0.1771 -0.2950  0.0956
17229W        W33413  16.570   6.467  14.707  0.0894  0.1012 -0.0224
17230W        W33414   1.172   5.912  13.647  0.2098 -0.0325  0.1354
17231W        W33415  10.274   7.710  12.453  0.2224  0.2930 -0.0584
17232W        W33416   9.108  10.883  15.839  0.2017  0.0442 -0.0080
17233W        W33417  12.315  12.743   0.359  0.1076 -0.0778  0.4641
17234W        W33418   6.812  12.649   4.343 -0.0854 -0.1223  0.2752
17235W        W33419  12.585   1.463  13.197  0.3684 -0.0535 -0.0612
17236W        W33420  17.373   5.073   5.608 -0.2195  0.0780  0.1297
17237W        W33421   6.386  17.733  13.013 -0.3031 -0.0880 -0.0764
17238W        W33422   1.181   3.981  12.650  0.1553  0.0195  0.1065
17239W        W33423  11.256  15.195   4.347  0.3878  0.2631 -0.0248
17240W        W33424  14.874   3.801  15.635 -0.2059  0.1155  0.0087
17241W        W33425  16.575   5.808  15.163  0.4205 -0.0944 -0.0111
17242W        W33426  17.381  10.207  12.456  0.1232 -0.3820  0.2998
17243W        W33427  10.461   2.121   3.762 -0.1482  0.0772 -0.0320
17244W        W33428  11.992   7.204  16.662 -0.2263 -0.1063  0.4878
17245W        W33429   3.322  17.525  11.688 -0.1500  0.2249 -0.0456
17246W        W33430   3.234  15.571  12.800  0.1535  0.0640 -0.2593
17247W        W33431   4.751   4.927   1.095  0.3303  0.2479  0.2014
17248W        W33432   8.384  13.142   2.135 -0.1071 -0.1716  0.4358
17249W        W33433   1.501  12.875   5.375  0.4513  0.2870 -0.2385
17250W        W33434   3.597  11.254   0.955  0.2624 -0.1045 -0.1466
17251W        W33435   1.012  11.752   1.698 -0.0106  0.0427  0.1407
17252W        W33436  11.875   4.864  12.333  0.2381  0.0117  0.1152
17253W        W33437   3.832   7.910   6.209  0.0357 -0.2750 -0.1378
17254W        W33438  13.379   0.334  15.026  0.0258 -0.0615  0.2572
17255W        W33439   4.708  13.392   5.513 -0.1290 -0.0977 -0.0837
17256W        W33440  11.867   9.347   4.674  0.2121 -0.0007 -0.1467
17257W        W33441  14.125  16.939   1.047 -0.0549 -0.5224 -0.1118
17258W        W33442  10.475  10.870   3.538  0.1397 -0.3504  0.0528
17259W        W33443   0.326  15.032   5.985 -0.3892  0.0089 -0.2216
17260W        W33444  12.465  14.477  14.058  0.4233  0.0201 -0.0348
17261W        W33445   1.289  15.406   2.035 -0.1749  0.0822 -0.2603
17262W        W33446   3.623  10.904   0.123 -0.1271  0.0806  0.1677
17263W        W33447  15.295   8.048   1.764 -0.1552  0.0277  0.0201
17264W        W33448   3.156  11.531   2.294 -0.0113  0.0566 -0.0239
17265W        W33449   9.720  17.903  12.162  0.0415  0.0011 -0.0442
17266W        W33450   4.677  14.725  12.454 -0.1521  0.1447  0.0308
17267W        W33451   4.894  14.763  14.823 -0.3614  0.0243 -0.0430
17268W        W33452  16.852  10.907   5.266 -0.0462 -0.1368 -0.0836
17269W        W33453  12.448   1.645   4.965  0.4334  0.3197  0.0766
17270W        W33454   9.711   7.604  14.223 -0.1068 -0.0813  0.0348
17271W        W33455   0.805   9.705   1.637 -0.0276  0.1283  0.0040
17272W        W33456   1.756   7.877   0.291  0.1557  0.0722 -0.2207
17273W        W33457  17.976  16.452   3.979  0.0761 -0.1627  0.2483
17274W        W33458   5.077  14.086   3.113 -0.1744 -0.1541 -0.0904
17275W        W33459   5.663  15.485  15.028 -0.2286 -0.0577  0.1475
17276W        W33460   7.576  10.309  10.978  0.1082 -0.0267 -0.2613
17277W        W33461  13.222   4.160   4.491 -0.1349 -0.2171 -0.0603
17278W        W33462  12.099   4.640   1.012 -0.1236 -0.1523 -0.0457
17279W        W33463   3.906  12.776   5.426 -0.1118  0.2221  0.5337
17280W        W33464   1.417  12.388   2.994 -0.1036  0.0579 -0.1158
17281W        W33465   7.985  10.318  13.706 -0.0178 -0.1391 -0.2151
17282W        W33466   5.307   7.743  14.280 -0.2593 -0.2296  0.1386
17283W        W33467   9.143  12.193  13.250  0.0097  0.4762 -0.0361
17284W        W33468   8.684  14.027  10.193 -0.0107  0.0590  0.0825
17285W        W33469  10.517   0.770  14.097 -0.2999 -0.1138 -0.0876
17286W        W33470   2.854   6.766   2.463  0.0352 -0.0226  0.2452
17287W        W33471   6.006   8.747   1.357  0.0952 -0.3344 -0.1080
17288W        W33472  16.774  12.905   6.124  0.2221 -0.3275  0.2618
17289W        W33473  11.833   4.469  10.918 -0.0294 -0.2448  0.1347
17290W        W33474  16.609   5.708  14.589 -0.1349  0.0896  0.1172
17291W        W33475   3.719  17.192  13.718  0.1346 -0.2331 -0.4846
17292W        W33476   1.991   3.743   0.030 -0.0100  0.3537  0.1151
17293W        W33477  16.989  12.841  10.444  0.0731  0.0932 -0.0984
17294W        W33478  15.691   1.928  14.549 -0.0078 -0.1404  0.1554
17295W        W33479  16.314   2.119  12.512  0.0527  0.0968  0.0811
17296W        W33480   7.456  12.966   1.029 -0.3078 -0.0076  0.0499
17297W        W33481  11.406   1.542  14.560  0.2688  0.2933 -0.1983
17298W        W33482  15.752   1.330   5.604  0.0245  0.0004 -0.2331
17299W        W33483  16.345   0.665   1.234  0.1187 -0.0574 -0.1798
17300W        W33484   3.667  12.611  11.715  0.1007 -0.0423 -0.0146
17301W        W33485   5.986  15.021   2.414 -0.1686 -0.2085 -0.2364
17302W        W33486   1.284   1.000  13.633  0.1487  0.0097  0.0522
17303W        W33487   4.890   8.827  15.959  0.1120  0.2711 -0.5301
17304W        W33488   6.703  14.198  12.319 -0.2770  0.2527  0.0721
17305W        W33489   4.116   0.611   1.613 -0.0667 -0.2231  0.3642
17306W        W33490   5.176   2.886   0.059  0.1527  0.1158 -0.2794
17307W        W33491   6.257  12.271  11.991 -0.1867 -0.1955 -0.4004
17308W        W33492   5.184   8.981  13.773 -0.3581 -0.1894 -0.2962
17309W        W33493   9.200  11.062   4.734 -0.0151  0.0600 -0.2177
17310W        W33494   1.895  10.421   3.739 -0.1396 -0.0478  0.3093
17311W        W33495  13.885  15.699   0.542  0.2584  0.0742 -0.1469
17312W        W33496   7.614   2.887   1.744 -0.2509  0.0063  0.3086
17313W        W33497  11.966  11.967   5.769  0.3599 -0.1272  0.0001
17314W        W33498   9.062  14.021   0.985 -0.0737 -0.2188  0.0175
17315W        W33499  13.198   3.194   4.609 -0.2305  0.0028  0.2158
17316W        W33500   9.549   2.166  16.280  0.1138  0.3590 -0.0437
17317W        W33501   8.682   2.766  13.273 -0.0295 -0.0826  0.1491
17318W        W33502  16.572  10.674   3.083  0.1318 -0.2475 -0.3586
17319W        W33503  15.419  12.020   5.014  0.3536 -0.0678 -0.2226
17320W        W33504   5.793  14.357   4.990  0.0822 -0.3937 -0.1102
17321W        W33505  13.854  13.091  14.235 -0.2733 -0.0174 -0.2606
17322W        W33506   9.042  10.086  16.344  0.1227 -0.2366  0.2752
17323W        W33507   5.036  12.936  12.198  0.1394  0.0655 -0.1658
17324W        W33508   3.255  16.444  11.759 -0.3074 -0.0202  0.1471
17325W        W33509  15.959   8.107   4.306 -0.0467 -0.0585 -0.1814
17326W        W33510  13.295   5.466  12.099 -0.2853  0.0006  0.0037
17327W        W33511  11.785  10.628  16.331 -0.1158 -0.1859 -0.2757
17328W        W33512  11.257  13.219  16.224 -0.1531  0.0875 -0.2324
17329W        W33513   6.198  13.880   1.505  0.1471 -0.1511  0.0887
17330W        W33514   3.957   6.595  16.004 -0.2302 -0.2618 -0.2159
17331W        W33515  14.211   7.717  11.985 -0.1266  0.0283  0.0961
17332W        W33516  11.808  11.888   2.512 -0.1223 -0.0073  0.0854
17333W        W33517   1.187  12.405  16.104 -0.0124  0.0418 -0.1337
17334W        W33518  15.865   3.987  12.488  0.0447  0.1550  0.4019
17335W        W33519  17.654   0.452  14.018  0.1529  0.2354  0.2675
17336W        W33520  13.537   2.067  14.473 -0.0675  0.2440  0.1563
17337W        W33521   1.538  10.754   3.494 -0.0042 -0.0413  0.1426
17338W        W33522   8.321   9.533  16.057  0.1593 -0.0906 -0.0357
17339W        W33523   3.374  12.625   5.277 -0.1589 -0.0970  0.3237
17340W        W33524  16.553  11.512  15.877  0.0559 -0.0959  0.0554
17341W        W33525   7.801   5.920   5.319  0.0076 -0.0257 -0.0084
17342W        W33526  11.910   8.547  15.993 -0.2868 -0.0840  0.0182
17343W        W33527  14.410   1.733  16.610  0.3785 -0.2511  0.2543
17344W        W33528   9.549  11.712   2.145  0.1263 -0.0388 -0.3418
17345W        W33529   2.851  11.917   2.051  0.1104  0.1577 -0.0495
17346W        W33530   0.631  17.182  11.732 -0.4512 -0.1443  0.1418
17347W        W33531  14.748  17.710   3.996  0.1508 -0.1544  0.1547
17348W        W33532   2.702   8.878  15.512 -0.0910  0.0487  0.2600
17349W        W33533   2.330   0.422  14.383 -0.0147  0.2316 -0.0388
17350W        W33534  17.088   9.389   1.521  0.0945 -0.2648 -0.0002
17351W        W33535  17.179  13.590   3.588 -0.2000  0.3513  0.2672
17352W        W33536  16.439   7.111  13.713  0.1987  0.0107  0.0703
17353W        W33537   8.559   2.307  16.071 -0.0241  0.1049  0.1483
17354W        W33538   6.253   6.339  13.031  0.0772  0.0718 -0.2789
17355W        W33539   7.830  14.952  16.466 -0.4685  0.0285 -0.1818
17356W        W33540   8.249  17.066  12.259  0.0761  0.0364 -0.1030
17357W        W33541   5.753  17.291   3.183  0.0696 -0.3236  0.1628
17358W        W33542   2.481  12.861  16.316 -0.1059  0.3919 -0.0779
17359W        W33543   1.164   3.084   3.324 -0.2236 -0.1592 -0.0543
17360W        W33544  11.031  16.320   5.413 -0.1132  0.0479  0.0240
17361W        W33545   2.975  14.216  16.614 -0.1074 -0.2120 -0.2413
17362W        W33546   5.483  13.294  16.486 -0.0912 -0.2155  0.1709
17363W        W33547  17.685  17.109  13.364  0.0376 -0.0171 -0.1168
17364W        W33548  15.981   6.949  12.145  0.0508 -0.3325  0.2536
17365W        W33549  16.756  10.816  16.516  0.2230  0.0134 -0.1966
17366W        W33550   7.913  15.629  13.059 -0.0943 -0.4495  0.0242
17367W        W33551   9.677   8.425   0.077  0.2608 -0.1163 -0.1807
17368W        W33552   4.767   1.639  16.042 -0.4970 -0.2006 -0.1611
17369W        W33553   1.993   3.896   2.566  0.0497 -0.1014  0.2374
17370W        W33554  15.975   4.268  12.921 -0.2847 -0.0775  0.1476
17371W        W33555  15.586   9.879   0.301 -0.1211  0.0482 -0.1533
17372W        W33556  17.224   0.364  16.309  0.1370  0.2541  0.0149
17373W        W33557  12.598   0.921  15.496 -0.0614  0.0102  0.1328
17374W        W33558   0.765   5.096   1.608  0.0602  0.4425  0.0465
17375W        W33559   2.507  17.877   0.172 -0.0504 -0.2748  0.2110
17376W        W33560  11.977   8.831   4.732 -0.0324 -0.3136 -0.1961
17377W        W33561   0.066  15.190  10.370  0.0921  0.1682 -0.1447
17378W        W33562   4.358   3.448   5.328 -0.0218  0.0717  0.0760
17379W        W33563   2.644   9.338   5.574  0.1509  0.1448  0.0323
17380W        W33564   9.966   4.328  13.313 -0.1968  0.3205 -0.0975
17381W        W33565   0.870   1.299   6.268 -0.3311  0.2922 -0.1943
17382W        W33566   0.360   8.611   2.338  0.1845  0.0238  0.2476
17383W        W33567   6.971   9.754   3.930  0.1218 -0.1263 -0.0437
17384W        W33568   7.935   8.260  16.401  0.0121 -0.0899 -0.0397
17385W        W33569   6.196   3.241   0.274  0.1054  0.1063  0.0020
17386W        W33570  15.635   4.399   1.548 -0.4936  0.0648 -0.3850
17387W        W33571  13.842   1.530   3.496  0.0492  0.2262 -0.2007
17388W        W33572  17.271   2.949  13.981  0.3138  0.1140 -0.0233
17389W        W33573  13.697   2.466  14.172  0.1885  0.1315  0.1348
17390W        W33574   7.914   4.043   3.577 -0.2630 -0.0816 -0.0811
17391W        W33575   0.428  11.758   4.867  0.1936 -0.0423  0.2518
17392W        W33576  11.673  11.477   2.016  0.0785  0.0457  0.0520
17393W        W33577   9.464  16.373  12.010  0.1579  0.1534  0.0851
17394W        W33578  14.814   3.324  11.986  0.1065 -0.0495  0.1255
17395W        W33579  10.360   4.189   0.798  0.1154 -0.0943 -0.2163
17396W        W33580   1.494  12.000  12.109  0.0279  0.2938  0.0132
17397W        W33581  12.058   0.702  11.895  0.2381 -0.1102  0.0869
17398W        W33582   1.034  15.682   2.388 -0.0666  0.2117 -0.0294
17399W        W33583   9.327  16.520   2.238  0.0696 -0.0734  0.0375
17400W        W33584   6.385   8.972  16.058 -0.1834 -0.1782 -0.1748
17401W        W33585   8.615  14.592  15.009 -0.0704  0.5112 -0.0303
17402W        W33586   0.511   5.326   0.485  0.0187 -0.3356  0.0025
17403W        W33587   4.789   4.546  13.589  0.3413 -0.0528  0.1322
17404W        W33588  17.246   8.679  13.161 -0.0217  0.0453  0.1174
17405W        W33589   0.011   1.905   2.091 -0.2634  0.3073 -0.1471
17406W        W33590   3.955   1.747   3.650  0.2203 -0.1436  0.4538
17407W        W33591   3.570  14.639  14.321  0.0766  0.3820 -0.0009
17408W        W33592   6.441  16.776   0.619 -0.2037 -0.1384  0.1628
17409W        W33593  15.106   7.324   0.241  0.0906  0.2201  0.0724
17410W        W33594  10.311   5.363  15.497 -0.2268 -0.0138  0.0095
17411W        W33595   2.442  12.222   0.889 -0.2327  0.0136  0.0722
17412W        W33596   0.559  10.723  13.507  0.0294  0.2141 -0.0525
17413W        W33597  11.690   3.763   4.507 -0.0997 -0.0085 -0.1605
17414W        W33598   2.090   7.050  12.492  0.1047  0.3842 -0.0644
17415W        W33599  15.198   5.349   5.344  0.2201  0.1024  0.0810
17416W        W33600  11.146  12.673   2.895  0.3214  0.1459 -0.0287
17417W        W33601   9.286   7.063  13.801  0.1528 -0.3029 -0.0569
17418W        W33602   8.593  14.151   2.363  0.1567 -0.3245 -0.0229
17419W        W33603  16.164  16.408  11.573 -0.0803 -0.0124  0.0933
17420W        W33604   0.262  17.522   0.871  0.1819  0.1455 -0.0761
17421W        W33605  11.494   7.748   0.890 -0.1240  0.3373 -0.2218
17422W        W33606  17.353  13.409  13.075 -0.1383 -0.1521  0.1666
17423W        W33607  11.990   9.968  16.501  0.1178 -0.5405 -0.0585
17424W        W33608  15.677  10.006   2.467 -0.1035  0.0828  0.3247
17425W        W33609  17.454   8.960  11.799  0.0526 -0.0012  0.3428
17426W        W33610  12.481  16.795   5.084 -0.1855  0.0483  0.0322
17427W        W33611   1.695   4.660   4.617 -0.0541  0.2360 -0.0574
17428W        W33612   9.558  17.038   4.385  0.1809 -0.0323 -0.0017
17429W        W33613   7.240  10.285   4.179  0.0170 -0.3692  0.1077
17430W        W33614   8.576  16.290   1.733  0.2764  0.1450 -0.0691
17431W        W33615  15.901   2.841   2.837  0.1669 -0.0276 -0.1800
17432W        W33616  17.007  12.793   4.808 -0.0185  0.1368 -0.1440
17433W        W33617  15.746   7.197  15.587  0.1052 -0.0136 -0.0282
17434W        W33618   5.653  14.539  14.522  0.2974  0.3016  0.1204
17435W        W33619   5.166   2.485  11.052 -0.4628  0.2972 -0.0360
17436W        W33620  10.781   9.419   4.709 -0.2944  0.2723  0.1095
17437W        W33621  12.296  17.225  12.269  0.0113  0.1268  0.1217
17438W        W33622  12.846   4.122  12.119 -0.0361  0.0588  0.0070
17439W        W33623   2.627  10.319  12.872  0.2504 -0.3031 -0.3252
17440W        W33624   7.232   5.300   0.708  0.0217 -0.3896  0.1490
17441W        W33625  11.926   8.745  12.948  0.0425  0.0266 -0.1386
17442W        W33626   3.701  16.904  15.250 -0.0684 -0.1292  0.1304
17443W        W33627  14.350   9.198  11.662  0.0969 -0.1022  0.0223
17444W        W33628  11.935  12.928   3.909 -0.2885  0.0119  0.0613
17445W        W33629  13.207  14.646  15.097 -0.0970 -0.3263 -0.1428
17446W        W33630   0.185  15.886   1.547 -0.1535  0.0382 -0.1898
17447W        W33631  14.947  11.409   4.101  0.0428  0.2106 -0.0334
17448W        W33632   0.673  14.123   4.324  0.1012  0.3204  0.3579
17449W        W33633   3.578  11.758  15.630 -0.2076  0.0297 -0.0464
17450W        W33634  14.189   9.324   4.897 -0.4063 -0.3662  0.0996
17451W        W33635  16.991  10.147  15.999  0.1200  0.1633  0.2332
17452W        W33636   3.722  12.165  13.634  0.0319  0.0699 -0.3445
17453W        W33637  13.303  13.225  12.655 -0.3459 -0.0141 -0.1669
17454W        W33638  17.732   7.069  12.612  0.0156 -0.0063 -0.2672
17455W        W33639  10.293  15.658  15.719 -0.1413  0.3657 -0.0893
17456W        W33640   8.366   1.426   6.316  0.3266  0.0140 -0.2633
17457W        W33641   6.061  10.351   4.384  0.1722  0.0515 -0.0492
17458W        W33642   5.327   7.447   0.546 -0.0153  0.1395 -0.2716
17459W        W33643  17.199  11.244  11.754 -0.0708 -0.0959 -0.0558
17460W        W33644   7.912   4.461   1.252 -0.0117  0.1596  0.1820
17461W        W33645   4.227  16.118   2.300 -0.2758  0.0300  0.2982
17462W        W33646   7.326   9.908  16.016 -0.2022 -0.2339 -0.1330
17463W        W33647   9.491  15.378  10.725 -0.0444  0.0455 -0.2460
17464W        W33648  14.137  16.473   3.952  0.2016  0.2311 -0.1488
17465W        W33649  11.627  11.262  13.141  0.0933 -0.2405  0.3785
17466W        W33650  15.467   3.782   1.661  0.2616 -0.0831 -0.3384
17467W        W33651  11.029   5.822   5.344  0.4132 -0.1360  0.0331
17468W        W33652  14.451   6.365   4.018 -0.2865  0.2620 -0.0858
17469W        W33653   4.128  12.540   0.565  0.1760 -0.0841  0.0093
17470W        W33654   5.319   7.780   4.807 -0.1523 -0.2882 -0.1053
17471W        W33655  12.534   6.761  11.487  0.0720 -0.2302 -0.1100
17472W        W33656  11.213  17.672   1.815 -0.0834 -0.4192 -0.3304
17473W        W33657  11.498   0.235   1.048  0.1473  0.2277 -0.1387
17474W        W33658   3.430   0.612   4.276 -0.1849 -0.2952 -0.1795
17475W        W33659   5.042   7.544   4.450 -0.0990 -0.1479 -0.1046
17476W        W33660  12.452   1.442   1.874 -0.2487 -0.0091  0.0864
17477W        W33661  12.874  17.146  14.424 -0.1752  0.0035 -0.2800
17478W        W33662   0.603   0.333   2.394 -0.1852  0.3522  0.2772
17479W        W33663  16.237  15.835  14.873 -0.0255  0.2927  0.0293
17480W        W33664   9.354  12.424  15.358 -0.3169  0.2421  0.0006
17481W        W33665   9.015  17.269   3.726 -0.0421 -0.0896  0.0479
17482W        W33666  11.143  13.738   2.271  0.2226 -0.0696  0.1311
17483W        W33667  11.515   7.430  16.016  0.1833  0.2124 -0.2322
17484W        W33668  17.932   8.518  12.310  0.1901 -0.0356 -0.0212
17485W        W33669  11.193  15.000   0.094 -0.0887 -0.2492 -0.1875
17486W        W33670   3.832  15.949   5.743 -0.0448 -0.1760 -0.2733
17487W        W33671   0.027  16.251  16.251  0.0819  0.1041  0.0028
17488W        W33672   0.202   8.520   3.441  0.0639 -0.3793  0.1010
17489W        W33673   1.978   6.442   3.877 -0.0901 -0.0804 -0.0791
17490W        W33674  13.028   5.098   4.388  0.2493 -0.2687 -0.1019
17491W        W33675   7.458   8.954   4.481  0.0776  0.0201 -0.1440
17492W        W33676  10.209   2.570   0.655 -0.0832 -0.1664 -0.0799
17493W        W33677   9.947   3.984   1.937  0.0012  0.1234  0.4893
17494W        W33678  12.205   8.746  15.254  0.1480  0.1432  0.1513
17495W        W33679   8.659  13.374   1.597  0.1840  0.2524  0.0643
17496W        W33680   6.506  17.648  11.477  0.2807  0.0100 -0.2275
17497W        W33681   4.093  13.240   1.751 -0.1965  0.1043  0.3536
17498W        W33682  16.163  14.735  16.183  0.2727 -0.0141  0.0345
17499W        W33683   4.873  11.022   2.394  0.0786  0.0678  0.2410
17500W        W33684  15.049   0.990  14.326  0.1412 -0.0180  0.0661
17501W        W33685   0.289   5.390   2.993 -0.1909 -0.4003  0.1743
17502W        W33686  10.123   1.465  14.938 -0.0535  0.1486  0.0459
17503W        W33687  10.955   2.958  15.322 -0.1816 -0.1440 -0.3129
17504W        W33688  11.369  15.943   3.694 -0.0206  0.1164  0.0946
17505W        W33689   2.533   2.276   2.671  0.1822 -0.0881  0.1585
17506W        W33690   5.982  10.601   4.860 -0.2841  0.1616  0.0285
17507W        W33691  10.549  14.030  13.249 -0.2053  0.2444  0.0170
17508W        W33692   4.682   9.860   0.568  0.1949 -0.0975  0.2196
17509W        W33693  13.466  15.739   0.869 -0.2231  0.2689 -0.2125
17510W        W33694  12.458   6.663   0.135 -0.1660  0.2393  0.0359
17511W        W33695   3.360  11.029   1.749  0.2350  0.0192 -0.0750
17512W        W33696   7.527  15.008  13.135 -0.0507  0.1731 -0.1267
17513W        W33697   5.298   1.923  15.892  0.3636  0.2779  0.4472
17514W        W33698  14.546   5.806   3.934  0.2051  0.1734 -0.0069
17515W        W33699   3.954   0.564   3.511  0.2635  0.2281 -0.0814
17516W        W33700   8.411   6.774  13.576 -0.2200 -0.0756  0.0722
17517W        W33701  12.957  14.783   1.921  0.0208 -0.0762 -0.1486
17518W        W33702  16.627  12.079  11.613 -0.0593 -0.0469 -0.1513
17519W        W33703   8.109  13.990   3.479  0.3391 -0.2400 -0.1214
17520W        W33704   7.581   3.524   0.519  0.4274  0.0252  0.1866
17521W        W33705   5.560   3.635  12.809 -0.2135  0.2983  0.0625
17522W        W33706   9.039   8.733  12.431 -0.0043  0.0068 -0.0893
17523W        W33707  11.900   8.699   2.883  0.0779 -0.1949  0.2670
17524W        W33708   0.410  16.434  12.278 -0.0985  0.3845  0.0969
17525W        W33709  11.487   6.107  14.280  0.0010  0.1750 -0.0400
17526W        W33710   8.456  11.480  11.670  0.0593 -0.3081  0.0291
17527W        W33711   4.767  16.633  12.090  0.1111  0.3320  0.1721
17528W        W33712  11.442   2.510   3.776  0.0254  0.0997 -0.0938
17529W        W33713   4.360   0.114   0.682 -0.0880 -0.0716 -0.5209
17530W        W33714  16.861   7.553  13.049 -0.1651 -0.1103 -0.3279
17531W        W33715  11.675   0.963  16.176  0.1277  0.1117  0.0962
17532W        W33716   1.515  11.726   3.019  0.0980 -0.3159  0.2352
17533W        W33717   5.024   7.093   3.216  0.0400 -0.1459 -0.0125
17534W        W33718  10.897  15.389   2.450  0.0504 -0.0570 -0.0086
17535W        W33719  15.625   2.175  12.230  0.2654 -0.1017  0.0116
17536W        W33720   1.839  12.148   1.495 -0.1422  0.3126  0.1835
17537W        W33721   9.385   7.221  14.294  0.1455  0.0936 -0.0499
17538W        W33722  14.200   2.581  14.027 -0.3732 -0.0515 -0.0929
17539W        W33723  14.516   4.756  16.330  0.0222  0.1340 -0.2238
17540W        W33724   3.647   5.780  16.356 -0.3491 -0.0760 -0.3151
17541W        W33725  10.981  12.130  12.272  0.1126  0.2057  0.3239
17542W        W33726  16.563  15.376   4.315  0.0689 -0.0293  0.2489
17543W        W33727   3.380   7.641   3.537  0.0725  0.1062  0.0695
17544W        W33728   8.109  13.008  13.281 -0.0590  0.3029  0.2253
17545W        W33729  14.612   2.258  14.437  0.1418  0.1424  0.0128
17546W        W33730   2.546  15.953  10.984  0.1979 -0.1380 -0.0842
17547W        W33731   8.988   5.211   4.944 -0.0144  0.1098  0.0099
17548W        W33732  13.087   3.084  15.652  0.2647  0.1912 -0.0776
17549W        W33733   6.114   1.036  13.588  0.1048 -0.1722 -0.1823
17550W        W33734  12.810   4.037   2.988 -0.2128  0.0054 -0.0772
17551W        W33735  14.706   8.013   1.513  0.1111 -0.1227  0.1119
17552W        W33736  16.012  10.956  14.842  0.4762 -0.0899  0.0470
17553W        W33737   6.307   1.790   3.224 -0.1769 -0.3086 -0.0872
17554W        W33738  15.167  15.006   4.788 -0.0207  0.0284 -0.1340
17555W        W33739   3.227   6.485  14.153  0.2354  0.0486  0.0427
17556W        W33740   2.479  13.519   4.875  0.0448  0.2513 -0.2400
17557W        W33741   5.081  16.553   0.236 -0.0407 -0.2030  0.0435
17558W        W33742  15.806  16.766  16.198 -0.0605 -0.0558 -0.1070
17559W        W33743   6.116  10.829   4.139 -0.1477 -0.0526 -0.0118
17560W        W33744  14.159   6.025   4.231  0.1510  0.1543 -0.0590
17561W        W33745   0.531   3.386  13.565  0.1102 -0.1669  0.0324
17562W        W33746  13.508   8.853  13.627 -0.2221  0.2300  0.2598
17563W        W33747  12.834  15.677   1.979 -0.4106  0.2822  0.2521
17564W        W33748  12.317  16.894   5.556  0.0868  0.1259  0.0244
17565W        W33749  16.753  12.120  12.557  0.0877 -0.4782  0.0403
17566W        W33750   3.142   6.196   2.534 -0.1578  0.0372  0.2497
17567W        W33751   3.330   3.997   3.071  0.2594  0.1428  0.2831
17568W        W33752   9.248  11.726   4.049  0.0108  0.1642 -0.0169
17569W        W33753   3.174  10.038   3.620 -0.0000 -0.2876  0.1675
17570W        W33754  10.623   9.965   1.492 -0.0561 -0.0035 -0.0712
17571W        W33755  17.204  16.279  12.749 -0.0712  0.3847 -0.2405
17572W        W33756  16.078   6.154   4.227  0.5390  0.2651 -0.0028
17573W        W33757   1.815   1.385   5.675 -0.2670 -0.1670  0.2855
17574W        W33758   4.966   7.965  16.437 -0.0114 -0.2629 -0.2658
17575W        W33759   9.778  10.641  15.670 -0.2234  0.0726 -0.0572
17576W        W33760  12.536  16.812   0.319  0.1640  0.0468  0.3557
17577W        W33761  16.748   6.942  15.400 -0.2718 -0.2462  0.1723
17578W        W33762   8.484   6.433  14.800 -0.1141 -0.1210  0.1824
17579W        W33763   1.818   9.301  14.638 -0.1619 -0.2313 -0.0002
17580W        W33764   3.946   3.963  14.902  0.1949 -0.0384 -0.0873
17581W        W33765  10.593   0.786   4.439  0.0756 -0.0318 -0.1921
17582W        W33766   5.909   9.803   4.470 -0.2485 -0.0657  0.0734
17583W        W33767  11.238   2.665  14.956  0.1451  0.0410 -0.2034
17584W        W33768   3.565   1.047  14.736  0.0171 -0.0016 -0.1306
17585W        W33769   8.575  12.773   0.844  0.1665  0.1856  0.0710
17586W        W33770  11.210  13.332   5.642  0.0710  0.1581 -0.1348
17587W        W33771   6.198   0.228   5.455 -0.1818  0.3211  0.0095
17588W        W33772  14.248  10.720   5.027 -0.3209 -0.1124 -0.0614
17589W        W33773  13.586  16.351  16.162  0.1402 -0.1840 -0.3025
17590W        W33774   4.146  15.810   1.923 -0.1557  0.1425  0.0151
17591W        W33775  12.722   0.088  13.915  0.1905 -0.0740 -0.0367
17592W        W33776  16.928   0.082   1.038 -0.0351  0.0572 -0.0320
17593W        W33777   2.080   8.010  16.313 -0.0712 -0.2059 -0.1291
17594W        W33778   6.282   9.042   5.101 -0.0660  0.0067 -0.0748
17595W        W33779   5.062  15.247  14.092 -0.0682  0.0115 -0.0216
17596W        W33780   4.706   8.192   1.201  0.0349 -0.0246 -0.1501
17597W        W33781  11.493  13.428   5.187  0.0784  0.3062 -0.1791
17598W        W33782   3.727  11.810  13.269  0.0509  0.1267  0.1412
17599W        W33783  11.814   6.410  12.645  0.4482  0.1064  0.0008
17600W        W33784   7.916  15.023   1.912 -0.1033 -0.0310  0.1679
17601W        W33785   1.674  14.594   4.114 -0.0706  0.2244 -0.2323
17602W        W33786   7.448  11.291   1.250 -0.1314  0.0667  0.1559
17603W        W33787  14.004   4.957   0.990 -0.2291  0.2028 -0.0102
17604W        W33788  13.663   9.185   1.898 -0.3646  0.2607  0.2818
17605W        W33789   4.860  13.911  15.860  0.3745 -0.3812 -0.1246
17606W        W33790  13.286   0.470  12.880 -0.0843  0.2522 -0.0617
17607W        W33791   8.842   0.498  13.192  0.4002  0.2173 -0.2167
17608W        W33792  15.679   1.047  12.292  0.0084 -0.0686 -0.0693
17609W        W33793  15.944   6.145  11.683  0.2700 -0.0076  0.0953
17610W        W33794   1.251  15.629  12.773  0.0619  0.1339  0.1331
17611W        W33795   4.417   4.883  13.932  0.0476  0.4666 -0.0702
17612W        W33796   3.129   9.853   1.985  0.0544  0.3787  0.1908
17613W        W33797   9.309   9.401  16.015  0.2297 -0.0303  0.1452
17614W        W33798  12.667   1.972  12.349 -0.0510  0.1586  0.1329
17615W        W33799   9.237  12.811   4.099  0.1095  0.2208 -0.0652
17616W        W33800  14.997   0.358  13.151  0.0626  0.0627  0.0452
17617W        W33801   4.102  13.405   0.038  0.0648 -0.3291  0.1901
17618W        W33802   0.974   6.857   1.958  0.0866  0.1470  0.2297
17619W        W33803   3.035   0.476   0.856 -0.0726  0.0689 -0.2499
17620W        W33804   3.971  12.388  14.174 -0.0597 -0.1479 -0.3117
17621W        W33805  12.245   5.850  13.304 -0.2388  0.0384  0.0469
17622W        W33806  17.968   0.179  13.664  0.0988  0.0619  0.2900
17623W        W33807   4.146   7.175   1.346 -0.2179 -0.1128 -0.0231
17624W        W33808  14.432   6.555   5.019  0.0576  0.0099  0.1986
17625W        W33809  15.619   5.635  13.757 -0.0444 -0.2229 -0.0829
17626W        W33810  17.315  16.431  13.217 -0.0320 -0.1701 -0.0105
17627W        W33811   4.469   5.520   1.025  0.1396 -0.1364  0.1136
17628W        W33812  11.845   3.607   5.891  0.2117  0.2266  0.2119
17629W        W33813  13.898   4.029   0.557  0.0349 -0.2098 -0.0688
17630W        W33814   7.438  16.075   4.038 -0.0202 -0.4706  0.0884
17631W        W33815   3.940   7.805   1.354 -0.0839 -0.0752 -0.0675
17632W        W33816   0.685   7.807   1.154  0.3109 -0.2360  0.0553
17633W        W33817   6.642   2.644  12.281 -0.0163 -0.3125 -0.0740
17634W        W33818   9.546  11.843  12.379 -0.1452  0.0960  0.3683
17635W        W33819   2.589   9.872  10.791 -0.1800 -0.1000  0.1367
17636W        W33820  12.198   9.057  13.339  0.0387 -0.2634  0.3573
17637W        W33821  17.116   6.970  15.718 -0.0072  0.0135 -0.2199
17638W        W33822  10.458  11.335   1.510  0.3687 -0.1227 -0.0283
17639W        W33823  12.785   7.297  14.230 -0.1751 -0.1807 -0.2846
17640W        W33824   0.914   1.324   4.401 -0.0215 -0.0933  0.2701
17641W        W33825  17.869  10.036  11.107 -0.1391  0.0658 -0.1037
17642W        W33826   0.711   4.141  16.361 -0.2281 -0.1764 -0.2049
17643W        W33827   8.159  16.239  14.114 -0.2117 -0.0532  0.0633
17644W        W33828  15.927   0.495  13.250  0.0864 -0.1211  0.0755
17645W        W33829  17.701   5.739   4.282 -0.2699  0.1000 -0.3301
17646W        W33830   4.338  12.266   3.121  0.0129 -0.0066  0.0327
17647W        W33831   2.512  14.880   0.916 -0.2921 -0.0791 -0.1610
17648W        W33832  10.217   3.979  14.673 -0.4509  0.0574  0.1075
17649W        W33833   2.582   3.725   0.024 -0.2218  0.1959  0.1399
17650W        W33834  10.220   0.888   1.635 -0.0006  0.0693  0.1783
17651W        W33835  17.759   3.251   2.781 -0.0469 -0.0395 -0.1999
17652W        W33836  17.282   7.891   5.210 -0.2292  0.0600 -0.2385
17653W        W33837  12.226  14.642  15.510  0.2190  0.3766 -0.2516
17654W        W33838  15.083  14.294  12.191 -0.3337  0.1093 -0.0759
17655W        W33839  15.381  10.281   3.541  0.1329 -0.1483  0.1270
17656W        W33840   1.597   6.146   2.932  0.0524  0.1372 -0.0634
17657W        W33841   2.478   5.226   4.581 -0.1264 -0.0513  0.1794
17658W        W33842  11.709   3.839   3.277 -0.1357 -0.2832 -0.0613
17659W        W33843   6.000   7.748   0.367 -0.1650 -0.1393 -0.1640
17660W        W33844   1.207  10.403  12.217 -0.0820 -0.0453  0.1609
17661W        W33845  17.753  15.504   2.998  0.0900 -0.0876 -0.1747
17662W        W33846   6.945   4.669   1.434 -0.1223  0.2567  0.1441
17663W        W33847  13.016  17.577   2.733  0.1542 -0.0385  0.2375
17664W        W33848  12.939  15.495   0.172  0.4251  0.1686 -0.1082
17665W        W33849  17.890   4.216  12.063 -0.1288 -0.1709  0.0242
17666W        W33850   9.062   3.253  12.418  0.0907 -0.0767 -0.2413
17667W        W33851  10.514  16.299   2.032  0.3934  0.3878 -0.0304
17668W        W33852   8.283  14.372  14.082  0.2206  0.1207 -0.0196
17669W        W33853  17.165  13.576   1.923  0.0253  0.1374  0.0286
17670W        W33854  16.552  11.652   4.527  0.0551  0.0507  0.1074
17671W        W33855  13.513   0.752  11.683  0.3907 -0.2938 -0.4583
17672W        W33856   3.402   2.030  14.572  0.3095  0.1555  0.0123
17673W        W33857  15.985   1.398   4.119 -0.3746  0.1961  0.1643
17674W        W33858  15.366  14.179   4.205 -0.2271 -0.1031 -0.1648
17675W        W33859  16.685  16.167  14.749  0.4984 -0.1585  0.1602
17676W        W33860   5.587  12.049   2.878  0.1435  0.0837  0.0843
17677W        W33861   1.888  14.292   0.739  0.1829 -0.0145 -0.3210
17678W        W33862   1.020  16.531  15.318 -0.5362  0.1165 -0.2692
17679W        W33863   7.697   2.694   5.714  0.0693 -0.4734  0.1414
17680W        W33864   9.915   9.441   0.712 -0.0799 -0.1416 -0.0387
17681W        W33865  15.493  11.254  13.899 -0.2877  0.2713 -0.0562
17682W        W33866   8.313  11.198   3.547 -0.1803  0.1053  0.1446
17683W        W33867   8.136   6.596   2.645 -0.1898 -0.1582 -0.1092
17684W        W33868  11.066   7.407  13.683  0.3014 -0.3506  0.0307
17685W        W33869   7.446  16.790  15.452  0.1314  0.1750 -0.0906
17686W        W33870  11.511   1.234  10.906  0.0737 -0.0570  0.1248
17687W        W33871   3.250   6.680  13.744 -0.1999  0.0097  0.0484
17688W        W33872   5.876   5.220  12.979  0.0673 -0.1903 -0.0525
17689W        W33873   2.008   0.539  16.258  0.0311 -0.0023  0.1557
17690W        W33874   9.389   4.200  14.779  0.0007  0.3998 -0.2175
17691W        W33875  16.017   6.000   2.362  0.0496  0.0706 -0.0259
17692W        W33876  14.547  10.191  13.562 -0.0752  0.0322  0.1581
17693W        W33877   5.698  13.848   1.373  0.0707  0.0637  0.3614
17694W        W33878   1.613  17.734   4.275  0.0973 -0.0203 -0.1669
17695W        W33879   6.179   8.092  13.239  0.2487  0.0360  0.0504
17696W        W33880  15.729  16.967   1.930 -0.1538 -0.0395 -0.1363
17697W        W33881  14.281  16.026   2.600  0.1716 -0.3766  0.2284
17698W        W33882  16.879  14.522  10.952  0.0457 -0.1025 -0.0334
17699W        W33883  17.871   0.104  15.522  0.0940 -0.0216 -0.1990
17700W        W33884  11.954   4.380   3.149 -0.0146 -0.2999  0.0871
17701W        W33885  15.554  10.945   1.934 -0.0751  0.3680  0.1964
17702W        W33886   0.673   7.435   5.532  0.1997 -0.1650 -0.0493
17703W        W33887   9.705   4.261   3.130  0.1288  0.2483 -0.1200
17704W        W33888   8.742  13.868  11.494  0.1474 -0.1192  0.0820
17705W        W33889   0.522   4.967   4.376  0.0370 -0.0197  0.0040
17706W        W33890   9.468  15.667  14.576 -0.1355 -0.0161 -0.1225
17707W        W33891  15.161  12.537   2.402  0.0906 -0.0375  0.0507
17708W        W33892   6.579   1.359  12.295 -0.0943 -0.0774 -0.0302
17709W        W33893  17.867   8.822   4.942 -0.0300 -0.2216  0.0592
17710W        W33894   7.615  13.719  15.353  0.1882  0.2033  0.0698
17711W        W33895  14.599   5.937   4.457  0.0365  0.0057  0.0441
17712W        W33896   9.939  14.624   5.179  0.0985  0.0488  0.0693
17713W        W33897  14.830  12.715   0.780 -0.0017  0.0155 -0.3038
17714W        W33898   1.234   2.238  12.669 -0.1172 -0.1472 -0.0680
17715W        W33899   5.872  12.214  13.763  0.0404  0.2052 -0.0949
17716W        W33900  15.431   2.615  11.512  0.2858 -0.2580 -0.2390
17717W        W33901   2.344  17.815   3.196 -0.0955  0.2969  0.2056
17718W        W33902  15.926  17.574   0.840  0.2293  0.1018  0.0349
17719W        W33903   7.414   0.551  15.835 -0.0601  0.2389 -0.0035
17720W        W33904   1.187  12.872  10.409  0.1464 -0.1097  0.0695
17721W        W33905   4.237   0.751   3.965  0.1681  0.3169 -0.0250
17722W        W33906  16.079   4.237  13.693 -0.0308 -0.1932  0.2295
17723W        W33907  17.986   4.348  11.537 -0.0569 -0.2730  0.2388
17724W        W33908  10.041   1.553  12.301 -0.2130  0.0134 -0.5116
17725W        W33909   9.629  17.483  14.821  0.3493 -0.1185  0.1368
17726W        W33910  13.519   2.673   3.814  0.0568 -0.1482  0.1281
17727W        W33911  12.898   2.617  12.471  0.1011 -0.0141  0.2555
17728W        W33912  10.018   2.929   2.595 -0.0076  0.0505  0.2210
17729W        W33913  13.024  13.169  16.670  0.0263 -0.0699  0.0055
17730W        W33914   4.560   2.443   3.763  0.0201 -0.1068 -0.2096
17731W        W33915  15.550  15.502  14.272 -0.1571  0.0018  0.0045
17732W        W33916  16.124   1.078  11.110 -0.3517  0.0848 -0.0646
17733W        W33917   0.803   1.255   1.967 -0.0999 -0.0174 -0.0272
17734W        W33918  16.238  11.364   0.488 -0.1422  0.0199 -0.1198
17735W        W33919   7.935   3.590   1.070  0.4050  0.2364 -0.2107
17736W        W33920  16.012  10.409  12.826  0.2533 -0.0748  0.0991
17737W        W33921   6.838  15.517   3.977  0.1039  0.0624 -0.2024
17738W        W33922   4.445   6.366   0.547  0.1281 -0.2693  0.2457
17739W        W33923   9.324  16.359   1.272  0.0609  0.1392  0.1604
17740W        W33924  11.651   0.229  11.197  0.0972 -0.0211  0.0443
17741W        W33925   6.476  15.289   1.804 -0.1324 -0.0698  0.0633
17742W        W33926  12.124  13.084  15.511  0.1154  0.3381 -0.2147
17743W        W33927   5.395   5.485  15.139 -0.0504  0.0162 -0.1569
17744W        W33928  12.937   2.176   5.914  0.1351  0.2025 -0.3123
17745W        W33929  17.479  13.803  12.732  0.2159  0.1135 -0.0583
17746W        W33930  15.514  17.541   2.138  0.0856 -0.0456  0.2782
17747W        W33931   4.132  12.278   4.656  0.0914 -0.1267  0.3121
17748W        W33932  16.966   7.450   1.745  0.1494  0.1078  0.1471
17749W        W33933  17.119   1.863   0.830  0.0540 -0.3505  0.5410
17750W        W33934  12.976   9.573   1.004  0.1817  0.0574 -0.0130
17751W        W33935   0.265   3.189  14.353  0.1785 -0.2355  0.1050
17752W        W33936  13.189  15.009   1.541 -0.0807  0.0795  0.1598
17753W        W33937  13.360   0.146   0.706  0.0253 -0.0861  0.2692
17754W        W33938  15.410   6.805  12.000 -0.1243 -0.0162 -0.1240
17755W        W33939  16.751   4.539  15.255  0.0075 -0.2096  0.2082
17756W        W33940   4.894  11.003  15.209 -0.2217  0.2556 -0.3525
17757W        W33941   0.995   3.083   1.272 -0.1697  0.0183 -0.0964
17758W        W33942   0.695  17.683  11.990 -0.2880 -0.0806 -0.1410
17759W        W33943   6.222   1.966   4.161 -0.0615 -0.0173  0.1795
17760W        W33944  15.854  15.491   2.713 -0.1571  0.1182 -0.3484
17761W        W33945   0.118   6.989  11.910  0.0129  0.1431  0.1114
17762W        W33946  15.262  16.853  15.871  0.0974  0.2252  0.3196
17763W        W33947  12.081  10.447  15.368 -0.1523  0.1975 -0.0078
17764W        W33948   3.144   5.664  16.308  0.0382 -0.2142  0.2407
17765W        W33949   8.997   1.999   1.365 -0.1265  0.1495  0.0719
17766W        W33950  16.854   7.046   4.806  0.0435 -0.0754  0.0363
17767W        W33951  15.940   4.504  15.948  0.1834  0.2891 -0.2147
17768W        W33952   0.147   1.326  15.516 -0.3215  0.2044  0.0273
17769W        W33953  15.831   6.961   2.283  0.0172  0.0233  0.0148
17770W        W33954   7.758   6.903  14.101 -0.2698 -0.1678  0.1025
17771W        W33955  16.734  17.394  16.065  0.1085  0.0697 -0.0924
17772W        W33956  15.139  15.033  13.504 -0.0175  0.2626  0.2147
17773W        W33957   3.899   1.985   5.023  0.0263  0.1879 -0.1094
17774W        W33958   9.598  12.737   3.316  0.0492 -0.1603 -0.1027
17775W        W33959  12.321   4.142   2.808  0.2818  0.0222  0.0177
17776W        W33960   0.715   6.223   1.073 -0.1688 -0.0706  0.2104
17777W        W33961   5.056   9.744  15.941 -0.1358  0.0388  0.2193
17778W        W33962   5.638   6.286   4.921  0.0717  0.0474 -0.1341
17779W        W33963  13.004   7.635  11.256 -0.0788 -0.1523 -0.0635
17780W        W33964  13.142   7.555   1.074 -0.0896  0.0757 -0.0871
17781W        W33965   2.095  15.298  16.231 -0.1270  0.0168 -0.3030
17782W        W33966   7.654  13.961   2.875  0.3732 -0.0545  0.1287
17783W        W33967   0.050   3.691  12.998 -0.0931  0.0108  0.1632
17784W        W33968   8.691  15.599  13.910 -0.1301  0.0973  0.2067
17785W        W33969   6.953  12.190  13.544  0.5257 -0.2580 -0.4900
17786W        W33970  17.427  10.068  14.724  0.1328 -0.2201  0.1902
17787W        W33971  16.239   3.567   1.169  0.1263  0.0564  0.0382
17788W        W33972   7.390  13.365  15.693  0.1326 -0.4258  0.3751
17789W        W33973   1.969   4.743  12.818  0.0173  0.1478  0.1106
17790W        W33974   0.546   2.816  13.062 -0.0314 -0.0260 -0.0473
17791W        W33975   3.799   5.819  13.097  0.1302  0.1117  0.1389
17792W        W33976  13.347  15.129  12.884  0.1546  0.0966 -0.0106
17793W        W33977   8.304   7.163   0.940  0.2622  0.1446 -0.1123
17794W        W33978   6.369   7.901   3.980  0.1497 -0.0663 -0.3401
17795W        W33979  11.038   7.426   1.911  0.0205  0.0029 -0.0922
17796W        W33980   8.505   4.972  15.532 -0.1316  0.3216  0.0721
17797W        W33981   4.757   6.194   0.160  0.1922  0.0812 -0.0330
17798W        W33982  17.646   3.711   3.737  0.3078  0.1606  0.3506
17799W        W33983   0.554  10.982   4.420 -0.0011  0.0010 -0.2788
17800W        W33984   9.611   7.580   5.043  0.1646  0.1817  0.4197
17801W        W33985   6.690   9.898  12.166 -0.0894 -0.1129 -0.3024
17802W        W33986  14.658  14.956  11.081 -0.0823  0.0458 -0.1046
17803W        W33987   9.336   6.961  12.161 -0.0393  0.1142 -0.1008
17804W        W33988   7.718  15.573   4.232 -0.1142 -0.2109 -0.1539
17805W        W33989  12.478   3.296   0.936 -0.0434  0.0848  0.0765
17806W        W33990  13.047  15.566  13.773 -0.4056  0.1053 -0.2317
17807W        W33991   2.951  14.108   4.734 -0.1363  0.0139  0.0923
17808W        W33992   9.182  17.110   0.571 -0.1085  0.0350  0.3084
17809W        W33993  12.239  17.522   2.925  0.1745 -0.0063  0.0431
17810W        W33994   3.422   8.257   4.257 -0.3409 -0.0933 -0.1315
17811W        W33995   2.843   0.059   2.540  0.2711 -0.0061 -0.0587
17812W        W33996   4.854   6.302  15.891 -0.1793 -0.1781 -0.4379
17813W        W33997  14.978   3.371  14.759 -0.0133 -0.2397 -0.2526
17814W        W33998   5.850  12.255   1.467 -0.1265 -0.0972  0.2038
17815W        W33999   1.135  17.996  11.212 -0.2000 -0.1132  0.3821
17816W        W34000   8.226   7.357   5.801  0.5086  0.0403  0.3009
17817W        W34001   3.574  11.612   2.569 -0.0077  0.1937  0.0832
17818W        W34002   5.129   1.520  13.316 -0.0293 -0.2445  0.0918
17819W        W34003   1.483  15.502   4.888 -0.2004  0.1176 -0.3603
17820W        W34004  15.888   3.689   3.692  0.3173 -0.1675  0.2186
17821W        W34005  16.637  12.498  15.573  0.0675 -0.0655 -0.0659
17822W        W34006   8.271   2.727   1.287 -0.0205  0.2120 -0.1702
17823W        W34007  13.716   6.278   2.826 -0.1894  0.0259  0.2109
17824W        W34008   8.463   3.561   0.896 -0.0397 -0.1550  0.0612
17825W        W34009  16.455   2.930  15.384  0.1409 -0.0734 -0.2306
17826W        W34010   3.763  14.696  11.973 -0.2560 -0.0041 -0.0497
17827W        W34011   9.166   1.508   5.854  0.0442  0.0446  0.1481
17828W        W34012   2.086  14.475  13.875 -0.0366 -0.1180 -0.2145
17829W        W34013  10.814  14.359  14.823  0.0250  0.0517 -0.1121
17830W        W34014   8.711   4.454  13.631 -0.0241  0.2742 -0.4052
17831W        W34015   9.230  13.966   4.821  0.4588 -0.3896 -0.0725
17832W        W34016   4.977  16.768  13.898 -0.0303 -0.1080  0.2036
17833W        W34017   9.662  13.430  15.997  0.0967  0.0751  0.1361
17834W        W34018  15.196  11.306   2.935  0.0081  0.1093  0.3468
17835W        W34019  14.161  15.132   0.981  0.1948 -0.1041 -0.2160
17836W        W34020  14.063  13.143  16.330 -0.0827 -0.1213  0.0076
17837W        W34021  16.526   4.333   3.979  0.2475  0.0006 -0.1008
17838W        W34022   6.172   2.045   1.139 -0.0280  0.0426  0.1314
17839W        W34023   7.618   7.056   3.636 -0.0864 -0.2591  0.0731
17840W        W34024  17.196   2.935  16.696  0.2227  0.2668 -0.2526
17841W        W34025   8.089   3.288  11.260  0.0298 -0.3791  0.0845
17842W        W34026  16.997   5.296  13.450 -0.4067  0.2585  0.1258
17843W        W34027   4.206   7.027  12.802 -0.3612  0.2653 -0.0829
17844W        W34028  11.196   7.832   2.242 -0.1309 -0.0062 -0.2726
17845W        W34029  16.978  17.475  15.555 -0.0403  0.1261  0.2086
17846W        W34030  16.274   8.609  11.888  0.0255  0.0341 -0.0785
17847W        W34031   5.157   0.096   0.836 -0.1980  0.0935  0.1752
17848W        W34032  10.529  16.114   3.576  0.0336 -0.1782  0.2058
17849W        W34033  13.159   2.168  12.431  0.2986  0.2237  0.0806
17850W        W34034  11.013  14.223  11.591 -0.1360  0.0344  0.1286
17851W        W34035  11.769   0.696  14.694  0.0605  0.1060 -0.1184
17852W        W34036   0.998  11.874   4.298  0.0777 -0.0968 -0.0245
17853W        W34037   0.729   2.974  15.017 -0.2038 -0.1199  0.2295
17854W        W34038  11.645   8.583  12.537 -0.3531  0.0782  0.1647
17855W        W34039   7.825   7.293  13.104  0.0556 -0.0942  0.3932
17856W        W34040   0.799  17.793  13.965  0.0409  0.0279 -0.0351
17857W        W34041  16.458  12.035  14.715 -0.0964 -0.1779  0.2617
17858W        W34042   2.595   4.180   2.234 -0.1826 -0.3339 -0.0379
17859W        W34043  16.392  13.038  12.811  0.1513  0.2603 -0.0007
17860W        W34044   7.186  17.374   0.476 -0.4265 -0.1225 -0.0658
17861W        W34045   8.382   3.635  12.157 -0.1594  0.0931  0.1949
17862W        W34046  11.852   8.340  13.794 -0.1038  0.1942 -0.0064
17863W        W34047  11.484  17.257   3.651  0.0547 -0.2237 -0.0991
17864W        W34048   7.977   5.591   0.781 -0.2442  0.0096  0.0746
17865W        W34049  15.059   5.365  14.632  0.0241 -0.3945  0.1581
17866W        W34050   0.113   8.678   1.521 -0.0410 -0.2166  0.1172
17867W        W34051   0.342   9.675   3.645 -0.0950 -0.4113  0.1383
17868W        W34052   5.462  14.371   3.215 -0.2801  0.0622 -0.2523
17869W        W34053   8.954   5.702   3.797  0.1861 -0.2355  0.2040
17870W        W34054  17.798  15.701  11.175  0.1553  0.2883  0.1351
17871W        W34055   3.010  11.758   1.585  0.2416  0.1282  0.0851
17872W        W34056   8.607   6.198   5.779  0.1590  0.2190 -0.0812
17873W        W34057   4.921   9.327  13.359 -0.0529  0.0766  0.0073
17874W        W34058  15.685  11.187  15.863  0.0283  0.0411  0.3382
17875W        W34059   2.010  10.711   4.114 -0.2289  0.1580  0.5196
17876W        W34060  10.507   8.614   5.089 -0.1360 -0.1412 -0.0321
17877W        W34061   7.013  10.765  16.690  0.0580  0.1289 -0.1596
17878W        W34062   4.281   1.342   1.056 -0.1073 -0.0388 -0.0346
17879W        W34063  11.397  12.341   4.060  0.2626 -0.1949 -0.2834
17880W        W34064  15.053   2.032  15.719 -0.1158  0.1560 -0.0897
17881W        W34065  14.133   4.538   0.599 -0.0456  0.2412 -0.0985
17882W        W34066  16.792   8.450  13.164  0.0099 -0.0827 -0.0671
17883W        W34067  11.821   4.507  11.888 -0.1941  0.0193  0.2881
17884W        W34068   4.183  16.983   5.277  0.0374  0.3288  0.0446
17885W        W34069  17.248  11.482   0.374  0.2699  0.0028 -0.1157
17886W        W34070   6.414  12.167  14.610 -0.0196 -0.0999  0.0744
17887W        W34071   9.239  17.375   5.173 -0.0485 -0.0559  0.1401
17888W        W34072  12.022   0.641   3.766  0.0525  0.0547  0.0561
17889W        W34073   9.189   1.860  13.483  0.0056  0.1764 -0.2139
17890W        W34074  10.713   5.446  13.612 -0.1213  0.3786  0.1442
17891W        W34075  13.152  13.774  14.628 -0.0549  0.0141 -0.0232
17892W        W34076  16.047   6.884   4.636 -0.3232  0.0665  0.0075
17893W        W34077   1.570   5.503   0.412 -0.2950  0.1915 -0.0247
17894W        W34078  13.160   0.066  13.697 -0.1196  0.1746 -0.1434
17895W        W34079   9.873   8.237   2.093 -0.0044 -0.0672  0.0284
17896W        W34080  10.681   6.180   0.083  0.0911  0.1818 -0.1632
17897W        W34081   0.837   8.648   2.069 -0.2698 -0.1804 -0.2337
17898W        W34082  10.735   2.144  12.069 -0.2367  0.0566 -0.2094
17899W        W34083  10.189   7.698   4.094 -0.1182  0.3205 -0.1971
17900W        W34084   4.805   1.727   2.462  0.0306 -0.1754 -0.0341
17901W        W34085  14.719  17.104   5.075  0.1041 -0.0488 -0.0707
17902W        W34086  17.460   6.335   1.321  0.1023 -0.2202  0.0652
17903W        W34087   3.252   3.399   5.504  0.0813  0.0226  0.1137
17904W        W34088  15.751   9.047   0.496  0.0984 -0.2073  0.1452
17905W        W34089  15.593   6.625   3.988 -0.1154  0.0756  0.0203
17906W        W34090   3.209  17.352   0.702 -0.1748 -0.2407 -0.0284
17907W        W34091   9.536   8.288  12.298 -0.0180  0.1996  0.0046
17908W        W34092   0.283  15.359  16.051 -0.1385  0.0556 -0.2046
17909W        W34093   8.413   5.577   3.050  0.0369 -0.0607 -0.0414
17910W        W34094  11.160  13.223  14.343  0.0158 -0.3224 -0.0616
17911W        W34095   7.086  16.583   0.017  0.2299 -0.0537  0.0115
17912W        W34096   3.098  10.424  13.576 -0.2718 -0.2588  0.0467
17913W        W34097  11.399  15.569  15.287 -0.0963 -0.2028  0.1020
17914W        W34098   6.637  12.415   1.184 -0.2370 -0.0207 -0.0853
17915W        W34099   4.441   2.581   0.296  0.1229 -0.0187 -0.2527
17916W        W34100  17.672  17.750  13.435  0.0372  0.0563 -0.1628
17917W        W34101   8.863  11.351   2.568  0.0875  0.1334  0.0007
17918W        W34102  12.564   9.869  13.649 -0.0526  0.0535  0.1662
17919W        W34103   0.908   9.015   1.606  0.0579 -0.0990 -0.2798
17920W        W34104  10.863   9.319  11.411 -0.0824 -0.0213  0.0033
17921W        W34105   2.606   1.193   3.213  0.1528 -0.0416  0.1210
17922W        W34106  16.273  14.322   0.845  0.3919  0.0910 -0.0145
17923W        W34107  13.109  10.392   4.707  0.0592 -0.1682 -0.0124
17924W        W34108   6.484  12.825   0.478  0.1528 -0.1919 -0.1534
17925W        W34109   8.230   1.020   2.350 -0.1992  0.0340  0.0625
17926W        W34110  14.020   4.938  13.221 -0.0852  0.1117 -0.1335
17927W        W34111   4.726  15.982  14.527  0.0426 -0.1808  0.1912
17928W        W34112   8.228  15.825   0.198  0.1737  0.2962 -0.4402
17929W        W34113   2.243   0.669  12.190 -0.0961 -0.0035  0.0539
17930W        W34114  14.499  11.919   3.363 -0.0103 -0.1605  0.1155
17931W        W34115   3.737  10.722   5.949  0.0572  0.0004 -0.1075
17932W        W34116  15.620  10.162  14.387 -0.1983  0.1558 -0.0288
17933W        W34117   4.691   9.109   3.666 -0.0537  0.0577 -0.1834
17934W        W34118  11.312  10.559   0.539 -0.0236 -0.0735  0.3196
17935W        W34119  12.396   2.716   4.076 -0.1787 -0.2414 -0.4156
17936W        W34120  15.692   6.312  14.623 -0.3839  0.0763  0.1978
17937W        W34121   0.291   9.892   0.502 -0.0148 -0.0687 -0.0079
17938W        W34122   2.818   4.359   3.708  0.1879 -0.1598  0.0733
17939W        W34123  16.552   5.319   1.182  0.0250 -0.1878 -0.1288
17940W        W34124  12.546   0.723   0.755  0.0389  0.0077 -0.1876
17941W        W34125   9.184  10.971  15.239  0.0936 -0.1206 -0.1066
17942W        W34126   8.556  11.562   5.317 -0.0462  0.0378 -0.5885
17943W        W34127   0.612  12.886  12.588  0.0910  0.0184 -0.1666
17944W        W34128   5.717  15.797  12.144  0.1643  0.3124 -0.0884
17945W        W34129  15.274  12.162  12.392 -0.1234 -0.3214  0.0989
17946W        W34130  14.189  11.319  14.389  0.0784 -0.0559  0.0063
17947W        W34131   9.560  12.100  15.730 -0.1052  0.1581 -0.2490
17948W        W34132  12.449   7.306   3.890 -0.1020  0.0973 -0.0008
17949W        W34133   7.281  10.084  14.238 -0.2018  0.0335  0.0275
17950W        W34134  14.022  17.580  16.238  0.1249  0.1324  0.0710
17951W        W34135   0.240  11.068  11.892 -0.3321 -0.0403 -0.2255
17952W        W34136   3.047  12.913   1.155  0.4404  0.3456  0.0250
17953W        W34137  16.363  12.935  15.340 -0.1346  0.1315 -0.2429
17954W        W34138  13.599   5.143  14.307  0.1394  0.1243 -0.2412
17955W        W34139   6.105  10.990   0.452 -0.2931  0.0183 -0.3756
17956W        W34140  17.348  12.325   2.063  0.1020 -0.4036  0.0877
17957W        W34141   8.480   8.244   5.467 -0.0991 -0.1084 -0.1875
17958W        W34142   9.483   7.599  14.701  0.0304 -0.0705  0.1990
17959W        W34143  12.244  13.616  14.736  0.2942  0.1641  0.1993
17960W        W34144  15.027  12.308  11.912 -0.1719  0.0618  0.0634
17961W        W34145  13.485   2.844   4.738 -0.2965  0.0192  0.0978
17962W        W34146  16.421   7.254   3.318  0.0507 -0.0126 -0.2159
17963W        W34147   9.875   2.408  12.063 -0.0727 -0.1739  0.0017
17964W        W34148   6.940   9.690  10.631  0.3947 -0.3438  0.3077
17965W        W34149  12.997   5.550   0.360 -0.1932  0.1129 -0.0399
17966W        W34150   9.443  17.449  13.856 -0.1891 -0.0374  0.0642
17967W        W34151   5.168   6.073  16.517 -0.0303  0.1237 -0.3124
17968W        W34152  12.665  15.916   0.293 -0.2309  0.4446 -0.3026
17969W        W34153   9.282   0.083   2.268 -0.0281 -0.1214  0.1754
17970W        W34154  15.437   7.980  15.061 -0.1185  0.2350  0.2039
17971W        W34155   3.632  15.187  10.842 -0.0668  0.1747 -0.2819
17972W        W34156   1.444   0.907  12.365 -0.0188 -0.1028 -0.0458
17973W        W34157   5.404  16.181   0.449  0.0693  0.1141  0.1894
17974W        W34158  11.822  11.325   4.972 -0.2722  0.1461 -0.1288
17975W        W34159   7.323   5.914   5.183 -0.3608 -0.1961 -0.0121
17976W        W34160  11.749  16.461   1.414 -0.1792 -0.6270 -0.2746
17977W        W34161   1.454   3.740   3.360 -0.3304  0.2763 -0.2473
17978W        W34162  17.977   2.845   4.123 -0.1439 -0.2218  0.1541
17979W        W34163   1.579   7.416  13.568 -0.0551  0.1372  0.0378
17980W        W34164  15.285   5.721  13.317 -0.0364  0.0176  0.1152
17981W        W34165  16.802  11.149  13.298 -0.3855 -0.0415  0.3979
17982W        W34166   6.213  14.327   1.829  0.1959  0.1234 -0.1181
17983W        W34167  12.777   5.658  14.893  0.0778  0.0926  0.2791
17984W        W34168   5.081  15.106   3.421 -0.0992 -0.0676  0.1418
17985W        W34169   3.206   6.751   0.352  0.2240  0.0359 -0.1565
17986W        W34170  10.962   7.441   2.468 -0.1214  0.1061 -0.1551
17987W        W34171  16.574  12.291   3.119 -0.2189  0.0582  0.1703
17988W        W34172  17.380  17.395  13.034  0.1088  0.0280 -0.2036
17989W        W34173   1.421   2.566   3.075 -0.1242  0.1494  0.0371
17990W        W34174   9.715   1.739   3.001 -0.0576  0.0134  0.1391
17991W        W34175  16.440   2.934   4.340 -0.0705 -0.3910 -0.0603
17992W        W34176   3.138   0.817  15.889 -0.0606  0.0315  0.2094
17993W        W34177  16.793   9.738   1.291 -0.1186  0.0826  0.2092
17994W        W34178   0.334   5.220   4.784 -0.1524 -0.1024  0.1059
17995W        W34179   0.897  13.038   5.073  0.0505  0.1037  0.1346
17996W        W34180  11.351   2.171  16.352  0.0235 -0.1637  0.0259
17997W        W34181   3.401   3.423   1.801  0.1369  0.2474 -0.0660
17998W        W34182  17.518  13.186   0.257  0.4201  0.4290  0.2665
17999W        W34183  17.907  12.180  14.721 -0.1251 -0.0387 -0.5125
18000W        W34184   3.336   6.673   2.596  0.2532 -0.2057  0.3418
18001W        W34185  14.890   7.771   2.022  0.2105 -0.0463 -0.2881
18002W        W34186   1.278   7.210   6.322 -0.2828  0.0095  0.0041
18003W        W34187   0.811  15.049   5.701  0.1960 -0.0529 -0.0210
18004W        W34188  13.015  11.477  11.788  0.2866 -0.0044  0.2895
18005W        W34189  15.471   7.754  16.409  0.1000  0.0151 -0.0626
18006W        W34190   1.112  10.317  12.676  0.2899  0.2522  0.4367
18007W        W34191  12.995  14.511  13.873 -0.1669  0.0433  0.0364
18008W        W34192  12.239  16.586   4.674 -0.0880  0.0414 -0.0134
18009W        W34193   8.855  12.345   3.499 -0.2858  0.2049 -0.0296
18010W        W34194   3.443   1.401  16.434  0.0610 -0.1440  0.0794
18011W        W34195   0.663   9.395   3.974 -0.0579 -0.1311  0.1506
18012W        W34196   4.638  16.846   5.532 -0.0187  0.2957  0.2512
18013W        W34197  12.188  11.944  15.122  0.0535  0.1425 -0.3493
18014W        W34198  10.471  13.521   4.418 -0.0879 -0.1187  0.4774
18015W        W34199   1.222   6.257  12.292 -0.0651 -0.0228  0.1590
18016W        W34200   5.804   5.690  15.993 -0.0878  0.0827 -0.1802
18017W        W34201  15.106   5.984   0.149  0.0373 -0.2081  0.2637
18018W        W34202   5.317   4.036   1.124  0.1539 -0.0148  0.0837
18019W        W34203  14.843  15.498   4.601  0.0260  0.0549  0.2804
18020W        W34204  10.779   6.811   3.862  0.1723  0.0418 -0.1637
18021W        W34205  10.590  11.787   3.722 -0.0072 -0.1955  0.1312
18022W        W34206  11.909   8.986  14.275  0.0435  0.2868 -0.2217
18023W        W34207  15.273   8.035   2.710 -0.0461 -0.0245 -0.1786
18024W        W34208  12.119   5.721   3.236 -0.2079  0.2491  0.1059
18025W        W34209   9.469   0.859  14.307  0.4614  0.2240 -0.1527
18026W        W34210   6.711   2.358   2.484  0.2720 -0.0604 -0.2891
18027W        W34211   5.612  16.471  15.337  0.0381  0.0850  0.0895
18028W        W34212  17.037   0.022   3.182  0.2037 -0.1521  0.3522
18029W        W34213  14.147   1.468  13.902  0.2758 -0.3721 -0.1808
18030W        W34214  16.659   0.208   5.692 -0.1414  0.0710  0.0181
18031W        W34215   0.543  15.919   3.450  0.2433 -0.1008 -0.0098
18032W        W34216  13.635   3.773  12.628 -0.0846 -0.0002  0.0042
18033W        W34217   4.516  15.745   1.556  0.0810  0.2276 -0.1801
18034W        W34218  17.776  17.873   3.697  0.0378 -0.6080 -0.0333
18035W        W34219   9.715  13.237  16.450  0.2805  0.1048 -0.2406
18036W        W34220  14.916  15.090   1.495  0.4066 -0.0782  0.0529
18037W        W34221  13.404   9.639   2.576  0.1116 -0.1691  0.4313
18038W        W34222   3.711   9.096   2.411 -0.2707  0.3163  0.1371
18039W        W34223   3.743   2.886   2.034 -0.3462  0.0243 -0.0094
18040W        W34224  16.278   7.833  13.141 -0.2988  0.0572 -0.2507
18041W        W34225  17.950   4.639   5.503 -0.0003  0.0644  0.1714
18042W        W34226   7.990   6.372   4.976  0.1432 -0.0545  0.0955
18043W        W34227   2.303   4.801  13.785  0.0879  0.1570  0.0939
18044W        W34228  10.122  10.096   4.735 -0.0745  0.0743  0.1499
18045W        W34229  15.200   8.001   6.049 -0.0042 -0.2089  0.1491
18046W        W34230  16.347   0.645  11.382 -0.0752  0.2553 -0.1389
18047W        W34231   1.074   7.758   3.052  0.1313 -0.0208  0.0917
18048W        W34232  10.554   7.454  16.216 -0.1471  0.0335  0.1756
18049W        W34233  17.794   2.403   2.328 -0.0254 -0.0974  0.1381
18050W        W34234  12.711   5.711   2.498  0.1313  0.1519 -0.2284
18051W        W34235   3.680  13.233   2.035  0.2124  0.4432  0.1158
18052W        W34236  14.347   1.928  10.100  0.1239 -0.1685 -0.0744
18053W        W34237  16.751   3.689  15.507 -0.0509  0.1208  0.1564
18054W        W34238  12.087   8.209   4.636  0.2320 -0.3358  0.1120
18055W        W34239   3.050  15.205  14.067  0.4275  0.0738  0.0572
18056W        W34240   3.172   7.256  14.698  0.2391 -0.0546 -0.0495
18057W        W34241   2.178   4.698   0.172  0.0138  0.1401  0.0541
18058W        W34242   9.183   9.951   4.033  0.1980  0.4593 -0.1961
18059W        W34243   0.399   8.034  16.201  0.2151  0.0835 -0.3720
18060W        W34244  16.088   8.308   3.761 -0.0686 -0.0543 -0.1790
18061W        W34245   9.786   4.615   2.128 -0.0120 -0.2142  0.0459
18062W        W34246  12.143  10.333  12.940 -0.3907  0.0989 -0.0199
18063W        W34247  12.860   3.029   0.566  0.1536  0.1916 -0.2998
18064W        W34248  10.849   5.262  16.285 -0.0769  0.2162  0.0105
18065W        W34249  14.525   2.620   2.194 -0.0308 -0.2902 -0.5201
18066W        W34250   4.088   8.453   2.594 -0.1877  0.2932 -0.1716
18067W        W34251   0.183  13.995   4.547 -0.3504 -0.0699  0.2050
18068W        W34252  10.927   9.865   4.447  0.1495 -0.1353 -0.1900
18069W        W34253  13.210   4.848   2.506  0.2928 -0.1282 -0.0219
18070W        W34254  10.137  11.034  13.133 -0.0252 -0.1463 -0.2095
18071W        W34255   6.268   6.561   5.901  0.2619  0.0332  0.0138
18072W        W34256   9.438   7.111   5.351 -0.0131  0.0026  0.0229
18073W        W34257  17.450  14.439  12.287 -0.1981  0.0153 -0.0246
18074W        W34258  10.316   7.161  14.584  0.0307  0.0112 -0.0161
18075W        W34259   3.924  13.859   3.276 -0.1803  0.0180  0.0092
18076W        W34260   8.038  14.316  11.029 -0.0190  0.0051  0.0005
18077W        W34261   2.206   1.131   0.628 -0.0871  0.0227  0.0720
18078W        W34262   5.483   3.539  13.604  0.3025  0.2230 -0.1771
18079W        W34263   3.012   0.715  15.423  0.0134 -0.3092 -0.0010
18080W        W34264   4.150   9.313  12.129  0.0050 -0.2078  0.1127
18081W        W34265   8.058   0.244  15.012  0.2663  0.1103 -0.1767
18082W        W34266  12.684  10.630   3.815  0.1376  0.2140  0.0738
18083W        W34267   3.880  17.081   2.446  0.0585  0.3277 -0.1217
18084W        W34268   0.357   7.429   4.469 -0.0076  0.1593  0.2945
18085W        W34269   3.269  13.758   4.429  0.0290  0.1593  0.0862
18086W        W34270   5.491   2.507   0.307  0.0520 -0.2545 -0.0535
18087W        W34271  14.533   4.351   1.970 -0.1621 -0.0200  0.1798
18088W        W34272  17.302   7.393  11.598  0.1181 -0.2066  0.1429
18089W        W34273   2.532   8.068   4.405  0.1797  0.2937  0.1892
18090W        W34274   5.889  12.987  15.348  0.0784  0.3889 -0.0900
18091W        W34275  15.184   2.942  14.436  0.2353 -0.3264 -0.0169
18092W        W34276   5.238  12.984  16.027  0.2026  0.0888 -0.0468
18093W        W34277  17.757   8.974   5.417 -0.0242  0.0200  0.0703
18094W        W34278  14.456  13.283   1.308 -0.2233  0.0257 -0.3743
18095W        W34279   3.616   3.678   0.267 -0.2252  0.2262  0.0190
18096W        W34280  14.975   5.014   3.210  0.0332  0.0753 -0.0949
18097W        W34281   7.262   8.535  13.377  0.1529  0.0350 -0.0699
18098W        W34282   6.595   3.515  11.941 -0.1739 -0.0585 -0.0471
18099W        W34283  13.015   5.670  15.928  0.0652  0.0399  0.2919
18100W        W34284  14.786  15.855   1.021  0.2491  0.2535  0.1554
18101W        W34285   5.267   7.970  12.360  0.1622  0.1017  0.3731
18102W        W34286  13.521  15.626  11.392  0.2527 -0.0148 -0.0436
18103W        W34287   1.224   8.882   2.400  0.0034 -0.1215 -0.0607
18104W        W34288   0.268   9.910   5.282  0.1417 -0.0439 -0.1453
18105W        W34289   5.670  11.040  14.129  0.1472  0.1754  0.1727
18106W        W34290   7.320  17.121  15.764 -0.4814 -0.0093  0.0214
18107W        W34291   2.837   7.168   1.547  0.1466  0.2867  0.2605
18108W        W34292  13.240  13.802   3.836 -0.0481 -0.0476 -0.1419
18109W        W34293   7.927   2.880   2.602  0.0261 -0.1002  0.1273
18110W        W34294  14.512   3.512   3.212 -0.0633  0.3308 -0.0190
18111W        W34295   5.796   3.094   4.565 -0.2919 -0.0405  0.0750
18112W        W34296  13.728   2.924  14.687  0.1304 -0.0403 -0.0016
18113W        W34297   4.595   5.687   6.283 -0.1008 -0.0827  0.3135
18114W        W34298   7.875   5.479  16.270 -0.0644 -0.1418  0.2220
18115W        W34299   1.597  15.435  11.209  0.0230  0.2303 -0.2385
18116W        W34300  17.932   2.974  16.090 -0.1615 -0.1093 -0.1798
18117W        W34301   2.941   2.073  15.422  0.2194 -0.1010  0.0662
18118W        W34302   8.264  14.619  13.284  0.0832  0.0041 -0.1675
18119W        W34303   2.438  13.514   0.538 -0.2522  0.1361  0.0805
18120W        W34304   3.194  15.161   5.296  0.0683 -0.3036 -0.0728
18121W        W34305   0.679   4.787  11.008 -0.0707  0.0197  0.0026
18122W        W34306   2.712  12.329  13.997  0.0066 -0.2362  0.2462
18123W        W34307   8.684  17.179  11.524 -0.1837 -0.0384  0.0696
18124W        W34308   6.202   8.347   4.426 -0.0450  0.1465 -0.0027
18125W        W34309  11.712  13.739   2.188  0.0160 -0.0244 -0.0025
18126W        W34310   5.659  13.355   0.226 -0.1489  0.0836 -0.0688
18127W        W34311   0.791   5.753  16.226 -0.1409  0.0947 -0.1717
18128W        W34312   5.254  16.821   4.362  0.0095 -0.0772 -0.2134
18129W        W34313  12.019  12.161   5.292 -0.1402 -0.1352  0.0974
18130W        W34314  10.217  15.355  15.298 -0.1294 -0.1487  0.1844
18131W        W34315   5.776   4.554  14.754 -0.0053  0.1377 -0.3829
18132W        W34316   6.978   4.646   2.142  0.1743 -0.0858  0.0111
18133W        W34317  13.354  16.136   4.617  0.0943 -0.0921 -0.2926
18134W        W34318  16.683   2.469   2.936  0.2024 -0.3142 -0.0751
18135W        W34319  11.447   0.646   5.897  0.2697  0.0666 -0.0884
18136W        W34320   7.719   1.783   0.966 -0.7549 -0.2143 -0.1988
18137W        W34321  11.599   4.992   0.978 -0.1700 -0.0827 -0.3958
18138W        W34322   7.387  12.947   5.964  0.1574 -0.2806 -0.1025
18139W        W34323   9.469   9.736   4.844  0.0567 -0.0966  0.1929
18140W        W34324   5.916  10.633  14.226 -0.1965 -0.0174 -0.0701
18141W        W34325   4.452   2.424   4.688  0.2152 -0.0549 -0.1577
18142W        W34326  15.351  13.654  11.186 -0.0277  0.0185  0.1358
18143W        W34327   8.843   1.985   2.632  0.0755 -0.0159  0.2231
18144W        W34328   5.044   9.834  12.649  0.0152  0.1101  0.0506
18145W        W34329   1.192  17.998  11.728  0.2334  0.1993 -0.1425
18146W        W34330   0.095   4.003  14.876 -0.0586  0.1973 -0.0407
18147W        W34331  15.749  14.309  15.309 -0.3585  0.0446 -0.0606
18148W        W34332   2.510  14.387   4.532 -0.0660  0.1436 -0.0649
18149W        W34333   4.553   1.851  10.450  0.1490  0.1208  0.0752
18150W        W34334  14.228  13.578  15.463 -0.0865  0.0204 -0.0159
18151W        W34335  17.134   9.988   0.902  0.1659 -0.1715  0.2548
18152W        W34336  13.351   7.860  14.346 -0.0195 -0.2141 -0.0791
18153W        W34337  11.793  12.934  13.554  0.2046  0.0675  0.0401
18154W        W34338   1.797   3.264   5.666  0.0440 -0.2099  0.1301
18155W        W34339  12.446  17.208   4.167 -0.0972 -0.2453  0.2382
18156W        W34340   0.767  17.030  12.759 -0.2677  0.3797 -0.1194
18157W        W34341  16.447   3.065   3.068 -0.0307 -0.2996  0.1824
18158W        W34342  11.164  15.444   5.270 -0.1899 -0.1709 -0.2268
18159W        W34343  12.915   3.422   3.785  0.1597  0.0530  0.0583
18160W        W34344   1.999  16.818  14.383  0.3118 -0.2009 -0.1388
18161W        W34345   4.342   5.569  15.525 -0.0676  0.1277  0.1313
18162W        W34346   2.368   2.101  12.356 -0.0196 -0.3031 -0.0960
18163W        W34347   0.730  10.104  12.933  0.0283  0.1905 -0.1404
18164W        W34348  14.722   6.793   3.685  0.2211  0.2054  0.0790
18165W        W34349   1.954  12.941  12.082 -0.1006  0.2167 -0.1238
18166W        W34350  15.405   0.851  15.378  0.1504 -0.1828  0.1438
18167W        W34351   1.499  10.767  12.409 -0.1014 -0.0761  0.0876
18168W        W34352  14.610  16.409  12.810  0.0143 -0.1506  0.1612
18169W        W34353  13.988   4.636  14.836  0.0801 -0.0295 -0.1563
18170W        W34354  15.887   5.288   1.660  0.2651  0.0327  0.0265
18171W        W34355   3.731   6.688   0.089 -0.1597  0.2715 -0.3017
18172W        W34356   9.359   6.778  16.659 -0.2604 -0.0908  0.1939
18173W        W34357  16.412  15.267   2.599 -0.2939  0.1864 -0.2414
18174W        W34358   3.552  10.556  16.395  0.0793  0.0827  0.2665
18175W        W34359   4.463   4.299  12.161 -0.2113  0.3942 -0.1257
18176W        W34360   6.952   3.496   1.222 -0.2267  0.2325  0.1198
18177W        W34361  15.231   6.342  16.420 -0.1180 -0.0041 -0.2897
18178W        W34362   4.054   3.537   1.402  0.1826 -0.1020 -0.2476
18179W        W34363   6.756  12.656   0.053 -0.0504  0.0320  0.1017
18180W        W34364   9.193   5.073   5.387  0.0257  0.1894  0.3376
18181W        W34365  15.217  11.707   3.561  0.3108  0.0301  0.0852
18182W        W34366  14.673   3.208   2.031 -0.6911  0.0511  0.2146
18183W        W34367   5.602  14.452  11.501  0.0917 -0.2042  0.2029
18184W        W34368   1.241   8.667   1.275 -0.1452 -0.3522  0.2559
18185W        W34369   4.230  13.375   5.467 -0.0525 -0.1542 -0.0211
18186W        W34370   3.352   3.751   5.139  0.0821  0.1431 -0.0607
18187W        W34371   8.074   3.331   2.166 -0.1576 -0.1526 -0.1830
18188W        W34372   8.213  13.431   2.715  0.0670 -0.1629  0.3580
18189W        W34373   3.307  15.722  12.258  0.1115  0.0359 -0.0480
18190W        W34374  14.310   4.423  13.966 -0.3970  0.4072  0.1325
18191W        W34375  11.942   9.500  13.212  0.0744 -0.0923  0.1130
18192W        W34376   7.264  13.781   2.591  0.1216 -0.5248 -0.2719
18193W        W34377  12.820  11.516   1.582 -0.2573  0.0760  0.1055
18194W        W34378  16.660   8.951  15.523  0.1260  0.1496 -0.3119
18195W        W34379   4.359   1.459  11.820 -0.0820 -0.1050  0.1681
18196W        W34380   7.191  15.448   3.371  0.0634  0.0305  0.1782
18197W        W34381   8.228  17.218  15.184 -0.1234  0.3834 -0.1894
18198W        W34382  14.941   2.008   1.707 -0.2059  0.1332  0.1978
18199W        W34383   7.686   2.318  16.590  0.1739  0.2902 -0.4644
18200W        W34384  12.787   0.217   4.088  0.5307  0.0981  0.6068
18201W        W34385   6.959   4.026  12.672 -0.3622  0.3225 -0.2227
18202W        W34386   7.286   5.304   4.058 -0.0091  0.2745  0.0178
18203W        W34387   9.081   7.536  14.485 -0.2057  0.1409  0.4614
18204W        W34388   8.286  12.699  14.687  0.1866  0.0543  0.1740
18205W        W34389  10.485  14.785   2.101  0.0380 -0.1124  0.0523
18206W        W34390   2.782  16.906   5.010 -0.2488  0.2129 -0.0281
18207W        W34391  13.092   6.068   0.296  0.0771  0.2716 -0.4533
18208W        W34392   8.453   4.484   5.512  0.0697 -0.0731 -0.1159
18209W        W34393  15.368  13.181  16.592  0.0278  0.0875 -0.3944
18210W        W34394   7.715   3.746   0.109  0.2417 -0.2733 -0.3696
18211W        W34395  12.083  11.258  16.304 -0.0380  0.2475 -0.3940
18212W        W34396  12.243   3.710  13.040 -0.0946 -0.2398  0.0973
18213W        W34397  11.896  10.680  14.975  0.0739  0.2045 -0.3422
18214W        W34398   0.634  15.236  10.422  0.1282  0.2123 -0.1464
18215W        W34399   1.535  12.366   5.253 -0.4256 -0.0345  0.1467
18216W        W34400  11.672   1.897   4.465  0.1388 -0.0288 -0.0669
18217W        W34401   1.010   2.640   1.709  0.2932 -0.0215 -0.1407
18218W        W34402  16.144  16.542  12.590  0.2381  0.1064 -0.1321
18219W        W34403   2.026   5.431   3.656 -0.4240 -0.0714 -0.0796
18220W        W34404  10.420   9.278  13.583  0.0300  0.0107 -0.0121
18221W        W34405   1.450   9.106   1.472  0.1436  0.0952  0.0478
18222W        W34406   8.948  16.129   1.470 -0.1460 -0.1722  0.0039
18223W        W34407  11.760   1.271   2.350  0.2366 -0.1771  0.0669
18224W        W34408   2.765   8.042   6.034  0.1720  0.0367  0.1854
18225W        W34409  13.404   1.879  12.780  0.1085 -0.1233  0.0271
18226W        W34410   1.413   0.386   2.854  0.1391 -0.1530 -0.3892
18227W        W34411  15.851   2.200   1.334 -0.1571 -0.0675 -0.0402
18228W        W34412  11.456   3.640  13.664 -0.0206 -0.0477  0.2337
18229W        W34413  17.275  16.139   3.191 -0.0047  0.0402  0.0626
18230W        W34414   6.588  13.009  16.365  0.0737 -0.0248  0.0207
18231W        W34415   1.739   6.528   3.276  0.0864  0.3931  0.1371
18232W        W34416   3.188   1.797   0.792 -0.0983 -0.2205  0.2398
18233W        W34417   7.284  11.992   0.182  0.1032  0.0912 -0.1530
18234W        W34418   5.138  11.461  14.313  0.0073  0.0644 -0.0499
18235W        W34419  13.613   2.533   0.935  0.2026 -0.2001 -0.2398
18236W        W34420   8.956  14.731   3.371 -0.0646 -0.0953 -0.3127
18237W        W34421   3.567   3.211   5.131 -0.1269 -0.0700 -0.1222
18238W        W34422  10.239  16.959   0.827  0.0123  0.0130 -0.1518
18239W        W34423  14.153   4.263   3.614 -0.2437 -0.0613  0.4865
18240W        W34424   6.057  14.563  15.498 -0.1744  0.0743  0.7066
18241W        W34425   1.859   3.797  13.636 -0.4983 -0.2173  0.0687
18242W        W34426  14.839   3.629   4.385  0.0520 -0.1843  0.1897
18243W        W34427   9.536  13.440  13.107  0.0037  0.0910 -0.1434
18244W        W34428   8.418   6.672  12.536  0.1378  0.1702 -0.1311
18245W        W34429   3.272  15.435  14.840  0.0732 -0.0338 -0.2427
18246W        W34430   0.110  14.221   2.888  0.2332  0.0632 -0.0560
18247W        W34431  10.472  12.210  16.468  0.3477 -0.0912 -0.0845
18248W        W34432   9.120   5.995  12.298 -0.2095  0.1638  0.2490
18249W        W34433   3.044   3.303  11.682  0.2452  0.0805 -0.0812
18250W        W34434   8.992   5.209   2.118  0.2921 -0.1450  0.2670
18251W        W34435   5.343   3.225  14.357 -0.4198 -0.2586  0.1289
18252W        W34436   6.962   6.163   2.777 -0.0203  0.1468 -0.0229
18253W        W34437  17.453  13.043   4.804 -0.3860 -0.2754  0.0727
18254W        W34438   1.023  17.397   1.289 -0.0229 -0.3842  0.1822
18255W        W34439  14.424   2.155  13.104 -0.0297 -0.0224  0.1553
18256W        W34440   5.662  14.238   6.048  0.0304  0.1221 -0.0887
18257W        W34441   9.943   3.297  15.429  0.1303 -0.2203  0.0390
18258W        W34442   8.743   4.863   4.132  0.1686 -0.0254  0.0827
18259W        W34443   1.960   6.399  11.762  0.4765 -0.0004 -0.1246
18260W        W34444   9.632   2.571  15.236 -0.0390  0.1221  0.0865
18261W        W34445   0.162  14.664   0.773  0.0254 -0.1143 -0.2488
18262W        W34446   9.111  12.485  12.864 -0.3773  0.0380 -0.0002
18263W        W34447  15.938   4.775  14.884  0.0728 -0.1315 -0.0757
18264W        W34448  17.865   0.856   5.297 -0.0491  0.2102 -0.1054
18265W        W34449   3.599  16.449  15.004 -0.0918 -0.1860  0.1360
18266W        W34450  13.805   0.088   4.178 -0.0792 -0.1635  0.2282
18267W        W34451  11.664   8.623   4.310  0.2307  0.0941  0.2744
18268W        W34452   1.771  10.942  14.990  0.1480 -0.1839  0.3536
18269W        W34453   9.740   8.710   2.282 -0.1099 -0.0919  0.1542
18270W        W34454   3.610  15.810  11.825  0.1572 -0.0698 -0.3764
18271W        W34455   4.928   2.416   1.766  0.4112 -0.1219  0.0500
18272W        W34456  12.781  13.915  16.007  0.1672  0.2143  0.2510
18273W        W34457   1.517   2.877   4.285  0.1248 -0.2740  0.0955
18274W        W34458  17.679  11.471   1.450  0.2461  0.1583  0.0016
18275W        W34459   8.001   9.355   6.284 -0.0629 -0.2313 -0.1967
18276W        W34460   8.799  13.925   5.261 -0.1691  0.2509 -0.0226
18277W        W34461  16.559   3.277  14.596  0.3926  0.1906  0.0802
18278W        W34462   5.841  13.114  11.823 -0.0113  0.2508 -0.0163
18279W        W34463  11.791   3.646  12.848 -0.1828  0.1278  0.0406
18280W        W34464  16.594   3.567  12.384  0.0015 -0.0373 -0.1219
18281W        W34465   9.886   5.605   4.702 -0.0630  0.1501 -0.3420
18282W        W34466   1.772   9.278  14.149  0.0298 -0.0970  0.1683
18283W        W34467   9.380   0.928  14.779  0.1332 -0.0190  0.0100
18284W        W34468   9.114   7.674   0.458  0.0044  0.4484  0.3325
18285W        W34469   7.336  16.043  15.537 -0.1252 -0.0607  0.0143
18286W        W34470   7.178   8.676   1.171  0.0033 -0.2332 -0.2883
18287W        W34471  10.796   3.694   1.695 -0.0494 -0.1513 -0.1106
18288W        W34472  10.083   4.316   5.274 -0.2495 -0.1511  0.0046
18289W        W34473  15.823   2.600  12.905  0.2856 -0.0709 -0.1386
18290W        W34474  16.838  16.946   5.955 -0.1637  0.0898  0.0688
18291W        W34475   6.604   3.727  14.201  0.1435  0.0928  0.2302
18292W        W34476   4.079   0.908   4.906 -0.0472  0.0092 -0.1959
18293W        W34477  12.542  10.132   5.383 -0.3752 -0.2565 -0.2016
18294W        W34478   3.606  10.936   1.344  0.1994 -0.1298  0.0189
18295W        W34479   2.895  17.899   3.941  0.1070 -0.3820 -0.0585
18296W        W34480  17.817  11.889  11.526  0.2654 -0.2799 -0.0726
18297W        W34481  11.732  13.335   4.618  0.0666 -0.4363  0.0387
18298W        W34482  11.778   8.636   2.009 -0.0434 -0.0430  0.0335
18299W        W34483   8.479   2.795  12.141 -0.0006  0.2440  0.3846
18300W        W34484  15.280   7.473   2.427 -0.1784 -0.0380  0.0822
18301W        W34485   9.997   5.336  15.112 -0.1684  0.2585  0.2124
18302W        W34486   0.921   3.966  13.449 -0.3634  0.2216  0.3231
18303W        W34487   6.383   6.552   1.399 -0.0190  0.2007 -0.0320
18304W        W34488   9.364  16.695  11.624  0.1854 -0.0949 -0.0046
18305W        W34489   1.966  13.465  13.755 -0.2513  0.1140  0.0478
18306W        W34490  11.009  17.232   6.038  0.1116 -0.2848  0.3513
18307W        W34491  17.637   6.956  11.666  0.2056 -0.0214 -0.0046
18308W        W34492   2.513   6.483  14.890 -0.0092  0.0523 -0.2010
18309W        W34493   0.386   9.607   1.327 -0.1239 -0.1883  0.3935
18310W        W34494  13.748   1.495   1.839 -0.2355  0.1221 -0.0792
18311W        W34495   7.985  17.934   5.297 -0.1975  0.0878 -0.3448
18312W        W34496   3.020   8.260  16.173  0.1047 -0.0346  0.2597
18313W        W34497   5.373  17.953  13.036  0.0492 -0.0221 -0.1085
18314W        W34498  12.965  10.446  15.671 -0.1264 -0.0059  0.1018
18315W        W34499   6.391  16.206  14.151 -0.1655 -0.1654  0.2383
18316W        W34500  15.963   4.187  15.167  0.1254  0.1278  0.0834
18317W        W34501   9.960  12.573   2.964  0.1430  0.0131 -0.3023
18318W        W34502   5.883   9.887  15.907 -0.0740  0.0703 -0.2408
18319W        W34503   3.915   3.672   3.929 -0.0503  0.3195  0.1521
18320W        W34504   0.239   8.053   3.689  0.1389  0.2867  0.2494
18321W        W34505  17.974   4.827  12.837  0.1311  0.1442  0.1510
18322W        W34506   1.760  13.834  13.493  0.1825 -0.3205  0.3044
18323W        W34507  16.300   0.666   2.243 -0.2400 -0.0829  0.1433
18324W        W34508   2.412   4.464   1.234 -0.0455  0.0741 -0.2064
18325W        W34509   4.072  16.130   0.815 -0.0332  0.1319 -0.3076
18326W        W34510   3.638  17.480  12.636 -0.1448  0.1920 -0.1170
18327W        W34511  15.384  15.029   1.168 -0.2506  0.0753 -0.3840
18328W        W34512  12.933   6.562  15.689  0.1930  0.1805  0.1244
18329W        W34513  14.273   1.214   4.958 -0.0484 -0.2659 -0.1621
18330W        W34514  13.698  14.304   0.998 -0.1809  0.0241  0.3021
18331W        W34515  17.955   2.854   0.691 -0.0280 -0.2990  0.1021
18332W        W34516   0.500   0.485   4.812 -0.0632  0.0625 -0.0849
18333W        W34517  10.664  12.073   4.259  0.1393  0.0202 -0.0384
18334W        W34518  17.133   2.621   0.467  0.2218  0.1336 -0.0262
18335W        W34519   4.085   2.647   3.766 -0.3563 -0.0971 -0.0298
18336W        W34520   6.483   7.931   0.687  0.0048  0.0477  0.1935
18337W        W34521  10.568   1.623   1.002  0.2285  0.1543 -0.0387
18338W        W34522   2.721  12.227   1.684 -0.1351 -0.1138  0.0577
18339W        W34523  12.995  10.005   4.049 -0.0794  0.0342 -0.2887
18340W        W34524  15.010  17.725  15.884 -0.3251  0.2134 -0.0834
18341W        W34525   8.738   7.929  14.398  0.2259 -0.2539 -0.1169
18342W        W34526  15.824  10.118   5.290 -0.0968 -0.0964  0.4873
18343W        W34527  16.368  11.722   5.214 -0.1132 -0.2525 -0.2808
18344W        W34528   9.045  16.508  14.996  0.1223 -0.0278  0.0571
18345W        W34529  14.656   9.533   1.455 -0.1769 -0.1092  0.3559
18346W        W34530  12.833  13.901   0.790 -0.0870  0.0675 -0.1518
18347W        W34531   1.654   1.361   0.032  0.0934 -0.0122 -0.0065
18348W        W34532  11.782  16.773  13.197  0.0441 -0.0308  0.2029
18349W        W34533   7.948   8.348  14.134  0.1827  0.0276  0.0462
18350W        W34534   6.313  15.731  14.969 -0.0040 -0.1233  0.0795
18351W        W34535  16.541   1.736   1.303 -0.0184 -0.1332  0.0287
18352W        W34536  13.347  10.711  13.041 -0.0151 -0.0871 -0.3504
18353W        W34537   6.975  17.658  12.944  0.0999 -0.0790  0.0608
18354W        W34538   2.510   2.246  11.651 -0.0330  0.2175 -0.1773
18355W        W34539   7.837  11.335  11.785 -0.1797  0.2540  0.0999
18356W        W34540  17.680  11.867  14.446  0.1259 -0.1286 -0.1517
18357W        W34541  16.768   8.781   0.763  0.1821 -0.0184 -0.3226
18358W        W34542  17.570   2.029  10.860 -0.0029  0.3680  0.2791
18359W        W34543  14.270   6.588  15.493 -0.0763  0.0690 -0.1864
18360W        W34544  15.014  14.557   1.455  0.1313  0.0101  0.2117
18361W        W34545   3.798  14.194  15.567  0.4056 -0.1587  0.1214
18362W        W34546  10.447   5.472  14.261 -0.0028  0.0401  0.2142
18363W        W34547   7.335   7.641   0.913 -0.0536  0.0806  0.4229
18364W        W34548   2.355  13.107   5.728  0.0808  0.3491  0.1206
18365W        W34549   8.971   6.154  16.060 -0.1619  0.0397 -0.0934
18366W        W34550  14.207   3.000   2.729 -0.1130  0.0935  0.1215
18367W        W34551  12.610  16.872  14.865  0.2816 -0.2823  0.1207
18368W        W34552  16.303  17.569  14.487 -0.1750  0.1949  0.0311
18369W        W34553   9.236  14.029  14.456 -0.0335  0.1382  0.0865
18370W        W34554  10.092  17.583  15.048 -0.1031  0.0946 -0.0635
18371W        W34555  10.708   3.733  11.936 -0.1491 -0.0900  0.0044
18372W        W34556  11.796  17.749   3.645 -0.0362  0.0069 -0.0391
18373W        W34557   6.663  13.656   4.471 -0.0699 -0.3914 -0.5340
18374W        W34558   3.515  10.306   3.408  0.0388  0.0374  0.0422
18375W        W34559  11.407  11.558   4.176  0.1954 -0.1896 -0.0370
18376W        W34560   0.274   1.291  13.086  0.0116  0.0039  0.4151
18377W        W34561  12.831   2.333   2.561 -0.0432 -0.1469 -0.2018
18378W        W34562  17.260   5.512  13.796  0.0691 -0.1441 -0.1870
18379W        W34563   2.730  11.734  12.821 -0.0928  0.1877 -0.1370
18380W        W34564   0.193  16.596  15.895 -0.0401 -0.0685 -0.0045
18381W        W34565   0.481   0.471  14.627  0.2883 -0.0948 -0.0623
18382W        W34566  12.574  17.867   3.781  0.2553  0.0006 -0.3171
18383W        W34567  12.270  17.804  14.653 -0.3696 -0.5941 -0.2090
18384W        W34568   0.822   0.495   3.505  0.0294 -0.0586  0.0510
18385W        W34569   1.364   0.704  15.449 -0.0755  0.3967  0.2203
18386W        W34570  12.857  12.031  12.985  0.1478 -0.0731 -0.1358
18387W        W34571  15.256   2.864   4.079 -0.5167 -0.1545  0.1648
18388W        W34572  10.276   3.863  12.998  0.0427  0.0538  0.2939
18389W        W34573   2.421   4.093   5.055 -0.0407  0.1927 -0.3342
18390W        W34574   3.798  11.199  14.501 -0.2509  0.0538  0.1400
18391W        W34575   8.524   3.731   5.772  0.2651  0.3609 -0.0888
18392W        W34576   4.403   5.223   6.076 -0.0889 -0.0206 -0.1597
18393W        W34577   9.699  13.999   3.467 -0.0360  0.1698 -0.3758
18394W        W34578   7.781   0.307  15.487  0.0768  0.0435  0.1160
18395W        W34579  11.558   9.575  11.778  0.1248 -0.2458  0.1341
18396W        W34580  15.259   3.751   3.621 -0.0100 -0.3284  0.1689
18397W        W34581   4.397   5.329  12.097 -0.1385  0.3734  0.0114
18398W        W34582   6.213  15.075  14.498  0.0153  0.0374 -0.0593
18399W        W34583  16.510  10.091  13.513  0.0967 -0.2071  0.2144
18400W        W34584   4.085  16.990   0.728  0.0055 -0.2837 -0.1101
18401W        W34585   8.536   6.233   4.425 -0.1330  0.3091 -0.0571
18402W        W34586  16.290  14.362  15.322 -0.2526 -0.1873 -0.1423
18403W        W34587   0.710  14.742  15.739 -0.0904  0.0688  0.0846
18404W        W34588  11.737  14.185  13.458 -0.0902 -0.0543  0.2875
18405W        W34589   4.258   0.844   1.192  0.1809  0.2941 -0.1598
18406W        W34590   5.645   4.758   1.025  0.0801 -0.0767 -0.1383
18407W        W34591   5.774   1.372  15.901  0.0592 -0.0892 -0.0769
18408W        W34592   1.980   6.862   5.088  0.1639  0.0837  0.2145
18409W        W34593   1.309   3.713  14.255 -0.1831  0.2868  0.3244
18410W        W34594   8.561  12.457  11.477 -0.1323 -0.0839 -0.3043
18411W        W34595   7.979  15.072   4.937 -0.0731 -0.1845  0.2359
18412W        W34596  17.701  10.826   5.404  0.2887 -0.1220 -0.1076
18413W        W34597  16.581   5.508  13.465  0.4628  0.2416  0.0860
18414W        W34598  12.199  16.822  16.104  0.2703  0.0807 -0.0620
18415W        W34599   8.156  11.994   3.251 -0.0694  0.0845  0.0866
18416W        W34600  13.014  11.467  15.304  0.1005 -0.1124 -0.0094
18417W        W34601  16.814  11.106  16.083  0.4648  0.2356 -0.3671
18418W        W34602  15.102   1.388   3.641  0.3518 -0.1313  0.0122
18419W        W34603  17.632   3.387   0.624  0.1543 -0.1276  0.1277
18420W        W34604   8.579  11.603   2.152  0.2173  0.2121  0.2174
18421W        W34605   4.236  14.060  15.371 -0.0011 -0.1849  0.0047
18422W        W34606   6.976   8.434   4.497  0.2274 -0.1769 -0.2784
18423W        W34607   2.543   5.057   5.828 -0.3065  0.0517 -0.0659
18424W        W34608  11.313   0.298  12.417  0.0430 -0.3077 -0.0875
18425W        W34609  16.136   9.833  12.270  0.0116 -0.1410 -0.2687
18426W        W34610   2.102   8.712   5.038  0.0000 -0.1541 -0.0032
18427W        W34611  14.800  10.358   2.657 -0.1922 -0.0040 -0.2541
18428W        W34612   9.272   1.873  16.571 -0.2768 -0.1422 -0.1295
18429W        W34613  15.050   9.330  14.193  0.0848 -0.2731 -0.0638
18430W        W34614   4.878   1.322   5.682 -0.2573  0.2812  0.0875
18431W        W34615  11.625   3.587  15.226 -0.2726 -0.0420 -0.1870
18432W        W34616   6.333  17.150   3.951  0.0781  0.1106 -0.1005
18433W        W34617   8.419   5.395   6.008  0.1732 -0.0835  0.0315
18434W        W34618  17.076  16.302   1.626 -0.0617 -0.0137 -0.2718
18435W        W34619   0.383   5.721  12.532 -0.1724  0.1419 -0.0195
18436W        W34620  16.692   7.963  12.775  0.0664 -0.1932 -0.0502
18437W        W34621   9.964   0.802  14.227  0.1497  0.1423 -0.1438
18438W        W34622   7.904   7.729  11.428  0.1847  0.1073  0.3705
18439W        W34623   3.608   6.876   2.225 -0.0183  0.3922 -0.1590
18440W        W34624  13.350   5.900  11.819  0.3737  0.1904  0.2232
18441W        W34625  14.563  14.979  15.029 -0.0837  0.0883 -0.0797
18442W        W34626  13.639   4.867  15.697 -0.1414  0.1135  0.1184
18443W        W34627   7.763  14.000  12.166  0.3213  0.2564 -0.0862
18444W        W34628   9.790  13.061   6.536 -0.0179 -0.1234  0.1237
18445W        W34629  11.216  10.883  13.096  0.0218  0.1072  0.0956
18446W        W34630   4.465   8.479   3.988 -0.1164  0.0738  0.3435
18447W        W34631   1.620  11.243   3.363 -0.3108 -0.0718  0.1943
18448W        W34632  14.007  11.731  14.179 -0.3537 -0.0397  0.0426
18449W        W34633   6.917   4.095   0.862  0.0836 -0.1100 -0.1772
18450W        W34634   1.115  11.233   0.227 -0.0235  0.1893  0.0341
18451W        W34635  16.092   6.668   4.148 -0.2034  0.1527 -0.1868
18452W        W34636   5.538   5.985  15.261 -0.2843 -0.0886 -0.1185
18453W        W34637  16.983  10.989   0.279 -0.2298 -0.1109  0.1301
18454W        W34638   5.602  10.079   0.059  0.0392  0.0341 -0.1495
18455W        W34639   4.090   7.299  14.743  0.0995  0.2493 -0.0690
18456W        W34640   7.366  10.780   4.293 -0.1923  0.2082 -0.4198
18457W        W34641  10.658   4.763  13.010  0.0400  0.0095  0.0037
18458W        W34642  13.555  15.327  16.156 -0.1641  0.1298 -0.2627
18459W        W34643   0.471  17.682   4.088  0.4037 -0.0574 -0.2296
18460W        W34644   1.443   7.594   5.141  0.3041  0.0304  0.4358
18461W        W34645  17.958  14.182  14.198  0.1098  0.2390  0.1277
18462W        W34646  15.959  12.217  14.632 -0.2399  0.0876 -0.1089
18463W        W34647   4.671   1.585   4.982 -0.2619 -0.2035  0.0995
18464W        W34648  16.592   1.144  15.781  0.1435  0.1930 -0.1368
18465W        W34649  10.855  14.563   1.683 -0.1547 -0.2389 -0.1173
18466W        W34650   2.505  11.924   6.103  0.1718  0.3027  0.1002
18467W        W34651   9.646  10.862  14.305  0.1804  0.1501 -0.0490
18468W        W34652  12.543   4.958   4.289 -0.2298 -0.3136  0.1810
18469W        W34653   5.121   8.478  16.337 -0.2105  0.1600 -0.0029
18470W        W34654   3.898   5.338  12.395  0.2524  0.2425  0.1307
18471W        W34655   8.710  15.180   5.442  0.1671  0.0376  0.4506
18472W        W34656   8.692  16.495   1.289  0.2681 -0.0530  0.3398
18473W        W34657   5.193   8.663  14.759 -0.1091  0.2669 -0.0381
18474W        W34658   5.517   2.121  12.748 -0.0753 -0.3613 -0.0520
18475W        W34659   2.696  11.547   5.136 -0.2093  0.0153  0.0762
18476W        W34660   1.282  12.003   4.720  0.0218  0.1039  0.0625
18477W        W34661  15.719   0.842  11.355  0.1763 -0.3556 -0.1474
18478W        W34662   7.337   8.937   2.738 -0.4412  0.0743 -0.0103
18479W        W34663  17.783   3.711   5.676 -0.1360 -0.1272 -0.2182
18480W        W34664  14.959   8.745   4.523  0.1052 -0.1432 -0.0440
18481W        W34665   3.170  11.806  13.953  0.1465 -0.1553  0.0153
18482W        W34666   4.509  10.873  14.902  0.0977 -0.0988 -0.0463
18483W        W34667  16.791  10.485   0.200  0.0597  0.0722 -0.0416
18484W        W34668  10.041   2.299  13.005  0.1382  0.1643  0.1468
18485W        W34669   9.163   7.986  14.762 -0.1878  0.0845 -0.0241
18486W        W34670  17.914  12.226  14.085 -0.0598  0.0207 -0.1925
18487W        W34671  13.510  12.592  15.858 -0.0075  0.1155 -0.0549
18488W        W34672   2.660  10.325  14.763 -0.1040 -0.3342  0.0358
18489W        W34673   6.157  11.763   5.348  0.0491 -0.2413 -0.2250
18490W        W34674   7.350   0.920  14.330 -0.1875 -0.0685  0.0423
18491W        W34675  12.062   9.260   5.152  0.4343 -0.0618 -0.1363
18492W        W34676  14.278   2.959  16.330 -0.1677  0.3480  0.0483
18493W        W34677   9.080  14.101   0.167  0.1149  0.0611  0.3653
18494W        W34678   5.807   1.784   2.771 -0.0782  0.2680  0.0050
18495W        W34679   8.861   8.392  15.726  0.1029  0.2071 -0.0027
18496W        W34680  11.702   9.874  13.341 -0.4439 -0.0642 -0.1989
18497W        W34681   6.761   3.435   0.199  0.0535  0.3838 -0.1286
18498W        W34682  13.444  10.746   1.231 -0.3544 -0.0164 -0.1933
18499W        W34683   2.762  15.831  11.433 -0.0330 -0.1954  0.1180
18500W        W34684   5.305   2.052  13.302  0.2080 -0.1847  0.0038
18501W        W34685   6.937  13.560   4.078  0.2425 -0.0252 -0.2568
18502W        W34686  15.284   3.071  12.647 -0.2873 -0.1202 -0.1974
18503W        W34687  17.606   4.272   5.432  0.0141 -0.2200  0.0564
18504W        W34688  16.872   4.066  15.154 -0.2661 -0.0534 -0.0833
18505W        W34689   3.520   2.045  12.772 -0.1568 -0.1676 -0.1431
18506W        W34690   4.510   0.161   3.322  0.1121 -0.0903 -0.3227
18507W        W34691  10.725  11.863   1.587  0.4675  0.2905 -0.1163
18508W        W34692  11.753  17.539   1.289 -0.0960  0.3363  0.4010
18509W        W34693   5.187   9.333  12.562 -0.3391 -0.2023 -0.1286
18510W        W34694   1.727  17.256   4.370  0.0990  0.1615 -0.3120
18511W        W34695   4.920   8.372   1.955 -0.2148  0.0836  0.4450
18512W        W34696   1.326   0.064  14.120 -0.2218  0.0487 -0.0377
18513W        W34697  12.228   1.980  16.043  0.1433 -0.0557  0.1406
18514W        W34698   7.089  11.611  14.424 -0.1183 -0.2153 -0.3491
18515W        W34699   9.514   5.349   4.479  0.0747 -0.0853  0.4285
18516W        W34700  15.275   4.894  12.161 -0.1228  0.2437  0.0639
18517W        W34701   1.880  10.528   5.939 -0.1409  0.0291  0.0730
18518W        W34702  10.761  10.590  16.226 -0.0831 -0.2126 -0.0397
18519W        W34703   7.782   5.798   4.188 -0.1390 -0.3110 -0.3769
18520W        W34704   1.340  14.871  15.036  0.1237 -0.1071 -0.2632
18521W        W34705  11.472  10.652   4.401  0.2491  0.3550 -0.2231
18522W        W34706   7.555   6.409   5.170  0.1039 -0.2890  0.2701
18523W        W34707  11.279   3.501   4.460  0.1220  0.2904  0.0963
18524W        W34708   7.495  14.722  12.571 -0.0331 -0.0933  0.3032
18525W        W34709  11.704   1.452  11.788  0.0699  0.0633 -0.1638
18526W        W34710   7.665   5.073   1.499 -0.2406  0.1175  0.0611
18527W        W34711  14.089   3.601  12.437  0.2389 -0.0458 -0.1243
18528W        W34712  12.875  17.159   3.158  0.1786 -0.2000  0.1532
18529W        W34713   8.325   4.990  14.536  0.0453 -0.0131 -0.1149
18530W        W34714  13.233   0.369   3.202 -0.3958 -0.4178 -0.3891
18531W        W34715   2.561  16.228  16.474  0.0023  0.2177 -0.2768
18532W        W34716  16.104   3.754   3.216  0.0981 -0.1056 -0.3050
18533W        W34717   8.194  10.342  14.182  0.1790 -0.2093  0.1978
18534W        W34718   5.204  17.669   4.077  0.0450  0.0438  0.2374
18535W        W34719   1.835   5.276   0.791  0.3496 -0.0849  0.1767
18536W        W34720   0.684   6.235   4.185  0.2517 -0.1426  0.3443
18537W        W34721   2.099  17.982   1.806 -0.0129 -0.0401 -0.1168
18538W        W34722  12.784   0.512  12.977 -0.2653  0.0365 -0.2224
18539W        W34723   9.635   4.216  15.274  0.0825  0.0869 -0.0665
18540W        W34724   8.579  12.276   1.393  0.1861  0.0512 -0.1443
18541W        W34725   9.303   3.901  12.961  0.2822 -0.2174  0.0517
18542W        W34726   6.123  16.061  12.052 -0.0813 -0.0610  0.0130
18543W        W34727  17.469  14.872   5.384 -0.1513 -0.2262 -0.1176
18544W        W34728  14.192   5.834   0.397 -0.0400  0.1701 -0.1349
18545W        W34729  10.014   9.040  13.828  0.1854 -0.0046 -0.1334
18546W        W34730   4.995   6.624  12.945 -0.0958  0.1421 -0.0294
18547W        W34731  12.747   0.089  15.725  0.0406 -0.0519 -0.0686
18548W        W34732  13.817  16.616   0.246 -0.2543  0.0875  0.1474
18549W        W34733   4.323   0.679   0.588  0.1637  0.1514 -0.1704
18550W        W34734  15.351   4.559   4.094 -0.0953  0.3546  0.1463
18551W        W34735  16.549   2.416   4.558  0.2123 -0.1183  0.1378
18552W        W34736   1.180   0.993  11.505 -0.1667  0.0015 -0.0475
18553W        W34737   6.112  16.591  14.451 -0.0978 -0.0859 -0.2773
18554W        W34738  17.514   5.323   1.232  0.4429  0.3303 -0.0529
18555W        W34739   4.842   2.213   6.027  0.1103  0.2410 -0.1901
18556W        W34740  14.109   1.226   0.900  0.1889 -0.2214  0.3136
18557W        W34741   6.891   5.198   4.861 -0.1698 -0.0983  0.2416
18558W        W34742   5.727   4.897   1.532  0.0029  0.0025  0.0578
18559W        W34743  11.875  17.704   0.282 -0.1914 -0.2570 -0.0276
18560W        W34744   3.770  17.088   0.322 -0.0833  0.0087 -0.0579
18561W        W34745  14.165   7.846   0.964  0.0038 -0.2747  0.1140
18562W        W34746  11.340   3.896  15.540  0.0772  0.0329  0.1189
18563W        W34747   4.065   7.128   4.362  0.0415 -0.1521  0.0233
18564W        W34748   6.289   3.317   1.996 -0.2454 -0.2005  0.1662
18565W        W34749   9.829  10.672  10.708 -0.1647 -0.0898  0.0739
18566W        W34750   6.966   2.500  13.823 -0.0604  0.0086  0.2421
18567W        W34751  14.077   9.716   2.066 -0.2414  0.0661 -0.2040
18568W        W34752  13.867   8.705  14.566 -0.1661  0.2356 -0.3917
18569W        W34753   6.617  16.200  13.228 -0.1621 -0.2596 -0.1799
18570W        W34754  11.856   2.344   2.496 -0.0221  0.1824 -0.0930
18571W        W34755  11.560   5.952  11.894  0.1826  0.0022  0.0485
18572W        W34756   7.475   8.310   5.618 -0.0396  0.2297 -0.4865
18573W        W34757   6.273  11.966  13.932  0.1417 -0.1260  0.0609
18574W        W34758   1.305  14.853  14.513  0.0916 -0.1254 -0.1061
18575W        W34759  14.083  11.618   2.082 -0.0686 -0.0737  0.0831
18576W        W34760  12.136  13.831  12.011  0.0496  0.0446  0.0958
18577W        W34761  14.102  13.152  15.163 -0.2257  0.0447  0.1090
18578W        W34762  15.233   4.077   4.003 -0.0925 -0.0178 -0.0168
18579W        W34763   3.227   0.347   0.433  0.3626 -0.2786  0.0688
18580W        W34764   1.500   4.644  15.890  0.1406 -0.0540 -0.1671
18581W        W34765  16.459   8.326   0.655  0.2074  0.0212 -0.0201
18582W        W34766   5.524   0.854   4.383 -0.0963 -0.0610 -0.0422
18583W        W34767  17.188  10.337  11.656  0.0952 -0.0311 -0.2228
18584W        W34768   9.252  10.496  15.535 -0.0446 -0.3280 -0.1579
18585W        W34769   8.782  11.450   3.578 -0.0604  0.0884  0.0804
18586W        W34770  10.881   7.798  16.458  0.0093  0.0101  0.2355
18587W        W34771  16.854  11.656  14.018 -0.2896  0.2130 -0.2954
18588W        W34772  13.819  15.930  11.669  0.3021 -0.3302 -0.2595
18589W        W34773  10.710   3.289   0.965  0.2657  0.1210  0.0323
18590W        W34774   8.507  10.752   3.483  0.0393 -0.0966  0.2225
18591W        W34775   0.989   3.265  13.550  0.1073  0.1148 -0.1554
18592W        W34776   3.465  10.297   2.832  0.0664  0.0098 -0.3917
18593W        W34777  13.524   8.981  11.826  0.0565 -0.2456  0.0434
18594W        W34778  14.100  16.553  12.523 -0.0925 -0.2056  0.2749
18595W        W34779   8.687  10.667   0.397  0.4036 -0.2853  0.0818
18596W        W34780  15.161   1.475   4.773  0.3068  0.2048  0.1325
18597W        W34781   8.244   7.121   4.874 -0.0746 -0.0288  0.2041
18598W        W34782  12.465  10.573   2.887  0.1039 -0.2678  0.1258
18599W        W34783  16.903   2.353   4.943 -0.0570  0.1321  0.1776
18600W        W34784   3.876  15.411   3.173  0.0562  0.1603 -0.2628
18601W        W34785  11.419  13.467  12.324 -0.1812 -0.3466 -0.2410
18602W        W34786  12.880   6.251   5.915 -0.0259  0.0546  0.0102
18603W        W34787   0.809  17.086  14.521  0.0074 -0.1577 -0.1432
18604W        W34788   7.558   9.078  16.076 -0.0150 -0.0091  0.1659
18605W        W34789  16.983  17.040   0.735  0.0382  0.1925  0.0669
18606W        W34790   4.083   7.162   3.808 -0.1552  0.0414 -0.0904
18607W        W34791   5.208   4.267  12.053 -0.2864  0.3200 -0.2173
18608W        W34792  17.406  11.061  13.932  0.0525  0.1903 -0.4846
18609W        W34793  14.444   9.690   3.266 -0.5349 -0.2797  0.0499
18610W        W34794  16.668   6.185  14.282  0.0442 -0.1847 -0.1954
18611W        W34795   8.838   1.452  13.396  0.1912 -0.1473 -0.3418
18612W        W34796   0.958  14.478   0.305  0.0448  0.0442 -0.0357
18613W        W34797  13.528   5.151   4.453  0.1795 -0.3241 -0.1371
18614W        W34798  16.645   2.160  15.292  0.0764  0.1279  0.0619
18615W        W34799  14.123  12.049   4.637 -0.0642  0.1220  0.0402
18616W        W34800  16.244  11.241   1.868  0.0798 -0.1370  0.3615
18617W        W34801  15.692   8.314  14.266  0.2438  0.0621  0.0386
18618W        W34802  17.444  10.750  13.166 -0.2817 -0.2040 -0.0261
18619W        W34803   0.426  12.698   5.355 -0.3851 -0.5088  0.1139
18620W        W34804   8.887  15.029   0.900  0.3174  0.2660  0.2971
18621W        W34805   9.151   9.811  13.353 -0.0260 -0.1427  0.0877
18622W        W34806   9.179   3.220   0.028 -0.0824 -0.1257 -0.1617
18623W        W34807   1.409   0.341  14.551  0.0390 -0.1770  0.2870
18624W        W34808  15.857  15.513  14.738  0.4013 -0.0693  0.3508
18625W        W34809   9.809   3.868  13.296 -0.0727 -0.0820  0.2987
18626W        W34810   0.526  16.611   3.162  0.1111 -0.1420 -0.0282
18627W        W34811   9.285   5.438   3.473  0.1026 -0.4520  0.0723
18628W        W34812   3.212   6.341   0.648 -0.1693 -0.1645 -0.0692
18629W        W34813  12.251   8.942   2.080 -0.2799 -0.2588  0.2669
18630W        W34814   8.113   5.246   1.891  0.4022  0.1046  0.0450
18631W        W34815   1.887  13.436  13.211 -0.3189  0.1392 -0.1265
18632W        W34816  16.749   9.402  15.290 -0.0307 -0.1319 -0.0115
18633W        W34817   8.832   9.905  13.759 -0.1561 -0.1295  0.1645
18634W        W34818  11.370   5.379  14.757  0.1532  0.2888 -0.0966
18635W        W34819  16.269   9.166   0.193 -0.3254 -0.0781  0.4725
18636W        W34820  10.311   0.556  12.723  0.0738  0.1209  0.0462
18637W        W34821   5.315  17.262   0.360 -0.0358 -0.1559  0.1265
18638W        W34822   1.208   9.342   4.767  0.1201  0.3710 -0.4030
18639W        W34823   8.691  17.280   4.247  0.3100 -0.2451  0.4054
18640W        W34824   6.060   1.196   5.075 -0.1749  0.1107 -0.0707
18641W        W34825  10.375  11.524  11.827 -0.1006  0.0647  0.2269
18642W        W34826  16.974   5.960   2.574  0.4787 -0.4079 -0.2244
18643W        W34827   9.210  11.761   4.763 -0.0839  0.2830 -0.1567
18644W        W34828  16.439   6.763  12.207  0.0396 -0.2111 -0.0131
18645W        W34829   0.845  13.012  11.320 -0.0789  0.2288  0.1821
18646W        W34830   5.951   7.092  16.642  0.0287  0.0834 -0.1548
18647W        W34831  12.196   0.935  12.374 -0.0510  0.0091  0.3264
18648W        W34832   7.727  11.672   1.453  0.1160 -0.1017 -0.2778
18649W        W34833  17.659  17.945   1.647 -0.2519 -0.1021 -0.1493
18650W        W34834  17.117   2.073   0.260  0.1123  0.2868  0.1401
18651W        W34835   1.088  14.140  11.631 -0.2341 -0.0643 -0.0025
18652W        W34836   2.528   8.704  12.421 -0.0393 -0.0774  0.2020
18653W        W34837  17.880   4.697   1.887  0.2831 -0.3231  0.0302
18654W        W34838  15.479   7.077   2.686 -0.0672  0.2273  0.0193
18655W        W34839   6.549  13.365   1.104 -0.0712 -0.0858  0.0110
18656W        W34840  17.817   4.129  15.775  0.0229  0.0235 -0.1791
18657W        W34841   2.392  14.323  16.593  0.0428  0.3234 -0.0483
18658W        W34842  11.552  13.350  13.499  0.2585 -0.0590 -0.3562
18659W        W34843  10.590   1.971   4.212  0.1900 -0.0777  0.0450
18660W        W34844   8.957   9.067  15.859  0.3121  0.0032  0.2055
18661W        W34845  16.299  14.219  16.303 -0.3553 -0.2474 -0.2607
18662W        W34846   5.814   5.498  12.534 -0.1092 -0.1327 -0.0177
18663W        W34847  17.701   3.914  11.544 -0.0559  0.0322 -0.2853
18664W        W34848  12.744   4.957  16.570 -0.0530 -0.1365 -0.3071
18665W        W34849  16.010  13.646  14.218  0.2751 -0.2096 -0.0097
18666W        W34850   7.990   1.670  15.556  0.4048 -0.1730 -0.1039
18667W        W34851  12.740   9.649   0.126  0.1658 -0.0759 -0.1126
18668W        W34852  16.782   5.495  15.568  0.0803 -0.1866  0.1051
18669W        W34853  13.232   8.283   1.531 -0.1348  0.4868 -0.2251
18670W        W34854  12.194   5.267  13.979 -0.1851 -0.1016  0.2582
18671W        W34855   8.816   7.808  12.102  0.3563 -0.1671  0.2181
18672W        W34856  11.692  12.195  11.918 -0.0275  0.0566 -0.1682
18673W        W34857  13.529   1.630   5.210  0.2927  0.3821  0.2601
18674W        W34858  14.125   1.013   2.984 -0.2561  0.2913  0.1593
18675W        W34859   3.779   7.806  14.774  0.1195 -0.1083 -0.2798
18676W        W34860  12.313  13.674   4.184 -0.3335 -0.2484  0.1243
18677W        W34861  16.970   1.413  12.727  0.2028 -0.0896 -0.2060
18678W        W34862  10.778   1.622  11.909  0.0957 -0.0431  0.5186
18679W        W34863   5.612   1.004  16.231  0.3363  0.3031  0.5755
18680W        W34864  17.425  16.617   5.272  0.1393 -0.1067 -0.1611
18681W        W34865  13.505   0.813  14.946 -0.0717  0.0103 -0.1812
18682W        W34866   3.839  15.667   2.630  0.2838 -0.1428 -0.0952
18683W        W34867  10.178  16.921   0.218  0.2039  0.3542 -0.0110
18684W        W34868   6.405   3.693  12.464 -0.1603  0.0238  0.0630
18685W        W34869  12.256  10.939   1.480  0.1619 -0.1001  0.0242
18686W        W34870   9.389  14.462   2.903 -0.1744 -0.2782 -0.0621
18687W        W34871   1.990  16.681   3.581  0.0013 -0.1229 -0.0881
18688W        W34872   0.671   3.568  10.363 -0.2365 -0.1935  0.3112
18689W        W34873   7.725  17.042  12.284 -0.1579 -0.3065  0.1692
18690W        W34874   3.662  16.069  14.453 -0.2350  0.1621  0.2064
18691W        W34875   5.806   6.965   3.875 -0.2775  0.0927 -0.2667
18692W        W34876   5.491  15.300   4.383  0.0588  0.3035 -0.0953
18693W        W34877  17.088   4.871   4.265  0.1887 -0.2321  0.0472
18694W        W34878  15.879  14.898   1.390 -0.1236 -0.0862  0.0196
18695W        W34879  13.856   8.530  13.685 -0.1053 -0.3404 -0.0366
18696W        W34880   4.188  17.026  11.437  0.1906 -0.1021  0.0880
18697W        W34881   2.782  12.901   4.222  0.1735 -0.3335 -0.0443
18698W        W34882   1.651  14.970   3.651  0.1822 -0.0008  0.2471
18699W        W34883  15.367   2.243   3.379 -0.2391 -0.2350 -0.0617
18700W        W34884  13.418   9.875  15.772  0.0098  0.2235  0.0692
18701W        W34885   7.345   4.897   3.736  0.2562  0.0995 -0.5240
18702W        W34886  11.538   9.978   0.506 -0.0686  0.1135 -0.1159
18703W        W34887  16.713  15.195   4.941 -0.1356  0.1036  0.1711
18704W        W34888   2.534   7.749  16.294 -0.2233 -0.0915  0.0947
18705W        W34889  16.504   6.979   4.438 -0.1408 -0.0862 -0.0777
18706W        W34890   5.339   9.686   2.652 -0.0255  0.0194  0.0562
18707W        W34891  12.283   9.464  11.787  0.0665  0.1013 -0.0390
18708W        W34892   8.829  15.911  12.990 -0.0078  0.0555  0.1543
18709W        W34893   0.605  11.495  11.820  0.1577 -0.1434 -0.0086
18710W        W34894   4.332   4.666  16.024  0.0762 -0.1656 -0.1781
18711W        W34895  12.492   4.339   3.276 -0.2542  0.0682  0.1196
18712W        W34896   2.816   9.639  16.339 -0.3005 -0.2290 -0.0847
18713W        W34897  14.771   0.136  12.166 -0.0032 -0.0684  0.0610
18714W        W34898   7.196   6.185   3.430  0.2566 -0.0139 -0.1237
18715W        W34899  12.378  14.968  14.139  0.4628 -0.0431  0.0565
18716W        W34900   3.905  11.041   3.287  0.1192  0.1913 -0.3649
18717W        W34901   0.660  15.281   0.767 -0.1885  0.2161 -0.1150
18718W        W34902   9.528   4.224   0.400  0.0489  0.3092  0.1232
18719W        W34903   2.795  15.985   2.539 -0.0776 -0.2926 -0.1393
18720W        W34904  11.877  14.415   1.080  0.2900  0.3166  0.1639
18721W        W34905   2.116  12.671  15.196  0.1041 -0.1762  0.1944
18722W        W34906   0.896  13.099   3.366  0.0607 -0.0302 -0.2244
18723W        W34907  14.444   8.931   4.644 -0.1221  0.0639 -0.0055
18724W        W34908   2.642  12.192  14.441  0.1761 -0.3009 -0.1451
18725W        W34909   5.991   6.022   2.661  0.0643 -0.1094 -0.0790
18726W        W34910  16.688  16.655   2.055  0.0631 -0.0364 -0.0320
18727W        W34911   1.880  12.069   2.803 -0.1405 -0.0586 -0.1248
18728W        W34912  12.187  11.938   3.096 -0.0076  0.1254  0.0658
18729W        W34913  10.514  14.603  13.990  0.2638 -0.1115 -0.1496
18730W        W34914   3.451  15.522   2.992 -0.0584  0.2858 -0.0449
18731W        W34915   2.399  15.445  14.696  0.1307 -0.1391 -0.0984
18732W        W34916  12.973   3.340   0.152  0.1739 -0.2096 -0.3425
18733W        W34917   9.011  10.441   1.001 -0.2758  0.1659 -0.0055
18734W        W34918   1.189   7.496  13.208 -0.0303  0.0251 -0.1558
18735W        W34919   7.750  13.745   3.973 -0.1434  0.0487  0.3399
18736W        W34920   8.586   3.053   0.005 -0.2068  0.1548 -0.0448
18737W        W34921  17.355  10.373  15.139 -0.2220 -0.1020 -0.1511
18738W        W34922  13.704   2.280   2.242 -0.0044  0.1325  0.3974
18739W        W34923  15.479  13.027   2.168 -0.1765 -0.1415 -0.1417
18740W        W34924   9.584   2.607   4.743 -0.0248 -0.1666 -0.4749
18741W        W34925  12.431  16.587  10.970  0.0990 -0.1905  0.1554
18742W        W34926   2.456  10.342  12.418 -0.0567  0.2721  0.2197
18743W        W34927  13.687   0.858   0.944 -0.0869 -0.1264  0.0822
18744W        W34928   2.701   9.970  15.651  0.3056 -0.1115 -0.0566
18745W        W34929   1.199   2.824  16.138  0.1173 -0.0429 -0.1517
18746W        W34930   9.060   0.849   3.644 -0.0395 -0.0549 -0.2089
18747W        W34931   9.780   6.886  16.336  0.1150  0.0018 -0.1108
18748W        W34932  16.757  15.298   3.848 -0.0538 -0.0248  0.0399
18749W        W34933  16.306  16.061  12.389 -0.1934 -0.0253  0.2266
18750W        W34934  16.371  11.231   5.941 -0.1571  0.1624  0.0020
18751W        W34935   7.105   0.916  16.219 -0.2624  0.2220 -0.3112
18752W        W34936   2.551  17.655   2.401 -0.2434 -0.1280 -0.3885
18753W        W34937  12.961   4.755  13.883 -0.0195 -0.0028  0.1906
18754W        W34938  14.635   1.679  13.147  0.0021  0.2968 -0.0251
18755W        W34939  10.314   8.247  14.455  0.1664 -0.0390  0.1013
18756W        W34940  15.956   5.440   1.109 -0.0517  0.0836  0.0499
18757W        W34941   6.642   6.290  12.678 -0.3153 -0.3148 -0.0071
18758W        W34942  14.019   3.281   4.944  0.2266  0.1600 -0.1406
18759W        W34943  14.213   0.197   0.626 -0.0940  0.0970 -0.0766
18760W        W34944  11.754   8.947   1.638 -0.0814  0.1898 -0.0597
18761W        W34945  11.232   0.438   1.479 -0.0766  0.0634  0.0812
18762W        W34946   4.188  14.614  13.186  0.2041 -0.2454 -0.0737
18763W        W34947   1.225  17.011   0.900 -0.0055  0.2097 -0.1294
18764W        W34948  15.741  14.264  14.701  0.0707 -0.0889  0.1758
18765W        W34949  15.778   8.886   1.422 -0.1285  0.0132 -0.0247
18766W        W34950  11.011   6.375  15.591  0.0018 -0.1605  0.0921
18767W        W34951   7.457  13.550   2.185  0.2101  0.0142  0.1130
18768W        W34952   6.001   5.036  16.095  0.2729 -0.0534 -0.0923
18769W        W34953   3.498   5.192   3.629 -0.1919  0.1834  0.0042
18770W        W34954   4.709   6.903  12.640  0.1129 -0.2620  0.0022
18771W        W34955   0.702  10.026   2.490 -0.0773 -0.3283 -0.0753
18772W        W34956  16.017   9.192   5.089  0.1648  0.0164 -0.1503
18773W        W34957   1.332  12.367  11.747 -0.0284  0.0384 -0.2398
18774W        W34958   2.932  15.239  13.108 -0.5072  0.0658  0.1879
18775W        W34959   9.652   5.624   0.959 -0.0675 -0.0174 -0.1022
18776W        W34960   2.306  10.062  11.201  0.1616  0.1517  0.2339
18777W        W34961  12.777   4.638  12.939 -0.0056  0.3390  0.1324
18778W        W34962   6.438  10.882  11.791 -0.1133  0.1710 -0.1403
18779W        W34963  16.863  13.615  13.985  0.0936 -0.2915  0.1606
18780W        W34964   5.892  14.761   1.426  0.0528 -0.2089  0.1689
18781W        W34965   1.779   5.078  15.107  0.0949 -0.1820 -0.1208
18782W        W34966   5.732   5.822   1.400  0.1493 -0.0455 -0.0478
18783W        W34967  17.940   0.287   1.384 -0.1082  0.0120 -0.3465
18784W        W34968   7.388   1.353  12.449 -0.4322 -0.1133  0.2894
18785W        W34969   7.052  12.018  13.056 -0.1599 -0.2287 -0.1279
18786W        W34970   0.396  15.592  11.784 -0.0724  0.1475 -0.0422
18787W        W34971  16.339   5.064   2.440 -0.1724  0.1970 -0.0631
18788W        W34972  15.738   7.459   2.271  0.0031  0.3470  0.1822
18789W        W34973  16.924   5.897   1.668  0.1960 -0.1338 -0.1464
18790W        W34974  10.311  17.780   3.734  0.0892 -0.3278 -0.2148
18791W        W34975   6.753  12.980   2.998 -0.1955 -0.2187 -0.1080
18792W        W34976   2.247  14.795   5.320  0.1898  0.1005  0.1005
18793W        W34977  17.116  13.706  14.815 -0.0235 -0.1869 -0.1526
18794W        W34978   4.375   6.217   3.345  0.2078 -0.1967 -0.2791
18795W        W34979  11.410   5.900   1.166 -0.1803 -0.1274 -0.1993
18796W        W34980   1.523  16.275   4.722  0.1485  0.1192  0.0779
18797W        W34981  10.083   9.826   1.579 -0.0558  0.0677 -0.1710
18798W        W34982  15.976   1.171   3.175  0.0956 -0.0668 -0.1079
18799W        W34983  11.147   5.123  15.122  0.3296 -0.0527 -0.1611
18800W        W34984   8.370   8.899   4.262  0.3302  0.1236 -0.1496
18801W        W34985  17.345   2.486  15.691  0.2971  0.2030 -0.0301
18802W        W34986   9.847   9.943   0.966 -0.0128  0.0071 -0.3825
18803W        W34987  12.340   2.982  15.752 -0.1431 -0.0173 -0.4381
18804W        W34988  14.530  14.799   1.279  0.1654 -0.3542  0.0726
18805W        W34989   1.545  15.574  14.141  0.3304  0.1879  0.1542
18806W        W34990   8.283  10.340   0.137  0.1637 -0.0379 -0.2153
18807W        W34991   8.478   7.385   2.378  0.0932  0.0482 -0.0375
18808W        W34992   4.346   9.720  15.326 -0.1630 -0.2605 -0.1943
18809W        W34993   9.934  12.506  15.515  0.0736 -0.1074 -0.1470
18810W        W34994   2.294  17.015   5.561  0.1584  0.0119 -0.0034
18811W        W34995   2.719  12.943  12.520  0.1021 -0.0060  0.0751
18812W        W34996  13.708  17.780  15.852  0.0862  0.0528 -0.2024
18813W        W34997   4.336  17.263   3.999  0.1082 -0.0092  0.0283
18814W        W34998  13.335   3.880   0.821  0.0847 -0.2656  0.0230
18815W        W34999   6.686  13.514   5.336 -0.1086  0.1884  0.3138
18816W        W35000  17.487   3.057  12.798  0.0584  0.4213 -0.0274
18817W        W35001  11.852   6.660   0.080 -0.2940  0.0315  0.0976
18818W        W35002   0.972  15.847  12.278 -0.2134 -0.1980 -0.0857
18819W        W35003   1.664   4.381   1.624  0.0471 -0.1189 -0.1961
18820W        W35004   9.032   9.532   6.313 -0.1285  0.1636 -0.1283
18821W        W35005   5.009   5.023   5.163 -0.0998  0.1989 -0.1969
18822W        W35006   9.858  15.182   2.109 -0.1049 -0.4762  0.2281
18823W        W35007   9.790  12.440   5.992 -0.0815 -0.2085 -0.0244
18824W        W35008   0.950  10.222   1.467 -0.0074  0.0954  0.0774
18825W        W35009   2.745  10.647   2.464  0.1673 -0.2749 -0.0225
18826W        W35010   9.324  13.125   2.309 -0.1170  0.2199  0.0282
18827W        W35011  16.027  11.069   0.119 -0.1764  0.1007 -0.4642
18828W        W35012   5.658   9.320  14.065  0.1634 -0.0959  0.0752
18829W        W35013  10.475  14.313  16.487 -0.1407 -0.2493 -0.0941
18830W        W35014   5.181  17.041  14.394  0.0487 -0.0462  0.0933
18831W        W35015   5.489  10.708   1.905  0.1074 -0.1980 -0.1605
18832W        W35016  15.762   9.602  13.475 -0.4715  0.1591 -0.1351
18833W        W35017   9.559   4.346   4.042  0.0108  0.2189  0.0610
18834W        W35018   5.899  13.439  14.490 -0.1514  0.0236 -0.2292
18835W        W35019   1.748  11.992   4.894 -0.2643 -0.1824 -0.2552
18836W        W35020   0.826   8.475  14.155 -0.1280 -0.1544  0.2643
18837W        W35021   8.824  11.467   0.647  0.0660 -0.0571  0.0363
18838W        W35022   4.445  15.518  16.311 -0.0427  0.2845  0.0764
18839W        W35023  16.902   6.038   4.686  0.0762 -0.1410  0.0203
18840W        W35024  17.040   1.586   5.613 -0.0525 -0.1399 -0.0058
18841W        W35025  11.198   5.727  12.295 -0.0688  0.1132  0.0774
18842W        W35026  17.053  15.701   0.210 -0.0391  0.0726 -0.1240
18843W        W35027   6.957   1.578  13.696 -0.1376 -0.1583  0.1821
18844W        W35028  10.763  12.312   5.697 -0.2256  0.3396  0.0499
18845W        W35029  17.365   2.441   4.595  0.0644 -0.0135  0.1843
18846W        W35030   0.573   4.117   0.604 -0.0462  0.3032  0.3997
18847W        W35031  14.299   0.422  14.502  0.1726 -0.1656 -0.1740
18848W        W35032  17.054   3.637  11.494 -0.0638 -0.0869  0.1346
18849W        W35033   5.869  14.252   4.328 -0.0004  0.1868  0.1638
18850W        W35034  12.924   0.526  15.066 -0.0574 -0.0334  0.4628
18851W        W35035  11.598   3.508  14.250  0.0610 -0.0011  0.2448
18852W        W35036  12.041  16.810  13.966 -0.2229 -0.0150 -0.1998
18853W        W35037  10.414   4.499   0.255  0.0769  0.2317  0.3419
18854W        W35038   4.220   7.923   5.882 -0.2141  0.0749 -0.2351
18855W        W35039   6.729   4.014  16.166  0.1089  0.0280  0.2554
18856W        W35040  16.900   7.348  13.934 -0.0231 -0.2298  0.2910
18857W        W35041   9.081   5.536   4.585 -0.2370  0.1098 -0.0140
18858W        W35042   3.304  16.691   4.396 -0.0371  0.3339  0.0089
18859W        W35043   6.969   2.786   2.475  0.0484  0.0427  0.0540
18860W        W35044   9.893   8.030   5.279  0.0824 -0.2312  0.1198
18861W        W35045   3.383  17.157  15.683  0.0068  0.2572  0.2716
18862W        W35046   2.699  15.984  16.039 -0.0588 -0.0023  0.0115
18863W        W35047  12.608  10.982   2.507  0.0184  0.1758  0.2474
18864W        W35048   7.582   8.244   5.086  0.2545  0.3429  0.0322
18865W        W35049  10.784  10.568  11.639  0.1678 -0.3476  0.1981
18866W        W35050  15.404   5.013  14.325 -0.1021  0.1520 -0.4035
18867W        W35051   2.915  10.467   0.412 -0.0197  0.2904  0.0134
18868W        W35052   9.400  15.195  14.840 -0.0884  0.0836  0.2293
18869W        W35053  14.093   5.579   3.326  0.0292 -0.3641  0.1538
18870W        W35054   8.827   8.565   2.077  0.1523 -0.0238  0.1968
18871W        W35055   8.256   9.658  13.252  0.3502  0.2129  0.0168
18872W        W35056   3.276   2.727   0.555 -0.0711  0.1483  0.3966
18873W        W35057   6.050   5.532   2.836  0.0343  0.0795 -0.2303
18874W        W35058   8.932   7.046   2.373  0.1144  0.0745  0.1137
18875W        W35059  12.254   6.883  16.381 -0.2958  0.1976  0.3038
18876W        W35060  10.450  10.799  14.860 -0.0538  0.0472  0.0959
18877W        W35061   6.259   8.397  11.542  0.0520 -0.2354 -0.1583
18878W        W35062  16.922   1.169   1.820  0.0723 -0.1353 -0.2037
18879W        W35063   2.234   5.625  14.448  0.1881 -0.1116 -0.0837
18880W        W35064   7.509  17.991  16.630  0.0384 -0.1104 -0.1328
18881W        W35065  13.976  10.888  13.868  0.3451  0.0086  0.2237
18882W        W35066   7.472   3.390  12.032 -0.0313  0.0221  0.0541
18883W        W35067   8.088   4.749  15.449 -0.2366  0.0765  0.0712
18884W        W35068  16.397  17.077   3.558 -0.1414 -0.0640 -0.2305
18885W        W35069  11.426  10.085   2.569 -0.0700  0.0765 -0.0043
18886W        W35070   8.448   4.502   2.358  0.0117 -0.0267  0.1345
18887W        W35071  11.654  14.798  16.640  0.0669 -0.0168  0.1915
18888W        W35072   8.084   2.145   3.929 -0.0457 -0.0056  0.1241
18889W        W35073   1.905  12.425  12.959  0.1691 -0.0269  0.3203
18890W        W35074  10.787   4.825   6.057  0.0252  0.0202  0.1564
18891W        W35075   6.160   2.237   4.774  0.0437  0.1367 -0.1426
18892W        W35076   0.323  15.086  15.608  0.0253 -0.0446 -0.1365
18893W        W35077   3.389   5.839   3.518  0.3411  0.0448  0.0165
18894W        W35078   7.144  12.526  15.176 -0.0903 -0.1651 -0.0261
18895W        W35079   3.125  13.782  16.355 -0.0358 -0.1420 -0.3057
18896W        W35080  11.258  11.544  12.998  0.2969 -0.0156 -0.1047
18897W        W35081  11.712   5.816   0.330  0.1804 -0.0784 -0.1003
18898W        W35082   0.045   2.374  14.881  0.1217 -0.2578  0.1672
18899W        W35083  11.328  17.479   5.153 -0.2315  0.0459  0.1335
18900W        W35084  12.115   9.583  13.683  0.3297 -0.1603  0.0399
18901W        W35085  12.935   1.315  15.608  0.0411  0.1698 -0.1944
18902W        W35086   8.482   6.872   2.415  0.1187  0.1415 -0.0924
18903W        W35087   2.725  13.651   2.166  0.1898 -0.1833 -0.0784
18904W        W35088   4.264   5.278   5.586  0.0648  0.1453  0.0505
18905W        W35089  14.821   1.570  11.650 -0.1198 -0.0782 -0.2098
18906W        W35090  17.152   0.498   4.891  0.1390 -0.2499  0.3451
18907W        W35091   0.970   0.740  12.181  0.0835  0.3323 -0.0965
18908W        W35092  14.124  12.473  11.748 -0.1533 -0.0660  0.0947
18909W        W35093   6.143   2.378   0.719  0.0276  0.0183  0.0178
18910W        W35094   5.163  10.896   1.563  0.2391 -0.0392  0.4199
18911W        W35095   2.648   0.843  15.750  0.0364 -0.0989  0.1013
18912W        W35096   8.293  17.348   6.234  0.0405  0.0318  0.0188
18913W        W35097   6.815   2.621   3.394  0.3032  0.1152  0.2415
18914W        W35098  14.218   5.411   0.156 -0.1236  0.0787  0.0741
18915W        W35099  15.563  17.263  16.028  0.0653  0.1740  0.1401
18916W        W35100   6.136   8.489  12.189 -0.1626 -0.4522  0.1078
18917W        W35101  11.869  16.685  14.530 -0.2229  0.0854 -0.2211
18918W        W35102   3.996  10.077  14.482 -0.0403 -0.0017 -0.4422
18919W        W35103   4.841   0.303   2.933 -0.1251 -0.0879  0.0043
18920W        W35104  14.992   9.701   2.088  0.2771 -0.1342 -0.0201
18921W        W35105  15.622   8.403  14.797 -0.0185 -0.1524  0.1559
18922W        W35106   6.064  13.501   3.407 -0.0478  0.0738  0.0457
18923W        W35107   5.673   2.986   1.836 -0.0418  0.3424  0.2374
18924W        W35108   4.872  11.364  12.504  0.1483  0.0806  0.0714
18925W        W35109  17.625   7.798  13.560  0.1217 -0.1950 -0.3226
18926W        W35110   3.093   9.352  14.936 -0.1348  0.0341  0.1369
18927W        W35111   3.397   0.470  16.126 -0.1281 -0.2146  0.3686
18928W        W35112  11.075  15.863  11.916 -0.3151  0.1022 -0.1455
18929W        W35113   5.030   5.442  14.263 -0.0117  0.0702 -0.0412
18930W        W35114  13.440  11.527   3.481  0.0149 -0.2213 -0.1655
18931W        W35115   9.894   5.591  13.053 -0.1169  0.1541 -0.2101
18932W        W35116  11.082  12.525   5.141 -0.0422 -0.3419  0.0749
18933W        W35117   6.381  10.567   0.636  0.0811  0.2488  0.3065
18934W        W35118   8.591  12.879   1.733  0.0045  0.1870  0.4015
18935W        W35119   4.639   2.320  14.693  0.0133 -0.0860 -0.0899
18936W        W35120  17.233   4.270  16.460  0.3132 -0.2740  0.1357
18937W        W35121   1.395   0.920  16.686 -0.1564  0.3338 -0.1208
18938W        W35122  12.805  12.244   3.218 -0.0041  0.1535 -0.1442
18939W        W35123  12.025   6.884   5.041 -0.1890  0.1170  0.0585
18940W        W35124  13.950   9.324   0.648  0.2209 -0.1974 -0.3484
18941W        W35125   4.116  16.755  11.872  0.1550  0.1265 -0.1173
18942W        W35126   1.954  10.824   2.335 -0.0646 -0.0333 -0.2094
18943W        W35127  10.980   5.258  12.203 -0.0405  0.1103  0.1850
18944W        W35128   0.148  10.267   1.913  0.0416  0.2304  0.1838
18945W        W35129  11.116   4.508  15.227 -0.1932 -0.1191 -0.0474
18946W        W35130  13.593   8.116   5.026  0.0090 -0.3086 -0.0783
18947W        W35131  14.865   7.948   3.070 -0.0543 -0.0055  0.0264
18948W        W35132  16.983   8.738   3.965  0.3616 -0.2404  0.2946
18949W        W35133   6.395  16.592   2.529 -0.1383 -0.2788  0.3486
18950W        W35134  13.294   4.497   3.466 -0.1557 -0.1333  0.2164
18951W        W35135   2.283   3.414  16.463 -0.2454  0.3372  0.0905
18952W        W35136   6.358  15.890   0.932 -0.1153 -0.2531  0.0704
18953W        W35137  14.569  15.811   3.348 -0.4611  0.0904  0.0551
18954W        W35138   0.862  17.382  10.270  0.1884  0.1146 -0.0455
18955W        W35139  10.067   4.406  15.437  0.2430  0.2095 -0.2643
18956W        W35140  15.693   5.671   4.457  0.0377 -0.4541  0.1150
18957W        W35141   7.847   5.064  15.925  0.2306  0.0985  0.0692
18958W        W35142  10.327   4.474   2.134  0.1797  0.4124  0.0708
18959W        W35143  15.803  11.438  14.178 -0.0386  0.2110  0.0873
18960W        W35144   4.343   3.410  12.124  0.0020 -0.1655 -0.0646
18961W        W35145  12.796  17.342   2.271  0.1926 -0.0883 -0.0459
18962W        W35146  16.846  12.938   3.928 -0.2483  0.0050  0.0647
18963W        W35147   5.481   6.625   3.555 -0.0322  0.4325 -0.3758
18964W        W35148  16.542  15.930   6.117  0.1135 -0.0976  0.2166
18965W        W35149   1.998   4.365  15.973 -0.1036 -0.1204  0.1862
18966W        W35150  16.780  12.284   1.370 -0.1475  0.0268 -0.1742
18967W        W35151   8.417  12.155   3.664  0.0443 -0.2170  0.1038
18968W        W35152   3.046   5.139   3.332  0.1645  0.2371 -0.0583
18969W        W35153   8.223  11.902   4.663  0.1018  0.1902 -0.0563
18970W        W35154   8.093  12.541   0.532 -0.0131  0.2051  0.0304
18971W        W35155  13.067  17.394  16.457 -0.1404  0.2946 -0.1775
18972W        W35156   7.975  15.695  12.042  0.0817  0.1835  0.1288
18973W        W35157   5.333   2.277   3.533  0.2436 -0.1004  0.1444
18974W        W35158   1.601  12.415  13.457 -0.1800  0.0877  0.2282
18975W        W35159  17.479   1.019   4.110  0.0406 -0.0726  0.5046
18976W        W35160  15.229  17.855   4.939  0.1536 -0.0182  0.0692
18977W        W35161  10.986  15.046   1.436  0.3051 -0.0586  0.2611
18978W        W35162   5.567   0.214  12.612 -0.0771 -0.1242 -0.0284
18979W        W35163  11.043   5.567   1.805 -0.1584 -0.0626 -0.0622
18980W        W35164  13.951  10.002  14.702 -0.3300  0.0503 -0.1437
18981W        W35165  14.387   8.203  13.027  0.0371 -0.1803  0.1339
18982W        W35166  13.623  11.304  16.177  0.0552 -0.3516 -0.1828
18983W        W35167  17.055   6.925  11.699  0.4154  0.0093  0.2943
18984W        W35168  15.515   1.256   1.310  0.0359  0.1835  0.1926
18985W        W35169   8.099   3.102  12.575  0.4848  0.2853 -0.1326
18986W        W35170  16.061  14.438  16.672 -0.0774 -0.2736 -0.0645
18987W        W35171  15.503   2.620  12.460 -0.1710  0.2189 -0.0302
18988W        W35172   7.067  15.413  14.970 -0.0256 -0.2528 -0.1416
18989W        W35173  12.405   7.054  12.190  0.2001  0.2579  0.5166
18990W        W35174  11.864   5.465  14.751  0.0659 -0.2591 -0.2589
18991W        W35175  17.791   7.703  14.598 -0.2017  0.1037  0.3321
18992W        W35176   9.756  11.915   1.755 -0.0471 -0.0062 -0.2402
18993W        W35177   7.947  15.329  15.593  0.0931  0.2277  0.2007
18994W        W35178   5.358   5.919  16.097 -0.3062  0.2418  0.4078
18995W        W35179   0.286  10.479   0.533 -0.0182 -0.0485 -0.1004
18996W        W35180   8.924  10.898  14.604  0.2529  0.0002 -0.2391
18997W        W35181   7.746  16.494  13.998  0.1201  0.0729 -0.3083
18998W        W35182  13.005   5.419   3.112  0.0084 -0.2451 -0.2737
18999W        W35183   2.969   7.106  11.970  0.1761 -0.0127 -0.0793
19000W        W35184   4.067   5.795   5.532 -0.1119 -0.0634  0.2629
19001W        W35185  12.138   1.551  14.877 -0.1217 -0.0263 -0.0604
19002W        W35186   2.315   5.355  12.357  0.0602  0.0323 -0.2190
19003W        W35187  13.133   8.096   0.907 -0.0669 -0.0452 -0.1534
19004W        W35188  17.511   1.495   0.636 -0.2304 -0.0869  0.0763
19005W        W35189  11.659   1.012  11.991 -0.2631  0.0942 -0.0729
19006W        W35190   3.796   6.094  11.938 -0.0995 -0.0577  0.1290
19007W        W35191   9.819   4.722  14.161 -0.1660  0.0501 -0.0817
19008W        W35192  15.327   5.258   2.912  0.0671 -0.1598 -0.3107
19009W        W35193  10.207  15.958  14.913 -0.1436  0.3289  0.1561
19010W        W35194  10.035  15.741   4.731  0.1444  0.2179  0.3422
19011W        W35195  11.799   0.450  10.280  0.2658  0.0086 -0.0784
19012W        W35196   5.242   0.526  12.409  0.0024  0.0315 -0.0766
19013W        W35197   8.478   3.870  15.521  0.4027 -0.2428 -0.0116
19014W        W35198   1.991   4.966  12.363  0.0631  0.3018  0.2791
19015W        W35199   5.364   8.914  15.769 -0.1711  0.1988 -0.1678
19016W        W35200   7.492  15.930   5.152 -0.0311 -0.1814  0.2317
19017W        W35201  13.501  12.618  16.353  0.1331  0.0246  0.0802
19018W        W35202   6.299  14.612  13.544 -0.3893  0.3033 -0.0477
19019W        W35203   0.470   7.356  14.344 -0.2180 -0.1244  0.2392
19020W        W35204  11.593   4.430  15.409  0.0371 -0.0103 -0.0642
19021W        W35205  13.438   0.250   5.485  0.0083  0.1946  0.0929
19022W        W35206  11.012   8.880   5.916  0.2982 -0.0160  0.1909
19023W        W35207   9.617   6.176   1.352  0.2631  0.0974 -0.1510
19024W        W35208   4.616   3.918  13.915 -0.1252 -0.1707  0.1618
19025W        W35209  17.435   4.177  12.597  0.2148  0.0370 -0.1519
19026W        W35210  13.232   3.488  11.309  0.2276  0.1138 -0.0875
19027W        W35211   5.955  15.528  14.642  0.1619  0.0626 -0.0513
19028W        W35212   8.393   8.593  15.060  0.2278 -0.1770  0.2731
19029W        W35213   0.375  14.257  15.827  0.0589  0.5196 -0.0244
19030W        W35214  10.119   9.322   1.557 -0.0480  0.2642 -0.0918
19031W        W35215   2.090  17.073   5.153  0.1717 -0.2274  0.3002
19032W        W35216  14.918   5.584  13.745 -0.0736  0.1941 -0.1028
19033W        W35217  12.190  12.785  13.102 -0.1975  0.1830 -0.0603
19034W        W35218  13.366   5.938  12.328 -0.0291  0.1156  0.1354
19035W        W35219   7.768   9.634   5.596  0.1320 -0.0875 -0.0069
19036W        W35220   6.470   4.274  12.451  0.1750 -0.2792 -0.0184
19037W        W35221  12.146   7.838  15.863  0.1074 -0.1808 -0.0362
19038W        W35222   7.799  13.038   2.863 -0.1860 -0.0000 -0.0582
19039W        W35223  11.447  12.629  15.293 -0.3428 -0.0062  0.0724
19040W        W35224   6.648   8.721   4.926  0.2225 -0.0852  0.0746
19041W        W35225   1.340   6.312   5.357 -0.2253  0.1176  0.0089
19042W        W35226  15.513   4.638  16.099  0.4033 -0.0928 -0.1332
19043W        W35227   2.444   0.347  11.433  0.2559 -0.0868 -0.1037
19044W        W35228   2.282   0.011   2.667 -0.3055 -0.1994  0.0840
19045W        W35229   8.300  16.199   3.636  0.3320 -0.0163 -0.1079
19046W        W35230   5.233   3.129   3.645 -0.1493 -0.1214 -0.0925
19047W        W35231   5.122   4.766  12.830  0.1374  0.0350  0.1280
19048W        W35232   0.157  16.301   6.073  0.1373  0.0595 -0.1192
19049W        W35233   4.175   2.631  15.611  0.2215 -0.2440 -0.2859
19050W        W35234   8.032  14.148   4.090  0.0997  0.0752 -0.2649
19051W        W35235   7.964   0.285  12.576  0.0981  0.1147  0.2420
19052W        W35236   9.072  12.462  14.082 -0.2399 -0.1461  0.0882
19053W        W35237  11.541  10.440  15.393 -0.0445 -0.2179 -0.0406
19054W        W35238   9.332  17.859   3.867 -0.2521  0.0610  0.1317
19055W        W35239   5.806   0.369  13.543  0.0966 -0.0846  0.2511
19056W        W35240   6.726  16.273   3.436  0.0954  0.0961  0.1044
19057W        W35241  11.376  16.663   1.098 -0.1997  0.0453  0.0975
19058W        W35242   3.020   4.430   2.391 -0.0363  0.1684  0.1974
19059W        W35243  10.732  17.806  12.759  0.0252  0.0690  0.2548
19060W        W35244  11.115  12.980  14.738 -0.0581 -0.2481  0.1187
19061W        W35245   5.885  17.292   5.246  0.1134  0.3996  0.3834
19062W        W35246   2.832  11.396   1.967  0.0166 -0.0725 -0.0926
19063W        W35247   4.513  15.110  13.005 -0.2535  0.0567 -0.0301
19064W        W35248   8.284  14.869  12.631 -0.1563  0.1647  0.0020
19065W        W35249  13.092   3.866  13.915 -0.1772  0.0846 -0.0536
19066W        W35250  15.612   3.610   4.879 -0.1688  0.0413  0.0391
19067W        W35251   7.296  11.157  16.522 -0.1940  0.2068 -0.2729
19068W        W35252   9.335   7.441   6.485  0.0019 -0.1983  0.2179
19069W        W35253   7.012   1.411   2.728 -0.1654  0.3352  0.0889
19070W        W35254   1.802  14.290   2.266 -0.1023 -0.0126 -0.0510
19071W        W35255  13.345  10.178   0.058  0.1663 -0.2401  0.3651
19072W        W35256   1.184   6.110   2.273 -0.4068 -0.2627 -0.0924
19073W        W35257  17.483   8.930   1.379  0.1152 -0.3688 -0.0345
19074W        W35258  12.924   3.449   1.118  0.3776 -0.2691  0.0261
19075W        W35259  17.780  13.165   3.945  0.0248 -0.0440  0.0298
19076W        W35260  11.287   4.240   2.049 -0.1034 -0.0938 -0.1920
19077W        W35261  12.680   9.464  12.634 -0.0443 -0.5218  0.1575
19078W        W35262  15.305   6.174  13.111  0.0281 -0.4716 -0.2349
19079W        W35263  16.802   1.859  11.262  0.0038 -0.0235  0.1069
19080W        W35264  16.017   2.289   0.821 -0.1088 -0.1953 -0.0586
19081W        W35265   8.401   6.771  15.200 -0.0794 -0.2028  0.0681
19082W        W35266   8.159   9.146   1.523  0.0025 -0.0150 -0.0285
19083W        W35267   0.280  14.325   4.145  0.2916 -0.0107 -0.1908
19084W        W35268  11.855   3.430   0.338 -0.3114  0.0714  0.0884
19085W        W35269   3.425  17.380   3.768 -0.2108  0.0373 -0.2979
19086W        W35270   1.738  14.995   3.004  0.2474  0.1289  0.1361
19087W        W35271   2.452  16.253   5.650 -0.0197  0.7227  0.1511
19088W        W35272   8.223  11.712  14.246  0.0424 -0.0130 -0.3044
19089W        W35273   4.938  13.267   4.071 -0.0678 -0.1292 -0.0424
19090W        W35274   9.551   6.195  15.889 -0.0483  0.1890  0.2664
19091W        W35275  11.063  17.671   3.247 -0.0017 -0.0788  0.1394
19092W        W35276  12.996   8.899   2.664  0.0140  0.1525 -0.1269
19093W        W35277   2.277  14.796   4.293 -0.2218  0.0122  0.0026
19094W        W35278  17.447   3.683   1.880  0.2311  0.0553 -0.0083
19095W        W35279  17.853   3.754   2.816  0.2480  0.2104  0.2015
19096W        W35280  13.618  16.215  14.444  0.0337 -0.0825 -0.0048
19097W        W35281   5.386   2.851  12.232  0.0255  0.3343  0.3174
19098W        W35282   3.237  16.038   3.799 -0.1153  0.0316 -0.4416
19099W        W35283   9.247  16.442  16.516 -0.2181 -0.0625 -0.1934
19100W        W35284   2.328   9.354   1.286  0.1830  0.0452  0.3705
19101W        W35285   6.709  16.115  14.966  0.0811  0.2282  0.0429
19102W        W35286  12.561   1.491   5.409  0.2106  0.0124  0.1468
19103W        W35287   3.298   0.119  11.712  0.2182 -0.1247  0.0249
19104W        W35288   0.966   9.877   4.819 -0.0725  0.1651 -0.0752
19105W        W35289   5.050  11.271  12.017 -0.1794  0.1772 -0.0285
19106W        W35290  10.975   9.224  13.860 -0.0212 -0.0261  0.0453
19107W        W35291  11.397  14.638  15.554  0.0387 -0.2784  0.1887
19108W        W35292   5.895   2.618  14.461 -0.3338  0.1552 -0.2016
19109W        W35293  14.564  11.769  11.135 -0.3006  0.0173  0.2459
19110W        W35294   6.886   5.071  12.754  0.2002  0.3212  0.1551
19111W        W35295   9.109   1.232  10.536 -0.2104 -0.1546 -0.1310
19112W        W35296  13.681   1.484  11.110 -0.0117 -0.2115 -0.1809
19113W        W35297  10.993  16.288  15.042  0.1347 -0.2019  0.3220
19114W        W35298   9.596  16.211   4.619 -0.0696 -0.2807 -0.0170
19115W        W35299   5.518  17.619  16.210 -0.2528  0.1334 -0.1652
19116W        W35300   9.451  14.431   4.813  0.2086 -0.2409  0.1290
19117W        W35301  13.334   3.108   2.559 -0.0264  0.1557  0.0327
19118W        W35302  14.448   9.076   0.775  0.0590 -0.1117 -0.1003
19119W        W35303  16.717   8.666   5.433 -0.0279 -0.0926  0.1498
19120W        W35304  16.194   8.926  15.772 -0.1054  0.1338  0.2943
19121W        W35305  16.571   3.058  12.625  0.0585  0.2441  0.3204
19122W        W35306  12.484   7.215   4.419 -0.3905  0.0622  0.1775
19123W        W35307  17.634  15.359  12.488 -0.0331  0.1633 -0.3374
19124W        W35308  13.979  11.374   2.894  0.1129 -0.2298  0.0573
19125W        W35309  15.508   4.525   5.078  0.2567  0.5280  0.1797
19126W        W35310   9.642  12.958   3.869 -0.1039 -0.3657  0.2966
19127W        W35311  12.448  17.987   2.950  0.2702  0.1894  0.3832
19128W        W35312  16.787   9.204   3.965 -0.1333 -0.0012  0.1597
19129W        W35313  11.565   3.167  11.385 -0.0543  0.1408 -0.1143
19130W        W35314  10.409  15.525   5.019  0.0985 -0.2424  0.1351
19131W        W35315   3.089   1.634   2.129  0.1433  0.2716 -0.0950
19132W        W35316   1.377   3.115  15.766  0.3156  0.2786  0.0085
19133W        W35317  10.397   1.637  14.154  0.1902  0.0282 -0.0675
19134W        W35318   8.324  13.752   1.557  0.2084 -0.1091 -0.0423
19135W        W35319  14.196  16.767  13.020 -0.0136  0.3151 -0.1046
19136W        W35320   7.010   0.407  12.497  0.1364  0.1148  0.1252
19137W        W35321   9.990   9.243   5.251 -0.1809  0.0727  0.0607
19138W        W35322  13.794   5.146  15.321 -0.0170  0.1225 -0.2824
19139W        W35323  14.212   1.380  12.963  0.0402 -0.0387  0.4621
19140W        W35324   8.747   0.699   4.712  0.1645 -0.1359 -0.1090
19141W        W35325   8.245   7.813   0.975 -0.0476 -0.1558  0.0909
19142W        W35326   3.041   3.867   2.080 -0.2113 -0.4105 -0.0588
19143W        W35327  12.533  11.219   2.051 -0.2437 -0.1736  0.0814
19144W        W35328  12.633  17.504   0.704 -0.2580  0.1952  0.0735
19145W        W35329  16.805   4.751  14.648  0.3899  0.0428 -0.1141
19146W        W35330  15.190  12.186  15.534 -0.1970  0.1465  0.0746
19147W        W35331   5.754   2.322   2.655 -0.1555 -0.1151 -0.0815
19148W        W35332  12.886   8.881  14.779 -0.0298  0.1125  0.0687
19149W        W35333  15.719  12.606   0.871 -0.3169 -0.0104 -0.1489
19150W        W35334   5.581  13.559  16.063 -0.0487  0.0358 -0.1009
19151W        W35335   5.926   5.576   3.339  0.1401 -0.0789 -0.1413
19152W        W35336  14.733   7.666   0.400 -0.2725  0.0382 -0.1718
19153W        W35337   9.838   0.642   0.748 -0.0713 -0.1402  0.0334
19154W        W35338  14.595   1.623   4.933 -0.2014 -0.0713 -0.4154
19155W        W35339  13.950   7.751   4.902  0.0940 -0.4354 -0.0179
19156W        W35340   7.380  10.301   0.340  0.0533 -0.1840 -0.0378
19157W        W35341   7.986   7.886  15.966  0.2368 -0.2520  0.3521
19158W        W35342  10.188   3.272  11.632 -0.0878  0.0933  0.0609
19159W        W35343   5.426   2.793   3.337  0.0348  0.3784 -0.1430
19160W        W35344   4.212  10.661   0.872 -0.1072 -0.0868  0.2171
19161W        W35345  13.734   1.270  11.952 -0.3232  0.0714  0.0155
19162W        W35346  15.456   2.962   1.776 -0.0465 -0.2227  0.3267
19163W        W35347   1.921   4.668  15.504 -0.1397 -0.1354 -0.2470
19164W        W35348  13.944  16.021   0.939 -0.1219 -0.1655  0.0186
19165W        W35349   7.054  17.811   0.276 -0.0112 -0.2198  0.1231
19166W        W35350  15.158   1.571   4.181  0.1158  0.4163 -0.3415
19167W        W35351  11.663   5.691   3.084  0.0471  0.0869  0.2999
19168W        W35352  12.660   0.601   1.919  0.0102 -0.0540 -0.0105
19169W        W35353  11.543  14.176  14.713 -0.0518  0.2731  0.1947
19170W        W35354  13.132   0.716   5.536 -0.3119  0.2533  0.1911
19171W        W35355   6.044   8.514  15.687  0.3798 -0.1670 -0.0238
19172W        W35356   5.424  11.254   4.767 -0.1083  0.1160 -0.1737
19173W        W35357   7.974   9.135   0.147  0.4008 -0.0948 -0.0770
19174W        W35358   6.512   6.226  13.511  0.4122  0.0684  0.0266
19175W        W35359   1.747  15.500  14.584 -0.0981 -0.3579  0.3070
19176W        W35360  12.254   0.580   1.261  0.2147 -0.0643 -0.0904
19177W        W35361  16.521   0.785  16.486  0.1507  0.3470  0.0581
19178W        W35362  14.164   2.391  15.870  0.0031  0.0170  0.1081
19179W        W35363   5.935  16.396   3.737 -0.0235 -0.1724  0.0267
19180W        W35364  12.281   3.531  13.607  0.0988  0.1332 -0.1842
19181W        W35365  12.489  11.177  12.467 -0.0870  0.0845  0.3108
19182W        W35366  11.148   4.898   2.554 -0.1000  0.2961 -0.0639
19183W        W35367   7.464  16.029   1.846  0.0447  0.4248  0.0459
19184W        W35368   2.582   0.616  15.231  0.2899 -0.0964  0.3358
19185W        W35369   8.021  13.462   3.533 -0.3337  0.0180 -0.1229
19186W        W35370  13.287   6.660  15.226  0.2147  0.0460 -0.0051
19187W        W35371   9.119   0.655  12.388 -0.4192 -0.0352 -0.1475
19188W        W35372  13.338  16.693   1.870 -0.0192  0.0914 -0.0926
19189W        W35373   3.053   0.135   5.193 -0.2190  0.1569  0.1771
19190W        W35374  17.949   1.665  12.522 -0.1299 -0.2341  0.2855
19191W        W35375   6.570  12.164   5.245  0.1655 -0.0941  0.2375
19192W        W35376  15.518  17.729   0.507 -0.0150  0.0360  0.0258
19193W        W35377  11.091   6.299   1.128  0.1726 -0.1159 -0.2945
19194W        W35378  14.960  17.943   5.363  0.0333 -0.0114 -0.0272
19195W        W35379  12.939   4.382   2.486  0.2779  0.0085  0.0058
19196W        W35380   3.240   0.466   1.891 -0.0045 -0.0865  0.2252
19197W        W35381  10.163   7.371   0.846 -0.4959 -0.0841  0.1250
19198W        W35382  10.598  10.988   5.076  0.0391  0.0809 -0.1955
19199W        W35383   3.289  11.272   2.848  0.4841 -0.1637  0.0493
19200W        W35384  14.787   8.321   1.863  0.1418 -0.0269 -0.0231
19201W        W35385  16.406  11.298   4.178 -0.0036 -0.0637 -0.0128
19202W        W35386   6.587   4.984   2.113  0.2796  0.0593 -0.2273
19203W        W35387   6.544   5.422  16.579 -0.1458  0.1561  0.0525
19204W        W35388   5.805  17.140  12.243 -0.1693  0.2086 -0.0850
19205W        W35389   1.912  11.150   0.054 -0.1762  0.0285  0.2830
19206W        W35390  16.190   2.035  16.505  0.0206 -0.0163 -0.0524
19207W        W35391  11.081  12.707   4.197  0.0418  0.2242  0.1349
19208W        W35392  12.050  13.975   0.965  0.0430 -0.0547 -0.1034
19209W        W35393  14.114  13.735  16.285  0.0641  0.1457 -0.2440
19210W        W35394  16.358   1.585  11.210 -0.0967  0.0759 -0.4596
19211W        W35395  18.005   2.608  12.412 -0.1126  0.0920  0.1582
19212W        W35396   1.308   8.083   5.310 -0.1660  0.0242  0.3918
19213W        W35397   0.060   5.365  12.709 -0.0040  0.0021  0.3007
19214W        W35398   3.692   4.195  15.542 -0.3278  0.0409  0.1793
19215W        W35399   9.242   1.036  13.163 -0.1862 -0.1918 -0.1771
19216W        W35400   0.317   1.153  12.594  0.3069 -0.1982  0.1031
19217W        W35401  13.958   1.935  10.910  0.1319  0.1674  0.0770
19218W        W35402   0.659  13.074   0.182 -0.1369 -0.1042  0.2467
19219W        W35403  12.036  10.845  12.308  0.0101 -0.0829  0.2260
19220W        W35404  16.232   1.100   1.883 -0.2888  0.0668 -0.2498
19221W        W35405   3.569  17.747   1.865 -0.3508  0.0909 -0.1054
19222W        W35406  13.907   1.560   0.472 -0.0195 -0.0142  0.1543
19223W        W35407  10.886  14.656   3.635 -0.0614 -0.1820 -0.2597
19224W        W35408   6.830  17.573  12.465 -0.0610  0.1718 -0.0287
19225W        W35409  14.702  10.865  11.860  0.0867 -0.2954  0.4203
19226W        W35410   0.436  11.212  14.401  0.3737  0.0055  0.1979
19227W        W35411   1.590   5.109   2.304  0.2782 -0.0719  0.1861
19228W        W35412  13.736   9.510  13.660  0.0296 -0.3637  0.1223
19229W        W35413  15.006   7.915   5.596  0.0983 -0.0968  0.0834
19230W        W35414  16.109   5.017   2.893  0.1286  0.2065 -0.1680
19231W        W35415   6.864   6.798   5.565  0.3596  0.2342  0.0851
19232W        W35416  14.279   9.809  16.600  0.3435 -0.0656 -0.0569
19233W        W35417   3.275   1.617  12.797  0.0741  0.2505 -0.2817
19234W        W35418  12.735  12.178   1.668  0.2450 -0.1449  0.0966
19235W        W35419   9.013  15.856  11.381 -0.1387  0.2216  0.0303
19236W        W35420  12.700   5.330  12.440  0.0675 -0.2813 -0.0180
19237W        W35421   7.755   2.069  12.690 -0.0542 -0.0263  0.2504
19238W        W35422  12.287   5.103   4.700 -0.0992 -0.2083 -0.1269
19239W        W35423   7.235   4.594   5.077 -0.1664  0.0597 -0.0056
19240W        W35424   0.532   2.832   2.589  0.0365 -0.1516  0.1908
19241W        W35425  17.504   9.781   2.300  0.1588 -0.0537  0.1482
19242W        W35426  13.506  13.615   4.949 -0.0935 -0.0693  0.0746
19243W        W35427   0.785  13.951  13.687  0.1150 -0.1624 -0.0166
19244W        W35428   9.900   6.501   3.824 -0.1587 -0.1163  0.1543
19245W        W35429   1.474   8.898  13.540 -0.1760  0.0926  0.2788
19246W        W35430   5.228   9.057  14.989 -0.1393 -0.1363  0.1035
19247W        W35431  11.026   1.355  14.855  0.0627  0.1089 -0.1438
19248W        W35432   7.694  17.831  16.197  0.0162  0.1761  0.0901
19249W        W35433  17.869   1.648  13.612 -0.0089  0.2289  0.4246
19250W        W35434   0.109  11.131  15.305 -0.1329  0.1422  0.2005
19251W        W35435   0.239  14.491  14.956 -0.0043  0.3487 -0.0888
19252W        W35436  15.569   6.846   5.112  0.0183  0.2328  0.1139
19253W        W35437  12.249  15.903   5.415 -0.0782 -0.0513  0.0111
19254W        W35438   1.351  10.338   1.804  0.2004 -0.4374 -0.0631
19255W        W35439   5.719   5.435   5.094  0.2085  0.4166 -0.2374
19256W        W35440   3.046   3.432   2.344 -0.0506 -0.2241 -0.2154
19257W        W35441   3.857  17.329   1.921 -0.0801 -0.2844 -0.0188
19258W        W35442  16.457   6.865   2.076 -0.1525  0.2993  0.3346
19259W        W35443  17.803  17.487   3.173 -0.1022  0.0125  0.0039
19260W        W35444  10.786   8.605  12.368 -0.0319 -0.1292  0.1251
19261W        W35445  13.088   7.900   5.009 -0.1942  0.0891  0.1033
19262W        W35446   8.474   8.522   4.600  0.0018  0.0702 -0.1112
19263W        W35447   8.658   5.340  12.695 -0.2540  0.3391 -0.1213
19264W        W35448   4.576   1.500   4.003  0.1694  0.2840 -0.0643
19265W        W35449   4.967   1.713   3.789 -0.0439 -0.1364 -0.1011
19266W        W35450   8.878   4.684  15.585 -0.0111  0.0620 -0.1571
19267W        W35451  15.025   9.309  14.922  0.0781  0.0408 -0.0824
19268W        W35452  11.050  17.431   3.830  0.3975  0.1095  0.2573
19269W        W35453   2.843  16.832  12.996  0.0355 -0.2808  0.1274
19270W        W35454  17.344   6.125   3.809 -0.0725  0.2219 -0.1703
19271W        W35455   9.316  15.630  16.009  0.0178  0.0191  0.1490
19272W        W35456   9.172   6.072  13.700 -0.0756 -0.0924 -0.2945
19273W        W35457   4.597  10.352   0.884  0.0137 -0.1798  0.1631
19274W        W35458   1.276   3.162   0.873  0.1785  0.3139  0.0003
19275W        W35459  11.057   5.362   4.065  0.1517 -0.0159 -0.0452
19276W        W35460  17.421   4.173   5.921  0.1587  0.3099 -0.0461
19277W        W35461   3.303   3.480   1.321  0.2256 -0.0260 -0.0626
19278W        W35462   3.307   0.304  16.620  0.0847 -0.1343 -0.0913
19279W        W35463   3.057  10.004   2.538 -0.1892  0.4205  0.0048
19280W        W35464  16.856  11.425   4.067  0.3739 -0.2499 -0.0060
19281W        W35465   6.995   7.495   1.455 -0.0969 -0.2139  0.0820
19282W        W35466   2.753   9.441  14.558  0.1177 -0.0939  0.3354
19283W        W35467   0.296   2.408   2.394  0.0391  0.1486  0.0702
19284W        W35468  16.095   1.802   1.062 -0.0017  0.0275 -0.1358
19285W        W35469   4.077   4.608   1.307  0.0104  0.1737  0.0043
19286W        W35470   4.514  15.274   4.358 -0.0763  0.0466  0.2707
19287W        W35471   7.625  13.864   0.904  0.2639 -0.1490 -0.0312
19288W        W35472  13.669  13.460   4.029 -0.1075  0.0006 -0.0367
19289W        W35473   5.837  17.285  14.048 -0.2001 -0.0603  0.2195
19290W        W35474   6.983   4.155   2.412  0.1074 -0.0948  0.2528
19291W        W35475  14.252   2.014  15.221 -0.2207 -0.2900 -0.0750
19292W        W35476   4.917  11.842  12.982  0.0491  0.2903  0.0451
19293W        W35477   7.159   3.240   3.432 -0.1422  0.0723 -0.1266
19294W        W35478  16.802  11.840   3.213  0.3259 -0.2375  0.1059
19295W        W35479   5.161  16.990  16.589 -0.0665  0.0434  0.0736
19296W        W35480   8.392  11.252   2.462  0.3044 -0.1839 -0.0224
19297W        W35481   5.506   2.841  14.712  0.0927  0.2959 -0.1090
19298W        W35482   6.830   4.966   0.616  0.1943  0.1141 -0.0874
19299W        W35483  17.373   6.349   2.386 -0.0878 -0.2704  0.2429
19300W        W35484   0.126   0.013   4.076  0.2182  0.2885 -0.0865
19301W        W35485   0.847  11.033   0.605 -0.0269  0.0629  0.0266
19302W        W35486  11.017   6.900   6.149  0.0574  0.0559 -0.1672
19303W        W35487  10.962   0.382   1.936  0.2910  0.2864 -0.0169
19304W        W35488   8.926   0.358  14.819  0.0175 -0.0952 -0.1936
19305W        W35489  12.165   5.703  12.271 -0.0946 -0.1206 -0.2318
19306W        W35490   7.000  16.657   5.133 -0.1457  0.2036 -0.0368
19307W        W35491   2.205   1.549   4.255 -0.0557 -0.2551  0.1160
19308W        W35492   9.895   1.595  15.360 -0.0668  0.1949  0.0424
19309W        W35493  16.164   9.711   1.630 -0.0835  0.0583 -0.0976
19310W        W35494  13.454   0.311   1.584  0.0543  0.2798 -0.0646
19311W        W35495  12.964  16.428  16.358  0.1742 -0.0184  0.1961
19312W        W35496   6.494   7.586  13.097  0.0746 -0.0730  0.3616
19313W        W35497  17.420  13.497   5.199 -0.1395 -0.1835  0.2753
19314W        W35498  10.460  15.356  16.391 -0.0532  0.0022 -0.2015
19315W        W35499  16.340  12.945   4.911 -0.0600  0.0669  0.1947
19316W        W35500  15.895  14.578  15.828 -0.2393  0.1929 -0.0482
19317W        W35501  16.011   3.609   1.628  0.0408 -0.0376 -0.0175
19318W        W35502  16.739   5.833   5.209 -0.0243  0.1212  0.1102
19319W        W35503  11.583   0.533   2.736  0.1379 -0.0082 -0.3381
19320W        W35504  16.062   7.797   2.500 -0.3011 -0.0260  0.0237
19321W        W35505  17.660   8.414   3.320  0.0240  0.0520 -0.0491
19322W        W35506   2.872  12.657  16.067 -0.0501 -0.1743  0.0042
19323W        W35507   3.413  16.032   0.370  0.0639 -0.1299  0.0376
19324W        W35508   7.618  14.313  15.360  0.1615  0.3161 -0.2427
19325W        W35509   0.896  13.353   4.566 -0.3818 -0.1051  0.1309
19326W        W35510  15.981   7.370  13.847 -0.0602  0.0929 -0.1956
19327W        W35511  13.473  15.630   2.771 -0.2182  0.3433  0.2930
19328W        W35512  14.961  12.026  14.130  0.0033 -0.2501  0.1602
19329W        W35513   6.988   8.373   0.657 -0.2302 -0.0446 -0.4363
19330W        W35514  10.058  13.615   3.324 -0.0960 -0.2581  0.1690
19331W        W35515  16.732   5.273  14.949 -0.1049 -0.1713  0.0697
19332W        W35516  10.404   3.409   3.318 -0.2206  0.0710  0.0392
19333W        W35517   3.110  11.258   0.904  0.0757 -0.0298 -0.1447
19334W        W35518   6.991  13.505   4.857 -0.2906 -0.0701  0.2253
19335W        W35519   4.005   3.173   5.607 -0.1757  0.0146 -0.0283
19336W        W35520   6.877   6.796   4.709 -0.0685 -0.3280 -0.0351
19337W        W35521   9.799   5.729  15.621 -0.0333  0.0695 -0.0751
19338W        W35522  15.480  13.199  12.998 -0.1466 -0.2786  0.2278
19339W        W35523  12.650   7.640   3.017 -0.1422 -0.2864 -0.0794
19340W        W35524   5.781  13.861   5.283 -0.0272  0.1463  0.1741
19341W        W35525   5.525   9.336  14.570  0.1337 -0.0505  0.2515
19342W        W35526   9.023   6.862   3.750  0.0505  0.2996 -0.2970
19343W        W35527  14.233  16.198  16.190  0.0823  0.0984  0.1826
19344W        W35528  15.459   8.711   1.767  0.0614 -0.0543 -0.2121
19345W        W35529   9.445   7.162   3.911 -0.0763 -0.3276 -0.0961
19346W        W35530   4.604   5.118  15.318 -0.3436  0.3094 -0.0228
19347W        W35531  12.297   1.579   3.637  0.2202  0.0365 -0.3559
19348W        W35532   3.468  16.635   1.209  0.1483 -0.0002 -0.2073
19349W        W35533   1.238  17.323   9.999  0.0571  0.0863 -0.4079
19350W        W35534  15.749   4.158   3.369 -0.0348  0.0790  0.0448
19351W        W35535  10.190  17.203  15.401 -0.2954 -0.0368 -0.0036
19352W        W35536   1.175   8.233  11.314 -0.0082 -0.1974 -0.2027
19353W        W35537  16.557   8.349  12.182 -0.0237  0.1950  0.2459
19354W        W35538   2.285  11.426   1.302 -0.1489 -0.0130  0.1798
19355W        W35539  12.538   9.280  13.569 -0.1787 -0.0561 -0.2195
19356W        W35540   2.281  16.078  11.547 -0.0794  0.0089  0.2151
19357W        W35541  16.472   5.329   3.870  0.1091 -0.1941 -0.0073
19358W        W35542  12.071  14.007  13.900  0.3586  0.1597 -0.2500
19359W        W35543  17.109  10.174   2.470  0.2079  0.0295 -0.1397
19360W        W35544   4.612  13.360   1.032  0.0751 -0.2681  0.2870
19361W        W35545   5.856  10.124  12.026 -0.2681 -0.1823  0.0106
19362W        W35546   9.129   5.677   5.097 -0.4683  0.0031  0.0967
19363W        W35547  13.829   8.214  14.175  0.1009  0.0284 -0.1336
19364W        W35548  14.565  14.862  13.766 -0.2585  0.0971 -0.0928
19365W        W35549   5.706  16.398  12.802  0.1856 -0.0027 -0.0772
19366W        W35550  13.335   3.805  14.413  0.0106 -0.2346 -0.0011
19367W        W35551  16.109   1.521   2.182 -0.2876 -0.1190  0.0207
19368W        W35552  14.576   7.247  12.861  0.2193  0.0760  0.1428
19369W        W35553   1.241   4.843  16.624 -0.0093 -0.0146 -0.1901
19370W        W35554  14.826   0.633   3.497  0.1154  0.0202  0.1207
19371W        W35555   1.785   0.997   5.198 -0.1915  0.1210 -0.1934
19372W        W35556   7.716  15.185   1.341 -0.1142 -0.1547  0.1432
19373W        W35557   0.158  15.743   2.964 -0.1218 -0.0262 -0.2344
19374W        W35558  14.870  11.670  14.444  0.0995  0.1315 -0.1327
19375W        W35559   0.009  11.576   6.132  0.0821 -0.1118  0.0166
19376W        W35560  17.698  13.991  11.511 -0.0677  0.0734  0.0739
19377W        W35561   1.245  13.855   0.529 -0.2931 -0.0645  0.1022
19378W        W35562   2.871  17.040  12.434  0.1083  0.1252  0.0801
19379W        W35563  11.858  12.123   0.395 -0.2420  0.2232  0.1486
19380W        W35564   2.728  11.058   5.477  0.0458  0.1589 -0.1000
19381W        W35565  14.487   1.221  16.401 -0.3859 -0.1347  0.1295
19382W        W35566  12.562   5.273   2.886 -0.3538  0.0031 -0.3653
19383W        W35567  12.641   0.997  14.411 -0.3778 -0.0231 -0.4252
19384W        W35568   2.754  15.394   5.359 -0.2367 -0.0729  0.0686
19385W        W35569   1.186   2.268  15.341 -0.0619  0.0233 -0.0607
19386W        W35570  11.484   8.018   1.874 -0.1360  0.0211  0.1693
19387W        W35571   6.679  14.723  13.181  0.0607 -0.2839 -0.1020
19388W        W35572   3.342  13.305  16.587  0.0363  0.2696 -0.2087
19389W        W35573   4.979   3.582   3.500  0.0199  0.1355 -0.2915
19390W        W35574   6.673  17.625   3.234  0.0354  0.0721 -0.1616
19391W        W35575   9.853   6.536  15.704 -0.1829  0.0408 -0.0312
19392W        W35576   7.899   7.231   6.575 -0.0093  0.1102  0.0690
19393W        W35577  11.559   8.169  12.164  0.0351  0.2796 -0.1318
19394W        W35578  17.684   5.524  12.919  0.0258 -0.2739  0.0197
19395W        W35579  14.666  14.123  14.728 -0.0614 -0.1072 -0.0616
19396W        W35580   5.644   0.877   0.398  0.3555 -0.1631 -0.1216
19397W        W35581  15.781   7.623   4.087 -0.1531  0.3297  0.0989
19398W        W35582  16.566   4.003  13.748 -0.0950  0.0198 -0.2648
19399W        W35583  11.166   5.978   3.400 -0.1417 -0.2088 -0.0977
19400W        W35584   1.321  12.024   1.315 -0.0014 -0.0070 -0.0636
19401W        W35585   2.079  11.304  14.776 -0.1026 -0.2204  0.1200
19402W        W35586  10.558   5.572  12.441 -0.0196  0.2056 -0.1133
19403W        W35587   1.950  14.477   5.747  0.2365  0.1563  0.1263
19404W        W35588   2.437  16.257   4.740 -0.1107 -0.1900  0.0898
19405W        W35589   0.359   0.602   1.397  0.0460 -0.1016  0.0786
19406W        W35590   4.123   4.678   5.178  0.3875  0.1595 -0.1823
19407W        W35591   4.133   6.373  12.184  0.1207  0.0647 -0.0541
19408W        W35592   8.426  13.103  15.018 -0.1593  0.1753  0.1504
19409W        W35593   6.297   1.738   4.657  0.1270 -0.0064  0.2443
19410W        W35594  17.095  12.646  15.855 -0.4262  0.2244 -0.0574
19411W        W35595   9.956   8.720  12.928 -0.1948  0.0864  0.1820
19412W        W35596  13.814   5.251  16.596 -0.2223  0.2507 -0.4508
19413W        W35597  16.017   5.156  11.226  0.0858 -0.1728 -0.1634
19414W        W35598  12.481   1.662   0.073  0.0757  0.1573  0.0902
19415W        W35599   0.786  14.331  15.433 -0.0595 -0.0951 -0.4020
19416W        W35600   6.030   7.994   1.021 -0.2064 -0.0382  0.2150
19417W        W35601  14.716  16.130   3.011  0.1538  0.1225 -0.2161
19418W        W35602   4.045  11.594   0.264  0.1224  0.1515  0.0066
19419W        W35603   5.203  13.895  13.188 -0.1331 -0.2586 -0.3105
19420W        W35604   8.531   3.685   2.108 -0.3798  0.0136 -0.2203
19421W        W35605   2.503   9.869  13.049  0.0397 -0.0083  0.0246
19422W        W35606  11.819   4.355  15.850  0.1022 -0.1511 -0.2065
19423W        W35607  13.951   2.244   5.176  0.0769 -0.3415  0.2735
19424W        W35608   1.890  14.242   0.214 -0.0609 -0.0961  0.4969
19425W        W35609  13.196  14.298  11.667 -0.0863 -0.0542  0.0373
19426W        W35610  17.573   0.694   0.949 -0.1821  0.2414  0.1110
19427W        W35611   7.239  12.410  15.830 -0.0419 -0.5259 -0.1003
19428W        W35612   7.421   3.800   4.272 -0.1280  0.1070  0.1856
19429W        W35613   2.044  12.191  13.422 -0.1932 -0.2357 -0.1209
19430W        W35614  11.386  12.907   4.496 -0.0208 -0.0172 -0.2241
19431W        W35615   0.899   5.349   1.193 -0.0813 -0.0606  0.1509
19432W        W35616   6.593   2.445  13.479  0.3472 -0.1250 -0.0509
19433W        W35617   6.588   7.633   2.136 -0.0075 -0.3282  0.1021
19434W        W35618   9.584   2.640   1.279 -0.2081 -0.1834 -0.1649
19435W        W35619   8.451   6.387   2.230  0.1824 -0.3354 -0.0300
19436W        W35620  14.404   9.420   2.415  0.2757  0.0478 -0.1721
19437W        W35621  13.580  13.856  15.039 -0.1223  0.1569  0.0671
19438W        W35622   2.368   3.049   4.318 -0.0879  0.0177 -0.0861
19439W        W35623   6.234  13.151  13.716  0.0292 -0.0371 -0.5242
19440W        W35624  16.165  12.841  16.585  0.1748 -0.1546 -0.1432
19441W        W35625  13.301  15.799  12.088 -0.2260 -0.2800  0.0794
19442W        W35626   0.796  13.062  14.642  0.0675 -0.4271 -0.0162
19443W        W35627  11.803  15.944   0.126  0.1838  0.1796  0.3038
19444W        W35628   7.592   2.700  14.513 -0.1423  0.4401  0.1220
19445W        W35629   8.703   9.679   2.279 -0.1575 -0.0416 -0.1433
19446W        W35630   3.917   4.311   1.689 -0.0773 -0.0875  0.1869
19447W        W35631  17.381  17.322  15.029 -0.2277  0.0874 -0.2035
19448W        W35632   0.304  17.594   5.329  0.0287 -0.0178  0.3536
19449W        W35633  10.489   4.403  13.463  0.2977 -0.2762  0.1794
19450W        W35634  11.503   0.930  15.676  0.1088  0.0981 -0.1774
19451W        W35635  16.517   2.941   5.289  0.3184 -0.0981  0.0890
19452W        W35636  15.567  16.176   6.074 -0.0592 -0.2678 -0.1815
19453W        W35637   9.278   0.307  14.516  0.1851 -0.3942  0.1617
19454W        W35638   3.257  17.568  13.968 -0.0102 -0.1842 -0.0997
19455W        W35639   7.275  17.147   5.007  0.1500 -0.1394 -0.3285
19456W        W35640  11.103   5.066  13.786 -0.3106  0.3035  0.0937
19457W        W35641  13.261  17.034  12.654  0.1479 -0.0888 -0.1099
19458W        W35642   5.026   9.310   0.670  0.3517  0.3487 -0.2639
19459W        W35643   9.975   3.906   1.018  0.0056  0.1609  0.1825
19460W        W35644   7.014   7.949   6.403  0.1629 -0.0789  0.0111
19461W        W35645  14.240   9.788  13.401  0.3410 -0.0154 -0.1816
19462W        W35646  16.368  13.227  16.344 -0.1076  0.1044  0.3912
19463W        W35647   4.513   0.899   4.356  0.2975  0.3141 -0.2489
19464W        W35648   4.083  14.461   4.746  0.2322  0.0093  0.1264
19465W        W35649   6.861   3.436  15.245  0.0033 -0.2355 -0.1959
19466W        W35650   3.498  16.259  11.287  0.0525 -0.0517  0.2627
19467W        W35651   6.634  15.150  13.978  0.1993 -0.1743  0.1133
19468W        W35652   2.373   1.439   1.622 -0.0292  0.1239 -0.1449
19469W        W35653   2.607  15.982   1.482  0.1444 -0.2427 -0.0222
19470W        W35654  17.270   7.214  12.983 -0.1437 -0.1458 -0.0957
19471W        W35655  15.223  12.158   3.772 -0.1013 -0.1417 -0.1365
19472W        W35656  15.601   0.182  13.462  0.2043  0.0095 -0.0376
19473W        W35657  15.197   9.660   4.683 -0.1825 -0.3930 -0.0374
19474W        W35658   7.751   6.342  11.930 -0.2393 -0.3741 -0.0551
19475W        W35659   8.768  14.078  14.684  0.0568 -0.2981  0.2342
19476W        W35660   3.787   8.690   5.880 -0.1019 -0.1128  0.2043
19477W        W35661   5.972   1.950  12.135 -0.0989  0.0952 -0.1163
19478W        W35662  16.558  12.569  14.591  0.3298 -0.1603  0.0371
19479W        W35663  10.885   2.601   2.899  0.0466  0.0970  0.2200
19480W        W35664   1.269  16.757  12.049  0.1742 -0.2006 -0.1196
19481W        W35665   6.748  16.186  16.607 -0.2006 -0.2084 -0.1348
19482W        W35666   0.918   1.103   0.027  0.1860  0.0966 -0.1726
19483W        W35667  16.125  12.949  13.975  0.2039 -0.2227  0.3092
19484W        W35668  17.580   3.736   2.392  0.1379 -0.1676  0.2409
19485W        W35669  12.687   7.891   0.832  0.0982  0.2546  0.1884
19486W        W35670  10.374   5.406   4.749 -0.3199 -0.2506 -0.2960
19487W        W35671  12.645   9.790   0.710 -0.1658 -0.1435  0.0303
19488W        W35672   1.365  11.871  11.578  0.3977 -0.0660  0.0887
19489W        W35673  15.919  14.067   2.796  0.0496 -0.3135 -0.0150
19490W        W35674  17.684   4.306  16.250  0.0065  0.1050  0.0938
19491W        W35675   7.914  11.151   1.472 -0.0021 -0.0558 -0.2412
19492W        W35676  16.740   3.562   5.613 -0.1224  0.2084  0.2763
19493W        W35677  10.140  17.803  16.663  0.2945  0.2833 -0.0508
19494W        W35678  10.180  16.208   5.807  0.0439  0.2143 -0.0464
19495W        W35679   2.738   3.254  12.605  0.2907 -0.1185 -0.0640
19496W        W35680   5.422  12.510  11.838 -0.0110  0.2315 -0.1849
19497W        W35681   1.101  12.559  11.318 -0.1235 -0.1790  0.0397
19498W        W35682  17.231   0.961   1.348 -0.1032 -0.4350  0.1880
19499W        W35683  13.654   2.513  15.783  0.0229  0.1972 -0.0002
19500W        W35684  15.532  13.287  14.764  0.0800  0.3517 -0.1832
19501W        W35685  14.662   0.749   4.306 -0.1428 -0.4013 -0.0200
19502W        W35686   7.948   3.859   5.041 -0.1627  0.4475 -0.0128
19503W        W35687  17.987   4.617  16.632 -0.1823 -0.0219  0.0034
19504W        W35688   9.632   4.457  16.321  0.1384  0.2039  0.2796
19505W        W35689   5.770  14.184   3.781  0.3110  0.1793  0.2172
19506W        W35690   1.301  10.265  14.132 -0.0519 -0.2157 -0.1503
19507W        W35691   0.369   5.886   1.235  0.2794  0.1314  0.1673
19508W        W35692   3.647   6.627   0.672 -0.0431 -0.1516 -0.3833
19509W        W35693   7.800  10.143   6.349  0.3460 -0.2340  0.1495
19510W        W35694   5.116   5.034   5.683  0.4285  0.0210  0.1460
19511W        W35695   8.970   9.050  14.988 -0.0762  0.0781 -0.0190
19512W        W35696  11.237  16.867   3.928 -0.1167 -0.0114 -0.0940
19513W        W35697   6.504  14.419  11.800  0.1040  0.1313 -0.1986
19514W        W35698   8.629   2.162   5.654 -0.4615  0.3422 -0.0561
19515W        W35699  14.145   6.060  16.271 -0.0428 -0.0364 -0.1455
19516W        W35700   6.459  11.458   3.647 -0.0505 -0.1530 -0.0215
19517W        W35701  17.512   5.335   3.420 -0.2372  0.1263  0.0247
19518W        W35702   8.379  12.909   2.628  0.3011  0.1525 -0.1971
19519W        W35703  13.940   2.186   5.918 -0.1216 -0.0841  0.0261
19520W        W35704   0.917   3.188  13.038 -0.2954  0.1063 -0.0455
19521W        W35705  17.199  13.593   3.051  0.1470  0.2787 -0.0994
19522W        W35706   8.471   0.775  15.560 -0.4264 -0.0273  0.0153
19523W        W35707   0.446  17.475  16.362  0.0942  0.0028  0.2622
19524W        W35708  12.152  14.025  15.984 -0.0319 -0.0573  0.1380
19525W        W35709   7.714   6.397  13.183  0.2854  0.0197 -0.1388
19526W        W35710  16.444   6.029   6.003 -0.0759  0.1774  0.1748
19527W        W35711   8.404   0.970  14.518 -0.0498  0.0381  0.0318
19528W        W35712  14.854   4.125   1.046 -0.1650  0.1125 -0.1498
19529W        W35713   6.346   0.397  12.471  0.1614  0.0388 -0.2620
19530W        W35714  17.117   0.652  12.706  0.0037  0.0238 -0.1036
19531W        W35715   8.836  14.158  15.213  0.0108  0.0561 -0.1677
19532W        W35716  10.211  14.423  12.943  0.0250  0.1192 -0.1259
19533W        W35717  13.433   7.905  16.389 -0.1632  0.1302 -0.1015
19534W        W35718   1.060  17.399   4.882  0.0941 -0.1729 -0.0124
19535W        W35719  16.762  12.658   5.258 -0.3371  0.1417 -0.0936
19536W        W35720   9.321   0.541  15.051 -0.3391  0.0840 -0.0731
19537W        W35721   2.566   9.243   0.750 -0.1418  0.1950  0.0918
19538W        W35722  13.604  16.456   6.019  0.0909  0.1546 -0.1840
19539W        W35723   3.733  16.020   1.754 -0.5120  0.0917  0.1037
19540W        W35724   9.140   0.251  13.699  0.0424  0.1920  0.0986
19541W        W35725  14.876   6.002  13.394  0.0650 -0.3294 -0.1087
19542W        W35726   7.123   6.278  12.294  0.0764  0.0913 -0.1857
19543W        W35727   9.200  15.899   4.250 -0.2836 -0.0867 -0.0861
19544W        W35728  15.365   7.435  11.791  0.1798 -0.2202 -0.0273
19545W        W35729  13.464  17.041   2.687 -0.0587 -0.1664 -0.0118
19546W        W35730  15.583   2.727   5.512 -0.2541  0.1933 -0.1465
19547W        W35731   3.016   2.472  16.479 -0.3118  0.1379  0.2273
19548W        W35732  17.307   6.353   1.822  0.1761 -0.0783 -0.0023
19549W        W35733  10.884   2.926   5.669  0.0670  0.1295  0.0002
19550W        W35734   8.820  17.367   0.010  0.2376  0.1675 -0.0561
19551W        W35735   3.273  13.266  12.057  0.0638 -0.3014  0.0340
19552W        W35736   5.754   7.051   1.746  0.1427  0.2498  0.1665
19553W        W35737   9.473   3.086   4.894 -0.1087  0.0347 -0.0124
19554W        W35738   3.986  16.486  13.770 -0.1647 -0.1593  0.2099
19555W        W35739   6.160   7.898   2.811 -0.1406 -0.2361  0.1574
19556W        W35740   4.404   8.285  14.100  0.0529  0.1277 -0.1658
19557W        W35741   4.312  12.744   4.829  0.1406  0.1009 -0.2534
19558W        W35742  11.231  15.689  13.434 -0.1645  0.1353 -0.1707
19559W        W35743   2.271  17.710  16.461  0.1874 -0.0001  0.1999
19560W        W35744   1.279   9.887   4.461  0.0672 -0.1864 -0.1494
19561W        W35745  13.701   9.969  13.947  0.0007 -0.4592 -0.0045
19562W        W35746   3.666   8.854  14.024  0.1377 -0.3046  0.0555
19563W        W35747   6.315   6.857   5.422 -0.2028 -0.0513  0.1372
19564W        W35748   2.466  15.945  15.067 -0.2237 -0.3029  0.3012
19565W        W35749  17.599   4.356   4.921  0.1244  0.2444 -0.0016
19566W        W35750   3.916  12.619   3.326 -0.0955 -0.2176 -0.1417
19567W        W35751   7.979  16.118   4.107 -0.0669 -0.1138  0.1589
19568W        W35752   7.934  11.050   2.285 -0.1574 -0.0112 -0.1780
19569W        W35753   3.660  11.563   4.119  0.0564 -0.0066  0.0609
19570W        W35754   7.373   7.645   4.967 -0.1264  0.2964 -0.2010
19571W        W35755  17.680   4.114   1.681  0.1514  0.3350 -0.1225
19572W        W35756   7.792  15.548   2.152 -0.3121 -0.1623  0.0295
19573W        W35757   6.502   9.197   4.610  0.1590 -0.1661  0.2182
19574W        W35758  16.697   3.127   2.599 -0.2519 -0.2018 -0.0969
19575W        W35759   2.672  10.799   1.641 -0.3369 -0.1078 -0.0583
19576W        W35760  14.660   1.703  13.724  0.0651  0.1944  0.0836
19577W        W35761   5.559   0.472   0.126 -0.0513  0.1611  0.1513
19578W        W35762  14.346   2.190   0.110  0.1704  0.2479 -0.1521
19579W        W35763   0.675   7.074  15.355  0.0622  0.0074 -0.1120
19580W        W35764   3.047   7.935   3.761  0.0427 -0.1454  0.2284
19581W        W35765   9.286  15.866   3.202 -0.2696 -0.0888 -0.0167
19582W        W35766  10.214   0.479   4.862  0.2522 -0.1150 -0.3903
19583W        W35767  17.918  17.785   0.006 -0.1017 -0.0264 -0.0526
19584W        W35768  15.603  11.331   3.749  0.0600 -0.1214  0.1391
19585W        W35769   7.350   7.717   0.081 -0.1967 -0.3029  0.0753
19586W        W35770   5.573  10.500  11.597 -0.2470  0.2710 -0.0115
19587W        W35771  16.525  10.583   2.484  0.1543 -0.2273  0.1214
19588W        W35772   3.277   0.705  12.282  0.0920 -0.0482 -0.0637
19589W        W35773  12.880   4.975   3.866  0.0964 -0.0483  0.0153
19590W        W35774   3.424  14.833   1.897 -0.1434  0.0268 -0.1714
19591W        W35775   3.436   4.323   1.497 -0.0942 -0.1458  0.1153
19592W        W35776   4.599  15.602   2.895 -0.1337 -0.1075  0.3347
19593W        W35777   6.339  11.643  16.096  0.0742 -0.1539  0.2692
19594W        W35778  16.549   1.306   1.520 -0.2763  0.0885  0.0061
19595W        W35779  16.854   4.255  12.989 -0.2098  0.2504  0.0595
19596W        W35780  17.101  13.874  14.328 -0.0858  0.0892  0.1150
19597W        W35781  13.493  13.245  13.875 -0.0013  0.2572 -0.1031
19598W        W35782   5.046  11.970  15.118 -0.1830 -0.2732  0.1520
19599W        W35783   3.333   6.483  12.651 -0.3482 -0.0808 -0.2900
19600W        W35784  12.754   4.298  13.947 -0.0189  0.0492  0.0800
19601W        W35785  10.683   3.700  11.048 -0.5831 -0.1536 -0.1460
19602W        W35786  12.240  16.199   2.657  0.1018 -0.2331 -0.0812
19603W        W35787  16.361  16.781   4.034  0.3837  0.3815  0.1674
19604W        W35788  10.778   3.119   6.138 -0.1698  0.2898 -0.2920
19605W        W35789  10.562  13.781   3.571  0.0231  0.2943 -0.0271
19606W        W35790   6.688   6.910  14.233 -0.3286  0.0329 -0.0828
19607W        W35791  14.526  11.345  11.684  0.1618 -0.1543  0.1435
19608W        W35792   6.550   9.033  15.146  0.0886 -0.1997  0.4181
19609W        W35793   4.128   2.272  13.352 -0.1837  0.0547  0.0730
19610W        W35794  14.062   5.880  12.896  0.0868  0.1415 -0.0784
19611W        W35795   7.998  15.404   6.058 -0.5056  0.0969  0.2570
19612W        W35796  17.998  14.291   1.014  0.2057  0.0373 -0.0548
19613W        W35797  17.674  14.634   0.707  0.0109 -0.0682 -0.1925
19614W        W35798  12.200   3.688   1.756 -0.0640 -0.3710  0.0242
19615W        W35799  14.585  15.564   5.241  0.0307  0.1428  0.1025
19616W        W35800   8.981   3.657  15.582 -0.2992  0.0369  0.0706
19617W        W35801  15.667   7.690   5.984 -0.2142  0.3820 -0.0795
19618W        W35802   1.343  10.751   0.678  0.6161  0.1684 -0.1471
19619W        W35803   4.608   4.270  16.640  0.2368  0.3455 -0.2323
19620W        W35804  14.709   0.684  12.924  0.2866 -0.0129 -0.0046
19621W        W35805  11.494   2.449   2.217  0.1224  0.0422 -0.1140
19622W        W35806  15.916   9.816   1.229  0.0097  0.0356  0.2751
19623W        W35807   0.833   9.151  10.297 -0.1404 -0.1176 -0.1777
19624W        W35808  10.819  10.786   2.264  0.1925 -0.3555  0.0376
19625W        W35809   8.215  14.347  16.572  0.0852  0.0006 -0.1443
19626W        W35810   1.820   3.267  12.532 -0.0171  0.0845  0.2493
19627W        W35811  17.577  14.604  14.178 -0.3469  0.1209  0.2260
19628W        W35812   1.683  16.469   5.294  0.0179 -0.1775 -0.0818
19629W        W35813  13.224  16.791   5.748  0.1635 -0.3673 -0.1510
19630W        W35814  10.535  14.202   4.694 -0.0438 -0.1258  0.0028
19631W        W35815  14.224  11.734  16.157 -0.1653  0.3391  0.0453
19632W        W35816  14.351   5.315   1.794  0.0235  0.0394 -0.1275
19633W        W35817   0.169   8.662  12.731 -0.0778 -0.2967 -0.2750
19634W        W35818   6.233  13.732  12.984  0.0635  0.0924 -0.3169
19635W        W35819   6.942  12.069  15.027 -0.1499 -0.0080 -0.0249
19636W        W35820   0.583  15.289   4.980 -0.0611 -0.0640  0.0736
19637W        W35821  15.188   5.013  11.364  0.0555 -0.2456 -0.0026
19638W        W35822  14.746   5.069  13.721  0.0245  0.2708  0.1957
19639W        W35823   4.399  15.915  12.911 -0.1231  0.0779  0.0054
19640W        W35824   1.209   0.771   3.806 -0.2441 -0.0510 -0.0414
19641W        W35825   2.874  14.374  13.164  0.3468  0.1227  0.0670
19642W        W35826   6.932   7.591   4.588 -0.0259  0.1142 -0.2116
19643W        W35827   4.941   3.654   1.066 -0.1859 -0.0453  0.2552
19644W        W35828   1.625   1.834   4.312  0.1236 -0.2261 -0.1040
19645W        W35829   7.047   8.338  14.748 -0.1094 -0.3033 -0.1216
19646W        W35830  15.174   6.604  13.467  0.1509 -0.0881  0.0462
19647W        W35831   6.594   8.281   5.146  0.4327 -0.3387  0.1645
19648W        W35832   7.807   2.626   3.856 -0.2078  0.1348  0.0781
19649W        W35833   7.827  10.496   2.454  0.3054  0.1688  0.0833
19650W        W35834   3.286   2.967  12.386  0.3321  0.0543  0.0892
19651W        W35835   9.065  14.723  15.861 -0.1497 -0.3098  0.2015
19652W        W35836   0.273  11.322  13.188  0.3922 -0.1759 -0.0645
19653W        W35837  10.429  15.169   5.878  0.3577  0.0063 -0.1587
19654W        W35838  10.724   7.332   2.850 -0.1259  0.4187  0.0004
19655W        W35839   0.028  10.868   5.828  0.0846  0.3141 -0.0460
19656W        W35840   5.196  15.218   5.267 -0.2766 -0.1785 -0.3403
19657W        W35841   3.769   4.093   5.853 -0.0705  0.0595 -0.2616
19658W        W35842  16.676   2.065   1.729  0.1798  0.0982  0.1984
19659W        W35843  13.377  10.772  11.606  0.0516  0.2412 -0.0488
19660W        W35844  13.694   8.314   5.636  0.0273  0.0674  0.1847
19661W        W35845   2.109   2.572   2.570 -0.0266  0.1592  0.1012
19662W        W35846   4.697  17.004   1.446 -0.2538 -0.0412 -0.0568
19663W        W35847   3.767  14.919   4.240  0.1135  0.1521  0.1662
19664W        W35848   8.461   3.989   5.348 -0.1019 -0.0142 -0.0437
19665W        W35849   4.088   9.610  14.834  0.3080  0.0428 -0.0883
19666W        W35850   4.247   0.541   0.141  0.0867 -0.2945  0.2598
19667W        W35851   5.814   6.684   0.255 -0.0307  0.0599  0.2106
19668W        W35852   5.480  11.004   5.221 -0.2586  0.4343  0.1927
19669W        W35853  11.511   4.605   2.783  0.1941  0.0140  0.0128
19670W        W35854  13.776   3.655   5.259  0.1526  0.2148 -0.3412
19671W        W35855  17.676   6.245   5.592  0.0437  0.1813 -0.1138
19672W        W35856   0.942   8.017  15.862  0.0158  0.2061 -0.1637
19673W        W35857  15.084   3.766  13.887  0.2384  0.3005 -0.1256
19674W        W35858   3.876   7.261  13.496 -0.1909  0.1813  0.2006
19675W        W35859  16.287   4.494  14.427  0.2245 -0.0499  0.3786
19676W        W35860   3.275   3.289   0.463 -0.0589 -0.1562  0.0222
19677W        W35861   2.200  15.263   2.934  0.2538 -0.2747  0.0973
19678W        W35862  14.699   0.040  15.526  0.0722  0.3237  0.3224
19679W        W35863  15.305  10.524  15.214 -0.0590 -0.1952  0.1872
19680W        W35864  16.667  14.600  14.544 -0.0178 -0.0114 -0.0378
19681W        W35865  11.032  11.800   4.348 -0.1809 -0.1028 -0.0587
19682W        W35866   0.121   9.290   0.445  0.3678  0.2300  0.2779
19683W        W35867   5.175   6.167  15.547  0.2073  0.1983 -0.1887
19684W        W35868  14.741  13.650  13.733 -0.1190 -0.0130  0.1283
19685W        W35869  12.373  12.937   4.899 -0.1031 -0.0980  0.0739
19686W        W35870  15.841   0.889   2.327  0.0210  0.0851 -0.0523
19687W        W35871   6.039  10.512  12.624 -0.0982 -0.0725  0.1067
19688W        W35872   1.586  17.102  11.315  0.0297 -0.0290 -0.2886
19689W        W35873   4.615  12.873   4.161 -0.2856 -0.0473 -0.1151
19690W        W35874   5.472   9.018   1.993  0.0056  0.2014  0.0330
19691W        W35875   9.577   6.208  11.876  0.0140 -0.0243 -0.0581
19692W        W35876   4.686   2.850   2.131 -0.2778 -0.3214 -0.3355
19693W        W35877  17.969   4.554   2.379  0.0111  0.3438 -0.4559
19694W        W35878  15.924   1.985   5.140 -0.0631 -0.2271  0.1416
19695W        W35879   7.023  16.356  12.381 -0.0990 -0.0091 -0.1463
19696W        W35880  14.694   5.948  14.840 -0.2670  0.2181 -0.0976
19697W        W35881  15.191  14.347   3.020 -0.2027  0.0312 -0.1172
19698W        W35882   1.025   8.156   2.762  0.0068  0.2181  0.0657
19699W        W35883  12.711   3.968  14.870 -0.1730  0.0555 -0.3416
19700W        W35884   1.594   8.223   3.572 -0.2912  0.2103  0.0520
19701W        W35885   2.724  16.871  13.870  0.3045  0.0164 -0.1913
19702W        W35886  11.299  11.315  14.175 -0.5318  0.1394  0.0417
19703W        W35887   2.335  13.116  13.015 -0.0242  0.0446 -0.0842
19704W        W35888  14.294  13.893  13.742  0.0265  0.1309 -0.3063
19705W        W35889  12.496   8.547   4.633 -0.1639  0.1248  0.3633
19706W        W35890   2.436  15.386  12.160  0.1549 -0.1583 -0.0508
19707W        W35891   6.160   5.037  14.637 -0.0343  0.1084 -0.0023
19708W        W35892   4.465  10.214  15.345 -0.0339  0.0869  0.1910
19709W        W35893   4.071  13.002  14.884  0.2204  0.1635 -0.1351
19710W        W35894   7.510  16.469   0.366  0.0880  0.3314  0.1973
19711W        W35895   8.247   1.245   5.853  0.1471 -0.0544  0.0867
19712W        W35896  15.818  15.753   3.259  0.1953  0.0252  0.0296
19713W        W35897   7.386   1.842   3.374 -0.0841  0.0947 -0.0272
19714W        W35898  17.064   3.686   2.284 -0.0743  0.1344 -0.2016
19715W        W35899   7.530   5.049   2.159  0.2042 -0.1483 -0.2775
19716W        W35900  11.586  12.606  12.676  0.0349 -0.0119 -0.0589
19717W        W35901   9.839  15.160  12.491  0.0200  0.1916 -0.0140
19718W        W35902   6.568   8.668  14.758 -0.1107 -0.3149  0.4031
19719W        W35903  16.249  16.553   0.821 -0.1601 -0.1824 -0.2957
19720W        W35904  15.278   9.938   0.714 -0.1700 -0.1207 -0.2167
19721W        W35905  16.522   9.002  15.022  0.0406 -0.2192 -0.1469
19722W        W35906   1.679  12.022  13.051  0.1855  0.0065 -0.1405
19723W        W35907  13.629  17.516   0.547  0.0829  0.0570  0.1228
19724W        W35908   1.432   6.855   3.007 -0.1148  0.1618  0.1834
19725W        W35909   5.203   8.391  12.526 -0.1905  0.3296 -0.1729
19726W        W35910   4.976  17.109  12.543 -0.0241  0.1192 -0.2220
19727W        W35911  11.926  15.456   0.344  0.0284 -0.1602  0.3241
19728W        W35912  10.299   1.374   1.566  0.3527  0.0039 -0.2853
19729W        W35913  12.367   7.737   1.203 -0.0895 -0.0192  0.1195
19730W        W35914   4.565   0.460   5.765 -0.1817 -0.0279 -0.2147
19731W        W35915  14.246  17.957   5.036 -0.2053 -0.1698 -0.1546
19732W        W35916  15.021  15.624   5.963 -0.0790 -0.0149 -0.2367
19733W        W35917   3.399   4.178   4.869  0.1884 -0.2263 -0.2986
19734W        W35918  17.539   4.382   0.636 -0.1443  0.0585 -0.1313
19735W        W35919   9.633   2.922  12.040 -0.2106  0.1989  0.0930
19736W        W35920   9.737  15.232  15.209  0.0786 -0.1032 -0.0810
19737W        W35921   5.649   9.402   2.958 -0.2087  0.3470 -0.0992
19738W        W35922  10.320   3.503  13.581 -0.2780 -0.3790  0.0678
19739W        W35923   6.447   4.316   0.982 -0.0663 -0.0926  0.1830
19740W        W35924   8.354  16.126   1.088  0.0077 -0.1529 -0.2715
19741W        W35925  16.999  12.278   4.992 -0.0297 -0.2697  0.0154
19742W        W35926   9.004  10.987   3.778 -0.0653  0.0913  0.3086
19743W        W35927  10.573  13.307   3.902  0.1955 -0.5091  0.0151
19744W        W35928   6.444  15.912  16.345  0.3729 -0.3145 -0.2476
19745W        W35929   7.932   6.636   3.558  0.2542  0.1257 -0.1696
19746W        W35930  17.851   1.228  12.763  0.0199 -0.3106 -0.0517
19747W        W35931  15.762   6.466   4.500  0.2886 -0.0945  0.0613
19748W        W35932  14.651  12.181  15.267  0.2659 -0.1565 -0.0502
19749W        W35933   0.929   6.464  12.699 -0.0243 -0.0312 -0.0139
19750W        W35934   1.365   1.245  16.213  0.1438 -0.1153  0.0994
19751W        W35935   4.292  13.890   0.162  0.0257 -0.2737 -0.2099
19752W        W35936  17.466   8.575  14.063  0.0147  0.2507 -0.0197
19753W        W35937   6.965  15.180   6.083  0.3650  0.1494  0.0344
19754W        W35938  12.421  11.761   1.371 -0.0530 -0.0375 -0.0194
19755W        W35939   2.890  11.318  10.953  0.0521 -0.2308 -0.1359
19756W        W35940   9.049   8.618  11.928  0.1605  0.3395 -0.1619
19757W        W35941   4.526   7.239   5.267 -0.0847  0.3779  0.3382
19758W        W35942  10.229   0.208   2.316 -0.2425  0.2742  0.0628
19759W        W35943   1.644  16.455  10.967 -0.1882 -0.3609 -0.2012
19760W        W35944   5.660  10.622   4.326 -0.0332 -0.1146 -0.0595
19761W        W35945  13.255  17.800  15.020  0.2243 -0.1314  0.0862
19762W        W35946  12.140  15.453  13.787  0.2698 -0.1032  0.2846
19763W        W35947   2.777   8.571  12.849 -0.0021  0.0607 -0.0186
19764W        W35948  14.008   8.083   3.616 -0.0855  0.0836 -0.3938
19765W        W35949   6.540  16.804   1.275  0.1271 -0.1243  0.0236
19766W        W35950  10.087   9.174  12.975 -0.2972  0.0177  0.0221
19767W        W35951   3.864  16.557   4.409  0.0018  0.0629 -0.1690
19768W        W35952   1.175   3.638  14.796  0.0270 -0.1520  0.4365
19769W        W35953   3.065   8.546  14.735 -0.1113 -0.1374 -0.0589
19770W        W35954   0.403   8.102   2.564 -0.0237  0.0404  0.1113
19771W        W35955  14.865   0.879   0.909  0.1627 -0.1036 -0.0323
19772W        W35956   4.519   8.069  12.360  0.3017 -0.3466 -0.1204
19773W        W35957   4.999   0.787   3.583  0.1475 -0.2916 -0.2656
19774W        W35958   6.330   2.031  15.506  0.3591 -0.0792 -0.0931
19775W        W35959   7.550   7.194  12.160  0.0856 -0.2973 -0.1855
19776W        W35960  16.257  15.228   1.231 -0.0809 -0.0208 -0.0575
19777W        W35961  12.261   1.485   2.995  0.2762 -0.0815  0.4022
19778W        W35962  15.376   3.794   4.391  0.1994 -0.1343  0.1267
19779W        W35963   8.421   7.722  15.234  0.0103  0.0339  0.0596
19780W        W35964  17.018   6.463  15.510 -0.3265 -0.1730  0.1660
19781W        W35965  16.214  15.124   1.766  0.0585  0.0787  0.3549
19782W        W35966   9.601   5.122  12.122  0.2104  0.0279  0.2004
19783W        W35967   7.775  15.215   0.815 -0.0693 -0.2458 -0.0001
19784W        W35968   1.743  12.488   0.064  0.3294  0.1610  0.1616
19785W        W35969   4.743   2.309   5.567  0.3009 -0.1888 -0.1541
19786W        W35970  17.561   1.706   5.729 -0.1722  0.1546 -0.0033
19787W        W35971  14.632   8.806   2.808 -0.0004 -0.0081  0.1330
19788W        W35972  11.206   9.356  15.316 -0.1366  0.0542 -0.0530
19789W        W35973   7.361   2.652  14.078  0.0802  0.1952 -0.1492
19790W        W35974   3.447   5.524   0.066  0.1332 -0.1313  0.0252
19791W        W35975   1.775  11.831  15.122 -0.1700  0.3251  0.1838
19792W        W35976  10.438   5.053   5.064 -0.0862  0.1925 -0.1232
19793W        W35977  16.289   1.567   3.049 -0.0262  0.0803  0.1741
19794W        W35978   3.785  13.824  12.966  0.1339 -0.1301 -0.1490
19795W        W35979  14.381  13.120   0.098  0.1049  0.1029  0.2793
19796W        W35980   6.812  10.970  15.096 -0.1590  0.0929 -0.1052
19797W        W35981  13.452   7.683   0.137 -0.3148  0.4583  0.0028
19798W        W35982   9.469   1.194   3.744  0.0314  0.2776  0.1939
19799W        W35983  15.426  10.343   4.561 -0.0834 -0.0714  0.1913
19800W        W35984   4.602   3.107  15.066 -0.0995  0.0865 -0.0975
19801W        W35985  17.699  12.239   5.299 -0.2120  0.1046 -0.1683
19802W        W35986  10.482  16.649  11.818  0.2597  0.0521 -0.1715
19803W        W35987   4.845   4.011  12.370  0.3249  0.0877  0.1081
19804W        W35988   3.008   0.275  12.115  0.0124 -0.0288  0.0552
19805W        W35989   0.717   6.023  12.971  0.0449 -0.0433  0.3305
19806W        W35990  15.617   2.622  12.001  0.1004 -0.1162  0.1637
19807W        W35991   8.957   8.009   0.116  0.2027 -0.0172 -0.0385
19808W        W35992   8.915   5.618  16.417 -0.1809 -0.1442 -0.0219
19809W        W35993  16.750   7.878  16.347 -0.1242  0.0181  0.1538
19810W        W35994   9.313  17.995  14.946 -0.0338 -0.2223 -0.4025
19811W        W35995  11.080   6.439   1.935  0.0467  0.1857  0.2346
19812W        W35996   7.669   0.545   4.768 -0.0275 -0.0936 -0.1259
19813W        W35997  17.913  13.373   2.033 -0.1516  0.4149 -0.2149
19814W        W35998   7.352   9.658  13.106 -0.1778  0.0456 -0.3688
19815W        W35999  13.939   9.084  13.707 -0.2135  0.0709  0.1814
19816W        W36000   4.844   9.065   2.788  0.0714  0.0878  0.1564
19817W        W36001   4.628  11.712  14.821 -0.1072  0.2049  0.3018
19818W        W36002  13.526  16.164  15.647  0.4016  0.0797  0.2159
19819W        W36003   1.639   7.129   1.366  0.1811  0.4230  0.0844
19820W        W36004   0.601  14.673   2.240  0.0845  0.1875  0.1769
19821W        W36005  12.448   3.302  16.643  0.3295 -0.4526 -0.0802
19822W        W36006   8.753  14.771  14.069 -0.4254 -0.0332 -0.0777
19823W        W36007  10.691   6.491   6.056 -0.3382 -0.1898  0.0163
19824W        W36008   6.788  16.743  13.203  0.0489 -0.1247  0.2666
19825W        W36009  14.462   3.397   2.498  0.2222  0.1241  0.1766
19826W        W36010  17.111  14.402   5.524  0.3241 -0.1427  0.1037
19827W        W36011  17.511  17.304   0.658  0.3468  0.1068  0.0624
19828W        W36012  13.465   9.194  16.025  0.0917 -0.2728  0.0599
19829W        W36013   4.650  14.033  12.054 -0.0402 -0.3637 -0.0123
19830W        W36014   9.525   7.587  15.558  0.0718  0.4068  0.0589
19831W        W36015  13.356   8.862   3.570 -0.2325 -0.0402  0.1346
19832W        W36016  10.947  10.850   4.716 -0.1379  0.2964 -0.1095
19833W        W36017   6.100  13.265  16.076 -0.0678  0.1044 -0.2180
19834W        W36018  11.243  17.652  16.364 -0.0931 -0.0466  0.0655
19835W        W36019   8.248   1.883  11.802 -0.2311  0.3052 -0.1270
19836W        W36020  11.417  16.465   4.996  0.0364  0.1287  0.3770
19837W        W36021  14.531   5.975   3.346 -0.1560 -0.0608 -0.1372
19838W        W36022  10.410   9.931  14.366 -0.1322  0.0846  0.3488
19839W        W36023   1.975  12.738   4.456 -0.1095 -0.2110 -0.1138
19840W        W36024  17.827   3.015   5.449  0.0231 -0.2683 -0.0725
19841W        W36025  12.471  11.538  12.106 -0.0158  0.4727  0.0280
19842W        W36026   0.316   1.237  11.919  0.1425  0.0886  0.1543
19843W        W36027  11.372  10.470   3.851  0.1495  0.2258 -0.0598
19844W        W36028  10.457   9.145   0.485  0.1365 -0.2532  0.1135
19845W        W36029   4.734   3.080  12.311  0.1887 -0.1123  0.0110
19846W        W36030  12.637   8.402  13.671  0.0619  0.0982 -0.2013
19847W        W36031  11.207  14.531   2.115 -0.3393 -0.0167 -0.1042
19848W        W36032  13.392   0.710   4.628  0.0869 -0.0525 -0.0699
19849W        W36033  17.848  13.727   2.631 -0.0329 -0.0421 -0.0805
19850W        W36034  12.182   8.751   5.476  0.0067  0.0828 -0.3603
19851W        W36035   1.481  15.408   2.949 -0.0814 -0.2976 -0.0508
19852W        W36036   2.608  17.342  15.599  0.2152  0.0387  0.3117
19853W        W36037   9.437   2.861   0.818 -0.1356  0.3134  0.0203
19854W        W36038   2.188  12.192  15.943 -0.3002  0.2363 -0.1235
19855W        W36039   3.553   9.987   5.086  0.1731  0.2164 -0.0221
19856W        W36040   6.709   9.489  15.345 -0.2176  0.0343  0.0753
19857W        W36041   2.831  12.972  12.043 -0.1734  0.1621  0.2065
19858W        W36042   4.849  12.752   1.206  0.2250  0.1044 -0.1160
19859W        W36043  12.009   6.276   5.550 -0.1691 -0.1287  0.1271
19860W        W36044  13.826   3.502  12.963 -0.0374  0.0465 -0.1560
19861W        W36045  14.237   0.009  14.818  0.1659  0.0443 -0.1243
19862W        W36046  14.683  15.845   2.294  0.0001  0.5159 -0.0037
19863W        W36047   6.212   3.012   3.422  0.2720 -0.1366  0.2313
19864W        W36048   4.270  11.681   0.733  0.0111  0.5013 -0.0283
19865W        W36049  14.721  15.371  11.884  0.1920 -0.2019 -0.3778
19866W        W36050   1.547   1.187   2.312 -0.0332 -0.3664  0.1025
19867W        W36051  15.493   7.896   5.553  0.0475  0.0164 -0.1896
19868W        W36052   3.204   0.665   5.288 -0.2403 -0.2437 -0.1020
19869W        W36053  15.704  11.117   0.541 -0.0511  0.0229 -0.0032
19870W        W36054  11.684   5.894  11.417  0.2219  0.1936  0.0616
19871W        W36055   7.122  16.529  15.778 -0.2219  0.0642 -0.3008
19872W        W36056  17.193   1.516   4.994  0.0575 -0.0791 -0.0102
19873W        W36057   8.909  10.393  15.986  0.1009 -0.1681 -0.3548
19874W        W36058  17.675  14.277   2.013 -0.0335  0.0053  0.0123
19875W        W36059   5.164  10.785   0.203  0.0844  0.0851  0.2910
19876W        W36060   5.322  13.097  15.484  0.2388  0.1131  0.2059
19877W        W36061   0.433   2.266   6.469  0.1884  0.0701  0.0493
19878W        W36062  10.136   2.676   2.165 -0.2046 -0.1222 -0.3493
19879W        W36063   7.174   7.103   5.852  0.1025 -0.0177  0.4466
19880W        W36064   7.737   5.606   2.039 -0.0510  0.0115  0.1448
19881W        W36065  17.953   7.664   2.274 -0.3225  0.0642 -0.0790
19882W        W36066   7.739  15.506   3.081 -0.1013 -0.0606 -0.0174
19883W        W36067  14.595  13.863   2.402  0.1000 -0.0967  0.2190
19884W        W36068  13.911   7.062   3.418 -0.4325 -0.1682  0.0444
19885W        W36069   8.683   8.611   5.116 -0.1027  0.0822 -0.1608
19886W        W36070   9.176   9.111  11.917 -0.0753 -0.0894 -0.2169
19887W        W36071  14.206   0.794   1.529  0.3606  0.0866 -0.2854
19888W        W36072   1.944   5.548  15.417  0.3260 -0.1520  0.2433
19889W        W36073   6.445   5.000   5.686 -0.0883 -0.1478 -0.0674
19890W        W36074   8.475  14.372   1.781 -0.0613 -0.1384  0.0851
19891W        W36075   3.277   4.524   2.819 -0.0233  0.1223  0.1597
19892W        W36076  16.959  14.851   0.684 -0.2835  0.0442 -0.0359
19893W        W36077  16.167  15.288  15.086  0.1278 -0.2945  0.0573
19894W        W36078  17.356   7.258   1.244 -0.0119 -0.2690 -0.1567
19895W        W36079   1.838  13.247   4.471 -0.0397 -0.1731  0.0149
19896W        W36080  15.027   1.239  16.698  0.0055 -0.1027 -0.0747
19897W        W36081   5.284  13.656  15.710  0.2852  0.0330 -0.0351
19898W        W36082  11.544   9.098  15.951  0.0692 -0.2047  0.1126
19899W        W36083   8.007   4.221   3.125  0.0315 -0.2741  0.0581
19900W        W36084  10.840   6.537  16.048  0.1213 -0.2917  0.0004
19901W        W36085   4.221   4.768   2.975 -0.0250  0.0938 -0.1108
19902W        W36086   5.018   5.559   2.475 -0.1275 -0.1578 -0.2817
19903W        W36087   8.420   4.368   2.851 -0.0500  0.2248 -0.3642
19904W        W36088  10.451   4.083  12.224 -0.0344  0.0344 -0.0346
19905W        W36089   1.505  12.821   4.482 -0.0249  0.1210 -0.0212
19906W        W36090   0.947  15.224  12.733  0.0586 -0.2103  0.2092
19907W        W36091   3.862   5.008  14.317 -0.0001 -0.0258  0.2976
19908W        W36092   7.097   6.710  16.639 -0.1587 -0.0144  0.3271
19909W        W36093   3.738  16.323  11.808 -0.2508 -0.1408  0.2944
19910W        W36094   0.416  12.131   0.454 -0.0463 -0.2615 -0.0708
19911W        W36095  11.592  10.274   0.067  0.2372 -0.2121 -0.2398
19912W        W36096   1.959  17.538   3.689  0.0499 -0.0032 -0.0839
19913W        W36097   9.721   3.418  11.725  0.0689 -0.0339  0.3408
19914W        W36098   0.958   7.271  12.395  0.0775 -0.4030  0.0166
19915W        W36099  10.166  11.957  14.281 -0.1876  0.1026  0.0808
19916W        W36100  13.181  16.400  15.315  0.2077  0.1411 -0.1131
19917W        W36101   8.010   1.457   4.524  0.1053  0.0668  0.1611
19918W        W36102   2.696  12.854   0.293  0.1137 -0.1861 -0.2942
19919W        W36103   8.355  11.647   3.775 -0.1163 -0.2351  0.1339
19920W        W36104   4.057  14.571   5.221 -0.1284  0.3047  0.0679
19921W        W36105   0.270  15.078  14.430 -0.2309 -0.0905  0.0640
19922W        W36106   3.702   1.808  16.103  0.3989 -0.0234  0.0787
19923W        W36107  12.146   6.624   1.309 -0.0666  0.0570 -0.0161
19924W        W36108  11.310  17.472  12.214 -0.4572  0.4314 -0.2301
19925W        W36109   3.270  17.670   4.182 -0.1715 -0.0200 -0.1787
19926W        W36110   5.209  13.721   2.555  0.2262 -0.2815  0.0855
19927W        W36111   2.319  10.811   5.185 -0.0945  0.0068  0.1275
19928W        W36112   0.406   1.542   6.135 -0.1656 -0.1047  0.0169
19929W        W36113  10.365   4.609   3.750  0.0676  0.3269  0.1224
19930W        W36114   9.382  10.781   0.934 -0.1602  0.0027  0.1168
19931W        W36115   0.124   3.686  15.919  0.0248 -0.0171  0.3328
19932W        W36116  13.793  14.794   0.893  0.1829  0.1130  0.0296
19933W        W36117  14.481  16.160   0.701  0.0653 -0.0770 -0.3399
19934W        W36118   8.571  17.299  12.732 -0.3625  0.1064  0.1266
19935W        W36119   1.763   3.593   0.486 -0.1173 -0.2766 -0.2375
19936W        W36120   8.196   8.409   0.738  0.2324 -0.0319  0.0257
19937W        W36121  13.463  11.360  13.193 -0.2876  0.2339  0.2309
19938W        W36122   7.278  13.072   2.943  0.1593 -0.3144  0.1470
19939W        W36123   6.132   7.151  11.603 -0.1076  0.3772  0.1568
19940W        W36124   1.501  14.408  14.737 -0.2900  0.1231 -0.1076
19941W        W36125   7.850   9.213   4.687  0.2244 -0.1576 -0.3251
19942W        W36126   0.611   1.691  14.203 -0.0560 -0.0387  0.0808
19943W        W36127  17.477  11.710  15.750  0.2020  0.1475 -0.0769
19944W        W36128   5.434   7.697   3.559  0.1871  0.0599 -0.2456
19945W        W36129   1.658  16.887  12.371  0.3996  0.0014  0.0844
19946W        W36130   1.620   9.904  12.783  0.0849 -0.0093 -0.0185
19947W        W36131   5.555  12.967   4.931 -0.1402 -0.1068  0.0461
19948W        W36132   8.453  16.192  13.104  0.2432  0.0819  0.2204
19949W        W36133  11.432   7.364   2.283  0.0490 -0.0355 -0.1861
19950W        W36134  10.009   8.185  12.098 -0.1700  0.1780  0.0091
19951W        W36135   3.345  10.924   2.515  0.0077 -0.1097 -0.0441
19952W        W36136   1.589  13.493  14.065  0.0371  0.1831 -0.3562
19953W        W36137   1.475   6.631   1.545 -0.1163  0.0733  0.3345
19954W        W36138  11.289   5.365   1.149  0.2817  0.1372 -0.3742
19955W        W36139  15.606   1.434   4.445 -0.0713 -0.0441  0.2797
19956W        W36140  10.066  10.058  16.056  0.3244  0.1107 -0.2997
19957W        W36141  10.568   7.991   0.874  0.1079  0.3173  0.2974
19958W        W36142  15.097   3.270  10.296 -0.0048 -0.1771 -0.0649
19959W        W36143  14.112  12.337   3.402  0.0424  0.2384 -0.1427
19960W        W36144   5.237   4.902  14.121  0.0007 -0.0794 -0.5174
19961W        W36145   3.051  15.557   2.447  0.0630  0.0720 -0.0335
19962W        W36146   3.651  10.854  15.212  0.4629  0.1439 -0.0735
19963W        W36147   0.767  17.896  12.439 -0.1218 -0.0484 -0.0183
19964W        W36148   4.802   0.873   3.158 -0.2887 -0.1011  0.0294
19965W        W36149   6.595  10.357   5.022 -0.1797 -0.0524  0.1619
19966W        W36150   6.008   1.175   0.164 -0.0403  0.0011  0.1851
19967W        W36151   4.494  17.478   2.697  0.3609 -0.3303 -0.0207
19968W        W36152   2.921   6.709  12.554  0.0182  0.2613 -0.1038
19969W        W36153  10.389   8.226   0.323 -0.0335 -0.2983 -0.0058
19970W        W36154  16.160  10.368  11.030  0.1684 -0.0743  0.1147
19971W        W36155  17.624   2.032   0.238 -0.0087  0.0607  0.3009
19972W        W36156   2.474   0.944   1.784  0.3693 -0.2832  0.0484
19973W        W36157  10.126   1.585  11.792  0.3624 -0.1781  0.1335
19974W        W36158   1.443   7.144  16.328 -0.0203  0.2074 -0.2045
19975W        W36159   3.064   0.377  13.377 -0.4018 -0.0787 -0.3097
19976W        W36160   8.073  11.189  14.284  0.5028  0.1543  0.1039
19977W        W36161  10.906   8.839   5.390  0.0245  0.0316 -0.0071
19978W        W36162   7.312   0.013   1.741 -0.1506 -0.0568  0.0441
19979W        W36163  14.399   5.593   4.926  0.1797 -0.2134  0.0597
19980W        W36164   9.654   3.809   0.075  0.0530  0.1494 -0.1771
19981W        W36165   1.607   5.071  13.072 -0.1244 -0.3236 -0.1301
19982W        W36166   6.048  15.059  13.535  0.0320  0.2079 -0.0946
19983W        W36167  17.947   1.923   4.660 -0.0574 -0.2943  0.0900
19984W        W36168  16.652   6.326   3.032  0.2190  0.0133  0.0603
19985W        W36169   8.775  16.911   2.811  0.3826 -0.2346 -0.0748
19986W        W36170  15.854  10.154   1.622  0.2411 -0.2394 -0.2203
19987W        W36171  11.547   5.865   4.533  0.3135  0.1278 -0.0810
19988W        W36172   6.317  13.933   3.347  0.0425  0.0128 -0.1119
19989W        W36173  17.400  15.259  15.728 -0.2219  0.0421  0.1682
19990W        W36174  12.663   0.720   5.416 -0.0871 -0.3753 -0.0916
19991W        W36175   3.204   6.963   1.281 -0.0317 -0.0671  0.0440
19992W        W36176   2.677   5.148  15.764  0.1637  0.3046  0.1451
19993W        W36177   2.881  13.063   4.732  0.3908  0.1456 -0.1975
19994W        W36178  13.340   2.615   4.319  0.4066 -0.0967  0.3853
19995W        W36179  11.634   6.539  11.965  0.0185 -0.3130  0.2592
19996W        W36180   8.012  17.332  12.648  0.3092  0.3034 -0.2682
19997W        W36181  11.605  14.460   0.364  0.1962 -0.0719  0.2340
19998W        W36182   2.081  14.221  13.467  0.1900 -0.1059  0.4028
19999W        W36183  12.517  16.015   1.837  0.0757  0.0306  0.3631
20000W        W36184   5.590  10.721   3.447 -0.1376 -0.1257 -0.0124
20001W        W36185   3.962   1.119   5.358 -0.0361 -0.1065 -0.1688
20002W        W36186  11.253  15.943  12.405  0.1868  0.2098 -0.2264
20003W        W36187  17.104   4.701  11.783 -0.0839  0.0476  0.0754
20004W        W36188   9.984  10.052  14.052  0.1625  0.0577 -0.2341
20005W        W36189  11.033  12.179   3.326 -0.0648 -0.2145  0.1326
20006W        W36190  12.342   4.661  15.450 -0.0762 -0.0665 -0.0181
20007W        W36191  12.119   0.766  12.865 -0.0291 -0.3159 -0.0454
20008W        W36192   2.607  12.532   1.296  0.0657 -0.3538  0.0276
20009W        W36193  16.982   4.828  13.741  0.1082  0.2309 -0.0479
20010W        W36194   5.784   7.955   1.982  0.1013  0.2617  0.1753
20011W        W36195  16.764   8.111  15.354  0.2203 -0.1684  0.0216
20012W        W36196  14.193   7.166  12.165 -0.1796 -0.4985  0.2143
20013W        W36197   1.450  13.085   2.725  0.1964 -0.0621  0.0258
20014W        W36198   2.366   8.686  13.200 -0.5219  0.0951 -0.1075
20015W        W36199   7.410  15.175   2.297  0.2086  0.1553  0.0569
20016W        W36200  13.611  10.477   1.615  0.0195  0.1804 -0.0231
20017W        W36201  13.583  12.334  13.972 -0.0926  0.0808  0.2504
20018W        W36202  17.036   9.996  13.590 -0.0506  0.1186 -0.0709
20019W        W36203  12.135   8.628   4.207 -0.0723  0.0395 -0.0604
20020W        W36204  14.847   5.606   4.740  0.2753 -0.0766  0.0085
20021W        W36205   9.373  13.895  15.898 -0.0619  0.1256  0.2433
20022W        W36206  17.486  17.654  12.501 -0.2616 -0.0720 -0.0351
20023W        W36207  12.853   0.663   3.068 -0.0305  0.1165 -0.1395
20024W        W36208  17.519   4.204   1.190 -0.1661 -0.1930  0.0571
20025W        W36209   9.469  15.534   4.948  0.0745  0.0644 -0.1857
20026W        W36210   1.417   9.990  11.936  0.1196  0.0017  0.0556
20027W        W36211   1.977   3.668  12.178  0.0263 -0.1247  0.0856
20028W        W36212  13.614  17.399  14.880 -0.0190 -0.1193  0.1389
20029W        W36213  17.242  11.339   2.117  0.0771 -0.2081  0.1852
20030W        W36214   1.463  14.809  16.387  0.0019 -0.1522  0.1761
20031W        W36215   8.171  11.314   1.895 -0.4470 -0.0807  0.0955
20032W        W36216   7.656   3.152  15.780  0.0166  0.1463  0.1969
20033W        W36217   4.583   5.036   4.651  0.3795 -0.1014 -0.1032
20034W        W36218   2.604   0.334   5.028 -0.2207  0.2562  0.1877
20035W        W36219   5.352  15.170   3.912 -0.1090 -0.2134 -0.1842
20036W        W36220  11.931   8.368   0.707 -0.1290  0.0725 -0.1477
20037W        W36221  10.184   1.816  13.680 -0.0116 -0.2920 -0.0841
20038W        W36222   6.879  13.783  10.957 -0.0244 -0.0122  0.0815
20039W        W36223   5.504  11.791  14.997 -0.0161  0.0444  0.2004
20040W        W36224  13.195   3.496   2.844  0.0764 -0.1164 -0.2833
20041W        W36225   5.133  12.356   2.590  0.3052 -0.0457  0.0796
20042W        W36226  15.707   4.105  16.108 -0.2714 -0.1827  0.1327
20043W        W36227   9.275   8.406  13.681 -0.1962 -0.3927  0.1899
20044W        W36228  14.929  17.821  13.000  0.0803  0.1183 -0.0292
20045W        W36229   6.591   6.077  14.000  0.0050  0.1624  0.2081
20046W        W36230  13.663   3.044   3.427 -0.1527 -0.3853  0.0777
20047W        W36231   8.833  16.504  12.151 -0.1168  0.0426 -0.1623
20048W        W36232  14.571  17.991  16.015 -0.1460  0.1776  0.0489
20049W        W36233  15.570  13.720  13.847 -0.1224  0.0546  0.2492
20050W        W36234  12.691  11.630  14.885 -0.0153  0.1561  0.0169
20051W        W36235   3.117   2.111  12.477 -0.3245 -0.3944 -0.2149
20052W        W36236  10.964   2.066  12.501 -0.1345 -0.2240  0.1966
20053W        W36237  14.610   5.154  14.439  0.2131  0.1888  0.1117
20054W        W36238   2.893  15.233  12.564 -0.2550  0.1073  0.2583
20055W        W36239  17.191   4.505   5.628  0.0992  0.1568  0.2516
20056W        W36240  12.932  10.545  11.320  0.3423  0.1445 -0.0638
20057W        W36241  17.842  16.079   0.090 -0.1553 -0.1511 -0.3198
20058W        W36242   8.342   2.639   3.837 -0.0335 -0.1631 -0.2183
20059W        W36243  11.957   7.079  13.685  0.0209  0.3565 -0.2892
20060W        W36244   1.836  12.972  13.538  0.1252  0.2326  0.0028
20061W        W36245   4.859  10.073   4.076  0.1323 -0.0564 -0.1343
20062W        W36246  11.418  11.727  13.906 -0.0233  0.0171 -0.0857
20063W        W36247  16.695  15.734   0.570 -0.2471  0.3889 -0.2402
20064W        W36248  10.474   3.155  15.553 -0.0209 -0.1156  0.1470
20065W        W36249   9.350   7.840  11.458 -0.1202 -0.3490 -0.0877
20066W        W36250  16.387   5.235  12.079  0.0510  0.2628  0.1725
20067W        W36251   8.872   2.758   2.002  0.0258 -0.0683 -0.2376
20068W        W36252  14.774  17.537   1.708 -0.0568  0.4147  0.1180
20069W        W36253  11.672  14.182  11.871  0.0751 -0.0584  0.1657
20070W        W36254   6.357  16.523  16.642  0.1885 -0.1697 -0.0923
20071W        W36255   4.252   3.030  12.420  0.3262  0.2504  0.1265
20072W        W36256  11.092   8.412   1.650  0.0522 -0.0449 -0.1808
20073W        W36257   7.545  12.494  11.763  0.1406  0.0309  0.1540
20074W        W36258   7.769   8.228  11.512  0.2831  0.2700  0.1331
20075W        W36259  16.746   2.637  15.115 -0.6569 -0.1863 -0.2201
20076W        W36260   6.050  17.738   5.410 -0.2476 -0.1528 -0.1735
20077W        W36261  10.861   8.133   5.048  0.1138 -0.1609  0.0932
20078W        W36262  16.427   0.638  15.976  0.1025 -0.3843  0.2226
20079W        W36263  16.758  17.273  11.548 -0.0282  0.3036  0.2916
20080W        W36264  16.943  12.397  13.205 -0.1841  0.2193  0.2567
20081W        W36265  16.121   9.531   4.568 -0.1007 -0.2792 -0.2360
20082W        W36266  11.970  10.531  13.950  0.0575 -0.0234 -0.0715
20083W        W36267  13.340  14.768  15.567 -0.1138 -0.1878  0.3660
20084W        W36268  12.166   6.625  13.842  0.1907 -0.1816  0.0576
20085W        W36269   6.706  12.018  11.870 -0.3458  0.2607 -0.0029
20086W        W36270  13.764  10.285   3.281  0.0025 -0.1332 -0.0928
20087W        W36271  15.028  14.177   4.635 -0.2870  0.2454 -0.0575
20088W        W36272   2.731   3.715  16.209 -0.0736 -0.3564 -0.1213
20089W        W36273  13.667   4.191   2.840 -0.0395 -0.0794  0.0738
20090W        W36274   6.821   5.576   5.868  0.1888 -0.3185 -0.0804
20091W        W36275  12.862   4.643   3.381  0.0640  0.0367 -0.0175
20092W        W36276   9.730   7.203   6.704 -0.3371  0.0528 -0.1262
20093W        W36277  12.459   2.188  15.013  0.0840  0.0169  0.0677
20094W        W36278  14.800   0.780  11.238  0.1742  0.1364 -0.3483
20095W        W36279   3.735  11.761   0.707  0.2070  0.0568  0.2500
20096W        W36280   4.004   1.927   2.374 -0.2184  0.1956 -0.0903
20097W        W36281   6.042  17.812  14.920 -0.1160  0.0890  0.0053
20098W        W36282   6.254  11.392  15.526 -0.3503  0.0213  0.0514
20099W        W36283  12.611   2.609   1.487  0.0430 -0.1761 -0.0058
20100W        W36284  10.135   1.578   0.673 -0.1561 -0.1993  0.2920
20101W        W36285   9.393   3.173   3.239  0.2149  0.2925 -0.0406
20102W        W36286   7.185  11.695   4.768 -0.3906 -0.1826  0.0865
20103W        W36287   9.030   1.521   5.342 -0.4082 -0.0365 -0.0993
20104W        W36288  10.030  13.017  16.149  0.1404 -0.0165  0.1884
20105W        W36289   1.623   4.581  12.288  0.1426 -0.0879 -0.2466
20106W        W36290   1.673   2.404   4.449 -0.1319 -0.4039  0.1802
20107W        W36291   0.257  17.388   2.890  0.0247  0.0730  0.0483
20108W        W36292  12.563  15.264  16.479 -0.1742  0.0416  0.0071
20109W        W36293  14.693  14.970   3.911  0.2419 -0.0744 -0.2108
20110W        W36294   2.605   2.085  15.051 -0.1658  0.0509  0.2079
20111W        W36295  10.075   2.628  13.753  0.1234  0.3326 -0.4135
20112W        W36296  13.170   1.796  15.942 -0.0326  0.0476 -0.1318
20113W        W36297   9.155   3.015   5.387  0.1092 -0.0380  0.0636
20114W        W36298   1.651   9.653  15.265  0.1366  0.0306 -0.0670
20115W        W36299  16.429  17.216  15.667 -0.1602  0.0925 -0.0838
20116W        W36300   2.140  10.867  10.530 -0.0462 -0.0025  0.0941
20117W        W36301   1.035  10.658   1.141  0.2003 -0.0785 -0.0858
20118W        W36302  14.706   0.489  13.557  0.1416 -0.1695 -0.1135
20119W        W36303   2.598   4.455   1.761  0.3079  0.1786  0.2329
20120W        W36304   7.826  10.164  16.658  0.0613  0.3677  0.0415
20121W        W36305  11.468  16.871   5.230  0.1212  0.0449  0.2230
20122W        W36306   8.313   0.912   0.644 -0.0193  0.0567  0.3202
20123W        W36307  17.509   5.890   2.591 -0.0251  0.0707 -0.1861
20124W        W36308   2.333   9.846   3.071  0.0294  0.0905 -0.0914
20125W        W36309  10.276   8.533  15.353  0.3153  0.1752  0.0306
20126W        W36310  10.930  12.206   4.694  0.0634 -0.0711 -0.2401
20127W        W36311  17.233  10.501   4.210  0.0352  0.1818 -0.1440
20128W        W36312  15.180   2.964   1.381  0.1784  0.2329  0.0948
20129W        W36313  11.826  14.346   3.069 -0.2199  0.0626  0.0559
20130W        W36314  10.124   7.888   0.764 -0.0140  0.2572 -0.0890
20131W        W36315   1.697  16.526   1.969  0.0391  0.1389 -0.1292
20132W        W36316  12.349   0.282   0.827  0.1532  0.4773  0.1215
20133W        W36317  16.507  13.274   3.984  0.3986  0.1458 -0.0584
20134W        W36318  11.079   7.033   0.644  0.1885 -0.0637 -0.0450
20135W        W36319   5.748  11.755  13.573  0.0327  0.0123  0.2225
20136W        W36320  14.717   0.791   5.402  0.1015  0.0961  0.0690
20137W        W36321   8.629  15.291   1.666  0.1380  0.2346  0.2329
20138W        W36322  13.634  10.602  16.454 -0.1140 -0.1437 -0.2690
20139W        W36323   1.654  12.368  15.203  0.1706 -0.1211 -0.2169
20140W        W36324  10.011   5.216   3.212  0.0279 -0.0454 -0.0578
20141W        W36325   1.478  15.230  13.741  0.0974  0.3308  0.1232
20142W        W36326   7.269   7.043   4.290 -0.0240 -0.1000 -0.1033
20143W        W36327   8.468  14.821   4.957  0.2752 -0.1021  0.0777
20144W        W36328   5.807   2.914   5.055 -0.0837 -0.1687 -0.3061
20145W        W36329   4.155  17.999  15.065 -0.3351 -0.0625 -0.1449
20146W        W36330   8.263   7.215   0.111 -0.0445 -0.2130  0.0952
20147W        W36331  16.778   9.291   0.029 -0.1396  0.1836 -0.1440
20148W        W36332   3.714   5.201  11.980 -0.1633 -0.0283  0.2322
20149W        W36333  13.533  10.411  15.881  0.1331  0.2321  0.4433
20150W        W36334  15.414  16.060  13.400  0.0704  0.1011  0.1038
20151W        W36335   9.170   9.898   5.217 -0.0973 -0.0858  0.2160
20152W        W36336  11.950   7.930  15.229 -0.1618  0.1076 -0.0610
20153W        W36337  14.944   7.239  15.173 -0.1155 -0.1139 -0.0104
20154W        W36338   8.518  11.036   1.482  0.0038 -0.1507 -0.1242
20155W        W36339   8.122   2.247   5.640  0.2388 -0.2628 -0.0745
20156W        W36340   7.592  12.026   6.307 -0.0859 -0.0006 -0.0215
20157W        W36341   1.981   1.973   3.394 -0.0877  0.2647  0.1005
20158W        W36342  16.310   4.278   0.044  0.2505  0.0500 -0.0503
20159W        W36343  17.585  12.269  16.530 -0.0675 -0.0353  0.2594
20160W        W36344   9.873  17.105   2.634  0.3030  0.1521  0.1531
20161W        W36345   5.998   6.139  15.233 -0.2776  0.0971  0.1243
20162W        W36346   4.265  11.434   1.518  0.2027 -0.2388  0.1309
20163W        W36347   5.964   3.811   2.648  0.1576 -0.2210  0.0373
20164W        W36348   0.279   3.186   2.832  0.1057  0.1775 -0.1323
20165W        W36349   4.798  10.468  14.072  0.0194  0.2308 -0.0063
20166W        W36350   0.339   8.535  16.096  0.1001 -0.1325 -0.1613
20167W        W36351   5.822   7.516   5.462 -0.0649 -0.1521  0.0582
20168W        W36352   9.990   4.953  12.341 -0.0254  0.0280 -0.0552
20169W        W36353   8.392  17.648  16.273  0.2390 -0.1837  0.0444
20170W        W36354   8.665   6.054  15.675 -0.0512  0.2287  0.4357
20171W        W36355   4.328  10.568   3.934 -0.4066 -0.0767 -0.0634
20172W        W36356   3.277   2.017  16.438 -0.1134  0.0721  0.1531
20173W        W36357  12.902  12.344  15.435 -0.0369 -0.1104  0.0220
20174W        W36358  10.255  15.858   1.908 -0.0875  0.0535  0.0504
20175W        W36359  11.098  14.709  12.949 -0.0983  0.3499 -0.0371
20176W        W36360   7.622   5.682   3.318  0.2551 -0.2929  0.0806
20177W        W36361  16.243  14.533   4.240 -0.1990  0.0976 -0.0756
20178W        W36362   4.582  16.475   1.073  0.1998 -0.0171  0.0439
20179W        W36363   7.978   8.249   4.740 -0.0628  0.0792  0.3515
20180W        W36364  16.537  13.846   2.330  0.0030 -0.0445 -0.0882
20181W        W36365  15.630   1.453  13.312  0.0405 -0.1464  0.0442
20182W        W36366   9.785   7.190   4.790  0.1301  0.0286 -0.2387
20183W        W36367   1.412   4.447   1.079  0.0413 -0.0340 -0.1841
20184W        W36368   8.339  15.561   1.972  0.1996 -0.1819 -0.2581
20185W        W36369  14.496   9.906  14.706  0.0276  0.0122  0.0657
20186W        W36370   5.146   0.529   0.478 -0.0476  0.0919  0.3664
20187W        W36371   9.780   8.797   3.685  0.3490 -0.1614  0.0086
20188W        W36372  17.396  16.558  11.978 -0.0945 -0.0412  0.0548
20189W        W36373   5.715  12.439  16.146 -0.0105 -0.1551  0.0823
20190W        W36374   5.304   9.963  13.419 -0.1768  0.2886 -0.0693
20191W        W36375  11.067  14.402   0.447 -0.3070  0.1026  0.0994
20192W        W36376   5.265  13.190  13.167  0.1442 -0.1298  0.3817
20193W        W36377   2.902  15.686  14.186 -0.0072 -0.0069  0.1025
20194W        W36378  10.065   2.954  16.374 -0.0571 -0.0651  0.0375
20195W        W36379  11.334  15.352  13.004 -0.1097 -0.1369 -0.0038
20196W        W36380  17.449   5.587  14.247 -0.1968 -0.0409 -0.0909
20197W        W36381   4.409  16.502  16.543  0.2068 -0.1228 -0.0563
20198W        W36382  17.764   2.013  15.117  0.0771 -0.3379  0.1646
20199W        W36383  15.618  12.600   3.192 -0.1572 -0.2870  0.0252
20200W        W36384  10.298  17.919   0.564  0.1166 -0.1451  0.1485
20201W        W36385  16.684   1.663  15.653  0.1146  0.0666  0.0474
20202W        W36386   4.658  10.094   2.833  0.3113 -0.1316  0.1766
20203W        W36387  16.123   4.994   1.237  0.2422 -0.1703 -0.0411
20204W        W36388  17.806   0.362   3.467  0.1208 -0.0403 -0.0203
20205W        W36389  14.371   8.010   5.005  0.0559 -0.2228 -0.2504
20206W        W36390   5.549  16.127   3.102 -0.1592 -0.0688 -0.1157
20207W        W36391   6.461  12.414  13.668 -0.1040  0.2166 -0.1222
20208W        W36392  16.504  17.981   3.002  0.2116  0.0195 -0.0742
20209W        W36393   1.934   7.864   3.374 -0.0327 -0.1547  0.4437
20210W        W36394   9.567   8.410   3.261 -0.2512  0.1953  0.1024
20211W        W36395  16.943   8.262   0.976  0.1345  0.0931 -0.0930
20212W        W36396   9.736   6.938  15.476  0.1913 -0.2599  0.2388
20213W        W36397   6.795   1.706  12.802  0.0240  0.1677 -0.1160
20214W        W36398   3.344   6.004   4.784  0.1785  0.0037 -0.4058
20215W        W36399  15.869   1.396   0.849  0.0538  0.3073 -0.1731
20216W        W36400   1.574   0.604   2.384 -0.3912 -0.0364 -0.0064
20217W        W36401   4.473  12.954   0.750 -0.0978 -0.0649 -0.1187
20218W        W36402  13.106  11.375  14.824 -0.2800 -0.0918  0.0040
20219W        W36403   2.287   5.184  15.409 -0.0082 -0.3161  0.1001
20220W        W36404   7.029  16.077  11.980  0.1769 -0.1228  0.1672
20221W        W36405  15.217  13.185   1.521 -0.2372  0.0858 -0.0520
20222W        W36406   2.804  13.419   4.367  0.0709 -0.3168 -0.0180
20223W        W36407  12.942   0.134  14.775  0.0086  0.1961 -0.0286
20224W        W36408  10.359   5.513  11.975  0.0549 -0.0982 -0.0028
20225W        W36409  15.475  15.685   2.962  0.0620  0.0012  0.1649
20226W        W36410  16.766  11.629   1.497 -0.0493  0.0625  0.0348
20227W        W36411  10.012  15.326  13.312  0.0601  0.2657  0.0345
20228W        W36412  17.111  14.097   3.059 -0.4509 -0.1055  0.0866
20229W        W36413  13.702   7.745  14.010 -0.0549 -0.2293 -0.2529
20230W        W36414  12.751  11.095  11.990  0.3011 -0.0864  0.0427
20231W        W36415  17.426   8.635   4.694  0.1591 -0.2067  0.2030
20232W        W36416  10.733   9.762  13.298 -0.2073  0.0557  0.2384
20233W        W36417  13.628   4.511   0.566 -0.0651  0.0188  0.1493
20234W        W36418   2.002  11.996   0.853  0.0121  0.1837  0.4155
20235W        W36419  12.096   9.236  15.372  0.1922 -0.0565  0.4087
20236W        W36420   3.166   9.993   0.326  0.0637 -0.2356  0.0320
20237W        W36421   2.105   1.149   3.119 -0.2494  0.0547 -0.0946
20238W        W36422  13.526   2.274   3.558  0.0702 -0.0592 -0.1161
20239W        W36423  12.613   2.887   0.127  0.0024 -0.0353  0.0620
20240W        W36424   2.140   4.450  12.331  0.0127 -0.0315 -0.0020
20241W        W36425   6.137   6.851  12.357  0.4367  0.1106 -0.3298
20242W        W36426   8.859   8.214  16.392 -0.1409 -0.0787 -0.3887
20243W        W36427   0.617   0.629  16.064  0.0934  0.1076 -0.1275
20244W        W36428   9.760   1.206  13.181  0.3897 -0.2309  0.1681
20245W        W36429  12.303   8.237   3.715  0.0528  0.1633  0.1285
20246W        W36430  16.849  16.729  13.994  0.2193 -0.0197  0.4506
20247W        W36431  12.257   2.462   1.190  0.0600  0.0176  0.2936
20248W        W36432   1.787   7.933   5.519  0.0512  0.1231  0.2129
20249W        W36433   6.002   7.602  13.300  0.4824  0.0533 -0.0740
20250W        W36434   3.162   8.172  15.163 -0.1196 -0.2540  0.1751
20251W        W36435   7.974   7.119   2.345 -0.3439 -0.2360 -0.3674
20252W        W36436   5.168   8.638  11.853 -0.1176 -0.1533  0.1742
20253W        W36437   9.038   7.433   3.183  0.2040  0.2473 -0.1335
20254W        W36438  12.534   0.773  14.990  0.1381  0.0951  0.0797
20255W        W36439  11.665   5.547  12.195  0.0804  0.1081  0.2469
20256W        W36440   6.284  10.871   2.517 -0.3189 -0.0248 -0.0655
20257W        W36441   8.654  12.808   3.016  0.1952 -0.1711 -0.3381
20258W        W36442  15.503   4.909  13.089 -0.0532  0.0911  0.0944
20259W        W36443   7.432   3.391  13.344  0.2403  0.1092  0.2128
20260W        W36444   0.356   6.597   4.362  0.0381 -0.2902  0.1790
20261W        W36445  16.871   4.590   2.654  0.1170 -0.0178 -0.1596
20262W        W36446   0.405   3.582  14.033  0.2181  0.0788  0.1497
20263W        W36447   4.923   8.448   3.456  0.3059 -0.0826 -0.0188
20264W        W36448   5.515   0.990   1.071  0.1504  0.0478  0.0082
20265W        W36449  12.282  12.253   4.452 -0.0567 -0.2257  0.1552
20266W        W36450   3.787   9.344   4.435 -0.1777  0.0084  0.1084
20267W        W36451   9.614   3.557   2.057  0.0748 -0.0366 -0.2607
20268W        W36452  17.629   0.793  13.501  0.1248  0.0739  0.2660
20269W        W36453   4.815   3.230   5.185 -0.1381 -0.0882  0.3071
20270W        W36454   9.496  16.951  16.350 -0.2827  0.0909  0.0597
20271W        W36455  17.992   0.354  12.177  0.2804  0.0431  0.2221
20272W        W36456   3.333   4.672  15.481 -0.1513 -0.0180 -0.4730
20273W        W36457   7.322   1.744  14.075 -0.3360  0.2173  0.0557
20274W        W36458  12.623   2.285  12.718 -0.1161 -0.2096 -0.1233
20275W        W36459  10.683  14.509  15.743 -0.1841  0.2817  0.0817
20276W        W36460  11.401  11.296  15.023  0.3103 -0.0127  0.3095
20277W        W36461  10.586   1.854   0.522 -0.2514 -0.1557 -0.1011
20278W        W36462  14.752   3.592   3.636 -0.1437  0.0813 -0.0578
20279W        W36463   8.803   9.144   0.473 -0.2022 -0.1402  0.0689
20280W        W36464   0.385  10.570  15.968 -0.2183 -0.2271  0.1673
20281W        W36465   3.493   3.807  15.846  0.0438  0.1077 -0.0652
20282W        W36466   8.345  15.332  13.665 -0.0078 -0.0138  0.3637
20283W        W36467  17.098   0.821  11.131  0.0810 -0.1869 -0.1160
20284W        W36468   9.753  12.613  15.999 -0.0540  0.3099  0.2141
20285W        W36469   6.230   1.190  14.182 -0.0835  0.1114  0.0259
20286W        W36470   5.759  10.009  15.114 -0.0998 -0.0357 -0.1967
20287W        W36471   9.386   8.213   0.497  0.0905  0.1539 -0.1820
20288W        W36472   2.073  15.003  12.988  0.1777  0.0905  0.2614
20289W        W36473   2.320  12.664  14.232 -0.1974  0.0115  0.2722
20290W        W36474  15.280   8.861   0.665  0.3127 -0.2123  0.3359
20291W        W36475   1.971   8.818  14.835 -0.0994 -0.0250  0.0696
20292W        W36476   0.696  14.640   5.391 -0.0397 -0.1935  0.0776
20293W        W36477   6.179   0.049   3.980 -0.0855  0.0701 -0.1955
20294W        W36478  10.468   3.162  15.053 -0.0021  0.1292  0.0482
20295W        W36479   6.594  12.290  13.165 -0.1717 -0.1063  0.0158
20296W        W36480   1.133   4.251  15.682  0.2799  0.0465  0.1133
20297W        W36481  11.532  15.914   4.902  0.0969 -0.2051 -0.0306
20298W        W36482  14.411  16.972  15.053 -0.0917 -0.3931 -0.2498
20299W        W36483   1.851   3.867   3.066 -0.1063 -0.0459  0.0231
20300W        W36484  11.555   4.537   1.723  0.0132 -0.3114  0.0239
20301W        W36485   5.710   8.115  15.568  0.0137  0.2731  0.2608
20302W        W36486   5.810   3.295   2.250 -0.0626 -0.1497 -0.0597
20303W        W36487   5.829   1.526   5.511 -0.2924  0.0514 -0.2464
20304W        W36488   3.232   6.774   5.257  0.2104 -0.1805 -0.0154
20305W        W36489   2.129  12.851   6.694 -0.0753  0.2704  0.0064
20306W        W36490  17.219   1.509   3.916  0.0858  0.1070 -0.1638
20307W        W36491   8.750  12.032   4.463  0.0196  0.2307 -0.2396
20308W        W36492  15.936  14.409   1.305  0.0456 -0.4110  0.1803
20309W        W36493  10.794   7.837   4.520 -0.1313  0.1117 -0.1269
20310W        W36494  13.608   6.723  11.621  0.1252 -0.1277  0.1272
20311W        W36495  16.793   4.103  16.622 -0.0934  0.0737  0.4696
20312W        W36496  17.923  10.389   5.262  0.1291 -0.3329 -0.2018
20313W        W36497   8.561   2.995   0.991 -0.3726  0.3710  0.0864
20314W        W36498   2.350   8.546  14.894  0.1280  0.0776 -0.0997
20315W        W36499   0.895  11.995  16.294  0.1634 -0.1158  0.2253
20316W        W36500  17.795   1.702  15.694 -0.0862 -0.0037  0.1484
20317W        W36501  10.038   3.128  15.909  0.1120  0.0309 -0.0878
20318W        W36502  16.520   2.993  12.046  0.1143  0.1466  0.0953
20319W        W36503  14.996  14.926  10.694 -0.0386 -0.3205 -0.2826
20320W        W36504   6.611   7.655   2.664  0.0023 -0.0723  0.1591
20321W        W36505  15.874  10.962  13.586 -0.1871 -0.2454  0.1100
20322W        W36506  13.130   5.328   1.234  0.2921  0.0783 -0.0752
20323W        W36507  12.809  12.883   0.483  0.1602  0.1777 -0.3434
20324W        W36508  13.533  12.888  14.618 -0.0948 -0.0448  0.0458
20325W        W36509  15.570   8.871  13.148 -0.0459 -0.1346 -0.0556
20326W        W36510   2.589   2.228   4.708  0.0579 -0.4260 -0.1578
20327W        W36511   4.868   5.419  13.509  0.0048 -0.3173  0.0508
20328W        W36512   8.033   6.727   2.096  0.0102 -0.1080 -0.1178
20329W        W36513   5.892   8.772   1.843  0.1431  0.2599  0.0730
20330W        W36514  14.437  10.752  12.357  0.0225 -0.0530 -0.1802
20331W        W36515   4.865   3.166  14.506  0.0954  0.3833 -0.0670
20332W        W36516  16.921   3.787  13.406  0.0145  0.0212 -0.0072
20333W        W36517  10.520   8.708   2.734  0.0812 -0.0948 -0.1584
20334W        W36518  17.475  15.949   1.436  0.2404 -0.2660  0.0840
20335W        W36519   5.642   5.265   0.131 -0.0767 -0.1823 -0.0584
20336W        W36520  13.055  11.773   3.099 -0.2332  0.0638 -0.3704
20337W        W36521  13.968  16.343   5.671  0.1739 -0.2117 -0.1161
20338W        W36522  10.881  10.556   0.030  0.2472 -0.1633 -0.2373
20339W        W36523   8.389  16.440  11.847 -0.1302  0.0847 -0.0264
20340W        W36524  14.673   0.675  14.221  0.0247  0.0114  0.0717
20341W        W36525  14.045  11.200  13.205  0.3381 -0.1468  0.2545
20342W        W36526   8.760   8.516  13.649 -0.2418 -0.0542 -0.3130
20343W        W36527   1.944   5.597   2.075  0.0787  0.0779 -0.1642
20344W        W36528   0.483  10.767  14.571  0.0326 -0.3223 -0.1614
20345W        W36529  14.986  10.664  16.088  0.3866  0.2813 -0.2412
20346W        W36530  12.866   8.501   2.979 -0.2907  0.0076 -0.0323
20347W        W36531  17.391   3.414   0.111  0.0092  0.1737  0.3032
20348W        W36532   0.635   1.807  15.287 -0.0733 -0.1596  0.0521
20349W        W36533   3.581   2.286  13.297 -0.0535 -0.1928  0.2355
20350W        W36534  13.432  12.981   2.813  0.0257  0.1646 -0.2270
20351W        W36535  17.824   0.692   2.765  0.2924 -0.0499  0.4566
20352W        W36536  11.131   9.130   1.080 -0.0630 -0.0695 -0.2177
20353W        W36537   6.273   3.260  12.805  0.0462 -0.2745 -0.0311
20354W        W36538   5.829   3.343  15.715  0.0149  0.0528 -0.0696
20355W        W36539   0.496  13.569  15.115  0.2908  0.1082  0.0359
20356W        W36540   0.452   1.921  14.751 -0.1354 -0.0695 -0.1477
20357W        W36541  14.274  16.379   4.749  0.1725 -0.2284  0.2356
20358W        W36542   1.061   3.853   5.559  0.0966  0.0694 -0.2629
20359W        W36543   9.192   0.141   0.017  0.1346  0.1919  0.4124
20360W        W36544  12.145   6.976  13.219  0.0069 -0.0186 -0.3133
20361W        W36545   7.878  14.805  15.421 -0.1440  0.0155  0.0657
20362W        W36546  17.796  12.265   2.198 -0.0849 -0.1995 -0.1231
20363W        W36547   4.824   8.457   4.390 -0.0464  0.0882  0.1309
20364W        W36548  10.963  16.638   2.307  0.1000 -0.2199  0.2316
20365W        W36549  12.604  15.804  13.675 -0.2296  0.0225 -0.1271
20366W        W36550   9.522   8.767  12.161 -0.2393 -0.0612  0.0458
20367W        W36551   3.396   9.754  13.082 -0.1623  0.2052  0.0139
20368W        W36552   1.660   6.189   4.611  0.3351  0.0114 -0.2445
20369W        W36553  17.605   3.212   2.313 -0.1211 -0.1973  0.3231
20370W        W36554   7.056  13.626  14.673  0.1269  0.1403  0.0039
20371W        W36555  12.329  15.874  16.643  0.0760  0.0763  0.3410
20372W        W36556   6.971   8.034  12.389  0.0428 -0.2006  0.0024
20373W        W36557   2.546  17.699   4.714 -0.4036 -0.0917 -0.1931
20374W        W36558  10.715   1.628   1.505 -0.0613  0.4835 -0.1871
20375W        W36559  12.026   4.592  15.024 -0.0157  0.0453  0.1054
20376W        W36560   4.347  17.658  11.568 -0.0980  0.1090 -0.0912
20377W        W36561   2.918  12.025   0.732  0.1758 -0.0130  0.2373
20378W        W36562  13.727  16.290  10.841  0.2240  0.1539 -0.1022
20379W        W36563  13.755   6.831  12.054 -0.2031 -0.0034 -0.1335
20380W        W36564  15.064  14.603   3.589  0.1417 -0.0733 -0.2172
20381W        W36565  14.987   8.199  11.987  0.2640 -0.4825  0.1606
20382W        W36566  15.855  17.720  13.540  0.3341 -0.0439 -0.0855
20383W        W36567   4.451  16.554  14.051  0.3479  0.3236  0.1264
20384W        W36568  13.933  13.357   1.625 -0.1813 -0.3204 -0.2193
20385W        W36569  11.963  15.376   3.647 -0.2036 -0.3228 -0.0762
20386W        W36570   3.720  12.402   0.828 -0.1444 -0.0625 -0.2627
20387W        W36571   9.762   6.659  11.957 -0.1084  0.0301 -0.0249
20388W        W36572   0.303  14.066   1.361  0.1649 -0.0173  0.2223
20389W        W36573  12.002   0.033   1.152  0.0761 -0.3398  0.0273
20390W        W36574   6.683   3.171  16.205 -0.2511 -0.0594  0.2996
20391W        W36575   7.898   3.565  12.246 -0.1794 -0.2725 -0.0759
20392W        W36576  17.246   5.855   0.457  0.0609 -0.2711 -0.0362
20393W        W36577   8.510  10.278   4.652  0.1258  0.2204 -0.0118
20394W        W36578   7.825  16.649   2.902 -0.0549  0.0417 -0.3252
20395W        W36579   6.837  14.447  14.755  0.2102  0.0649 -0.0483
20396W        W36580  12.436  11.960  16.624 -0.0612 -0.2439 -0.0929
20397W        W36581  14.740  17.923   3.046  0.0536  0.0746  0.0162
20398W        W36582   4.484   8.118   2.673  0.0089  0.0727  0.1749
20399W        W36583  16.700   7.569  13.520  0.0529 -0.1581  0.0029
20400W        W36584  16.497   7.311  15.082  0.2374  0.1234 -0.0439
20401W        W36585  12.167  14.366   2.504 -0.0459 -0.1757 -0.1614
20402W        W36586  14.454  11.276   4.087  0.0168 -0.1756 -0.0045
20403W        W36587   1.068  13.229  13.927  0.0401 -0.0384  0.0429
20404W        W36588   4.808  10.806   0.702 -0.0355  0.1333  0.0443
20405W        W36589   1.325  15.745  11.471 -0.0517  0.0130  0.4931
20406W        W36590  11.998  10.008   0.792  0.3109  0.0384 -0.2249
20407W        W36591   8.255   8.528  13.695  0.1674  0.3441  0.1151
20408W        W36592  10.722   7.385  14.044  0.3543 -0.2137  0.0300
20409W        W36593   2.275   1.962  12.803 -0.1395 -0.2385  0.0982
20410W        W36594   0.480   0.507   5.913 -0.3084  0.1812  0.4257
20411W        W36595  10.489  17.425  13.012  0.0095 -0.2426 -0.0846
20412W        W36596  15.251  16.065  16.699 -0.0335  0.1709 -0.1766
20413W        W36597   1.843   6.496  14.217  0.1293  0.0415  0.2514
20414W        W36598   6.649   7.608  12.500 -0.2035  0.1720 -0.2133
20415W        W36599  14.047   9.142  14.830 -0.0584  0.3492 -0.0912
20416W        W36600  16.798   6.534   4.599 -0.1774  0.2482 -0.0469
20417W        W36601   6.608   3.928  16.612 -0.2631  0.2308  0.2403
20418W        W36602   8.277  14.050  12.412  0.1078  0.1282 -0.0293
20419W        W36603   8.091  10.375   5.952  0.1464  0.0763 -0.1860
20420W        W36604   9.076  12.006   3.090 -0.1253  0.1040  0.1798
20421W        W36605  11.547  11.715  13.368 -0.0501 -0.1760 -0.3922
20422W        W36606   6.625  10.308  11.759 -0.2289  0.2953  0.0528
20423W        W36607  11.661   2.682  13.188  0.0912 -0.0023  0.2638
20424W        W36608   4.831  10.552   3.980 -0.0568  0.0976  0.2337
20425W        W36609   2.332   4.005   2.905  0.1017  0.2458  0.0344
20426W        W36610  16.369  17.860  13.463 -0.2950 -0.2502  0.0946
20427W        W36611  12.146  15.334   3.167  0.0366  0.2307 -0.0720
20428W        W36612  16.378   4.407  14.930 -0.0266  0.0365  0.0093
20429W        W36613   7.484   3.087  15.322 -0.4545 -0.1148 -0.5085
20430W        W36614  17.380  16.885  14.828 -0.2408 -0.0177  0.0893
20431W        W36615   6.494   2.139  12.118  0.0928 -0.0598 -0.0057
20432W        W36616   9.491  16.802   1.358 -0.0812  0.0999  0.0331
20433W        W36617  10.874   3.983   2.878 -0.0405 -0.0377 -0.2066
20434W        W36618  17.610   9.109   0.318 -0.2128 -0.0657 -0.0880
20435W        W36619  14.287  16.923  14.153 -0.3799  0.1309 -0.1493
20436W        W36620   7.823  12.067   2.307 -0.2041  0.4161  0.0774
20437W        W36621   9.462   8.654  12.671 -0.2338 -0.0950 -0.0888
20438W        W36622   5.573   7.585  14.649  0.0357  0.0342 -0.0070
20439W        W36623   3.947   7.469   3.099  0.0924 -0.1524 -0.1760
20440W        W36624   7.799  11.951   3.670 -0.1979  0.0141  0.0516
20441W        W36625   9.846  12.827  10.453  0.2060 -0.1067 -0.1592
20442W        W36626  17.701  16.106   4.680  0.0427  0.0783 -0.1597
20443W        W36627  16.236   0.775   0.200  0.2024  0.1704 -0.0544
20444W        W36628   6.068   9.429  12.823 -0.2269  0.1719  0.0753
20445W        W36629  11.428   2.013  15.866  0.2653 -0.0692 -0.1649
20446W        W36630  17.962  11.576   2.677  0.1241  0.2903 -0.0524
20447W        W36631  12.659   8.741  11.797 -0.2908 -0.1143 -0.1709
20448W        W36632  16.963   6.688   2.287 -0.0646 -0.0959 -0.1532
20449W        W36633   7.575   8.809  14.101 -0.3069  0.1219 -0.0373
20450W        W36634  10.818   4.167   4.938  0.3296 -0.1526  0.1419
20451W        W36635  17.405   4.468   4.346  0.0161  0.2682 -0.1856
20452W        W36636   1.854  11.619   2.523  0.2334 -0.0492  0.2503
20453W        W36637   3.288  11.368  13.692 -0.0978  0.0951 -0.0457
20454W        W36638   2.253   9.680   0.874  0.0402  0.4832 -0.3598
20455W        W36639   9.473   3.144   3.822 -0.0598 -0.4106 -0.0203
20456W        W36640   0.716   6.888  12.604  0.0569 -0.1015 -0.1247
20457W        W36641   6.555   1.094  11.803 -0.0053  0.0311  0.0455
20458W        W36642   0.782  13.257  11.960  0.1298  0.0871  0.0009
20459W        W36643   3.768   4.531   0.366  0.1287 -0.2054 -0.1395
20460W        W36644  13.392   8.107   4.529 -0.1233  0.2505 -0.0372
20461W        W36645   8.754   3.308  11.995 -0.2451 -0.1184  0.1251
20462W        W36646   3.856  17.035  12.256  0.0571  0.0346 -0.3166
20463W        W36647  15.154  16.719  12.658 -0.0929 -0.4458 -0.0214
20464W        W36648   2.486   9.887  15.062 -0.1290 -0.0828 -0.2169
20465W        W36649  17.666   2.512  15.208  0.2049  0.1959  0.1340
20466W        W36650  10.090   4.574   4.675 -0.2235  0.2275  0.5415
20467W        W36651   1.094   5.365  14.300  0.1331  0.1422  0.1178
20468W        W36652  16.016  13.433  16.679  0.1654 -0.1636  0.3925
20469W        W36653   9.838   9.126  15.164  0.2101  0.2807  0.0609
20470W        W36654  12.587   9.975   4.596  0.1510 -0.2854 -0.1845
20471W        W36655   0.360   2.064   5.632  0.0272 -0.1865  0.0093
20472W        W36656  17.466   2.740   4.089 -0.0777 -0.0181  0.2235
20473W        W36657  16.244   3.135  13.128  0.3384  0.2740 -0.1497
20474W        W36658  16.049  10.890   3.175  0.2463  0.1666  0.0396
20475W        W36659  10.970   6.175  16.366  0.2172  0.1076 -0.1454
20476W        W36660   8.908  10.147   3.672  0.1215 -0.4878  0.0676
20477W        W36661   0.734   0.085  11.632  0.0158 -0.1015  0.1309
20478W        W36662  17.446   3.629  14.155 -0.0449  0.1972 -0.1336
20479W        W36663   5.772  14.099  16.426  0.2362 -0.3678  0.0477
20480W        W36664   1.215  10.302   2.322 -0.2222 -0.1025 -0.0955
20481W        W36665   2.619   0.560   3.362 -0.4644  0.1675  0.0191
20482W        W36666  14.312  12.430   0.734 -0.1467  0.0533 -0.0459
20483W        W36667   8.476  14.999  12.203  0.0179  0.3805 -0.1923
20484W        W36668  15.556  14.671   4.943 -0.0090 -0.0060 -0.2482
20485W        W36669  16.727  10.051   0.556  0.1906  0.2009  0.1279
20486W        W36670   6.649   8.403  12.211 -0.1402 -0.1310 -0.3396
20487W        W36671  10.995   6.336  13.848  0.2699  0.3166  0.0145
20488W        W36672  13.583  15.476   1.761  0.0650  0.2099  0.3763
20489W        W36673  15.882   0.360   2.282  0.0043  0.0074 -0.2181
20490W        W36674  11.077   5.126   2.067  0.2053  0.2256 -0.2054
20491W        W36675  13.802   0.411  16.442 -0.3129 -0.0923  0.1383
20492W        W36676  13.532   2.479  13.603 -0.3841  0.2778  0.2424
20493W        W36677  14.144   0.503   4.312  0.2104  0.0268 -0.2354
20494W        W36678   4.294  10.021   4.088  0.0325  0.0825 -0.4422
20495W        W36679   7.117  15.555  15.768  0.1478  0.1817 -0.2391
20496W        W36680  17.715  16.590  13.580 -0.0143  0.0052 -0.1349
20497W        W36681  13.619   6.547   2.243  0.0747 -0.0442 -0.0481
20498W        W36682   3.030   5.322   2.858 -0.1160  0.0668 -0.1211
20499W        W36683  16.674  17.964  13.100 -0.1949  0.1195  0.1960
20500W        W36684  15.001  17.313   6.481 -0.0109  0.1377  0.1066
20501W        W36685  10.276  11.047   1.908  0.0798  0.1147  0.2154
20502W        W36686   2.556   1.533   5.148 -0.1552  0.3110  0.1287
20503W        W36687  10.122   3.677   4.712  0.1163  0.0275 -0.1468
20504W        W36688   2.987  16.658  12.138 -0.0131  0.2122  0.1437
20505W        W36689  16.317  11.812   0.704 -0.1593 -0.2830 -0.2102
20506W        W36690   9.535  16.524  14.977 -0.0094  0.3028  0.0402
20507W        W36691   8.341   0.823  13.633 -0.0534 -0.3560  0.1889
20508W        W36692   7.113  13.967   4.772  0.0340 -0.1873  0.0554
20509W        W36693   0.551  13.305  14.223 -0.1630 -0.1091 -0.0540
20510W        W36694   9.644   9.230  12.039 -0.2951 -0.1974  0.0812
20511W        W36695   4.716   0.137   1.981  0.1590  0.0435 -0.1032
20512W        W36696  10.339  16.510  16.664 -0.0216  0.2828  0.0517
20513W        W36697   2.851  16.653   3.247  0.3246  0.1895  0.1688
20514W        W36698  14.841   9.263   1.027  0.2686 -0.0209 -0.2107
20515W        W36699  14.251   6.646   3.595 -0.0060 -0.2278  0.0077
20516W        W36700  17.015  16.797   4.922  0.0505  0.2835 -0.0051
20517W        W36701   0.008  12.213  13.551  0.1946 -0.0933  0.0098
20518W        W36702   6.860  10.418   0.376  0.1470 -0.1270 -0.2014
20519W        W36703  12.875   9.315   5.029 -0.3651 -0.1322  0.1730
20520W        W36704   4.263   0.327  13.227 -0.2189 -0.2788 -0.0503
20521W        W36705   0.677   1.574  13.241 -0.0851  0.3382  0.0819
20522W        W36706   4.052   2.351   3.220  0.1673 -0.1577 -0.1835
20523W        W36707  11.395   5.120   5.637 -0.3353  0.0622  0.0607
20524W        W36708   9.953   4.989   5.055 -0.0282  0.1554 -0.2881
20525W        W36709   0.532  13.709   0.038 -0.0522 -0.5064 -0.0953
20526W        W36710   6.681   5.452   0.408 -0.1244 -0.2195  0.3088
20527W        W36711   1.625  11.110   4.897  0.2135 -0.0864  0.2842
20528W        W36712  11.921   7.869  12.548  0.1943  0.2158  0.0633
20529W        W36713   1.515  12.250   4.347  0.0865  0.1749  0.0686
20530W        W36714   1.051   0.195   3.176 -0.0872  0.1709  0.3442
20531W        W36715   7.113   7.506   3.591  0.0773 -0.0113 -0.1193
20532W        W36716  11.781   6.634  16.275  0.0872  0.5011 -0.0856
20533W        W36717  16.661   2.231   3.401 -0.0468 -0.0610  0.4688
20534W        W36718   9.041  12.779  11.625  0.0918  0.0747  0.0033
20535W        W36719  12.897   8.800  15.577 -0.2628  0.1020 -0.1204
20536W        W36720   1.987   6.308   0.090 -0.1105  0.0925  0.1438
20537W        W36721  14.785  12.565   5.707 -0.2698  0.1102 -0.4210
20538W        W36722   7.016  17.812   2.840 -0.4113  0.2361 -0.0246
20539W        W36723  14.530  10.271   3.851  0.1200 -0.0327 -0.0120
20540W        W36724  11.770  15.334   6.110  0.1310 -0.0703 -0.0814
20541W        W36725  13.212  10.438   2.101 -0.0596  0.2320  0.2177
20542W        W36726   7.685  12.859  14.505  0.1021 -0.1762 -0.0755
20543W        W36727  11.593  15.078  11.905 -0.4703 -0.0586  0.0054
20544W        W36728   9.213  16.095  14.679  0.3849  0.2875  0.0280
20545W        W36729  11.539  11.583   3.676 -0.1691 -0.0855 -0.1521
20546W        W36730   1.879  10.196   5.105  0.2650  0.0312 -0.1656
20547W        W36731   2.470   7.063   5.138 -0.1297  0.1280 -0.1896
20548W        W36732   5.154   4.188   1.625  0.0925 -0.1250  0.3495
20549W        W36733   4.515   6.386   5.035  0.2515  0.0588 -0.1525
20550W        W36734  13.943  10.421   2.814 -0.2367  0.1785  0.2132
20551W        W36735   5.118   2.900   1.834  0.0013  0.2768 -0.0745
20552W        W36736   1.838   0.697  14.245  0.1098  0.1128  0.0076
20553W        W36737  13.196  16.005   0.230  0.2076 -0.1014 -0.4182
20554W        W36738  12.284  17.748   1.596 -0.1466  0.0799 -0.0641
20555W        W36739  16.988  13.939   5.830  0.2961  0.1413  0.1427
20556W        W36740   8.562  16.425  14.982 -0.2828 -0.0097  0.2551
20557W        W36741  15.529   6.126   4.148  0.2501  0.1555  0.0176
20558W        W36742   9.368   9.093   1.990 -0.2103  0.5941  0.0443
20559W        W36743  11.926  14.968  13.853  0.0696 -0.0876  0.0641
20560W        W36744  11.968   4.110   5.951 -0.0735 -0.2387  0.4172
20561W        W36745  11.831   9.487  14.120 -0.3019 -0.0235  0.2370
20562W        W36746   5.993   5.829  12.175  0.1035  0.0087 -0.2557
20563W        W36747   6.153  11.085  13.813 -0.2330  0.2404 -0.3405
20564W        W36748   9.436  13.594  11.969 -0.2782 -0.0020  0.1034
20565W        W36749   5.106   5.112   4.653 -0.0108 -0.0441 -0.0958
20566W        W36750  16.883   1.927   2.233  0.1474 -0.1963  0.0750
20567W        W36751  12.078  11.456  13.404 -0.2013 -0.0811 -0.0271
20568W        W36752   8.782   0.243   1.987 -0.1495 -0.1172  0.1342
20569W        W36753  11.488   5.852  16.616 -0.1192  0.1331  0.0439
20570W        W36754   6.150   7.869  16.591  0.0961  0.1692  0.0417
20571W        W36755  16.878   0.839  12.318 -0.0043 -0.0710 -0.0947
20572W        W36756  11.249   1.599   2.796  0.1471  0.1333 -0.1423
20573W        W36757   9.577   8.327   6.281  0.0191 -0.0733  0.0627
20574W        W36758  12.181  11.759  16.275  0.1325 -0.1573  0.0265
20575W        W36759  15.166  13.964   3.316  0.1509 -0.1155 -0.1888
20576W        W36760  13.210  15.970  16.218  0.1049  0.1327  0.2395
20577W        W36761   3.287   5.034  14.367  0.3444  0.0855 -0.0314
20578W        W36762  13.146   9.146   1.835 -0.2751 -0.2344 -0.1744
20579W        W36763   4.563   9.980  15.847 -0.1006  0.2215 -0.2266
20580W        W36764   1.876   7.208  16.581 -0.0277  0.0590  0.0078
20581W        W36765  16.017   5.596  11.959  0.0858 -0.2563 -0.0437
20582W        W36766   6.120  15.093   5.872  0.1600 -0.1895 -0.1107
20583W        W36767  14.779  15.628  16.188 -0.0884  0.0173 -0.0809
20584W        W36768  13.545  14.357  15.765 -0.0135  0.1345 -0.0489
20585W        W36769   9.180   8.190  13.242  0.1884  0.1655 -0.0481
20586W        W36770   6.988   4.893  13.690  0.0785 -0.3828 -0.1628
20587W        W36771   8.600  16.785  15.365  0.0826  0.1858 -0.0903
20588W        W36772  11.236  17.217  13.948  0.0806 -0.3232  0.0035
20589W        W36773  14.542   7.364   4.245 -0.1813 -0.5675  0.1213
20590W        W36774   4.559  10.638   2.217 -0.0463  0.1026 -0.0824
20591W        W36775  15.607  12.475  12.217  0.1456 -0.0929  0.1480
20592W        W36776   1.349  14.254   1.555 -0.0058 -0.2589  0.3730
20593W        W36777   8.858  14.798   1.824  0.1978  0.2897  0.2037
20594W        W36778  12.988  14.660   0.469  0.1088  0.0568 -0.2819
20595W        W36779  13.943   7.505  16.114 -0.2283 -0.0358  0.0812
20596W        W36780   3.704   3.294   1.067 -0.1443  0.0969 -0.0194
20597W        W36781   3.073  16.302  16.162 -0.0529 -0.1185  0.2391
20598W        W36782  11.334  10.334  14.483 -0.0469  0.1614  0.1058
20599W        W36783   9.550  11.661   0.408  0.1364  0.2837 -0.0462
20600W        W36784   5.144   3.065  12.663 -0.1208 -0.0329  0.1430
20601W        W36785  15.462  14.399   2.570 -0.4046  0.0424  0.1042
20602W        W36786   3.512   7.575  12.563 -0.3590 -0.2164  0.2804
20603W        W36787   3.171   1.626  11.844 -0.2854  0.1578 -0.0546
20604W        W36788   4.567   9.640   5.042  0.1779  0.1097 -0.3560
20605W        W36789  17.525   0.285  12.018  0.1967 -0.1010 -0.1068
20606W        W36790   6.424   9.310   2.159  0.0523 -0.0515  0.1834
20607W        W36791  17.612  10.174  11.913 -0.1379 -0.1069 -0.0966
20608W        W36792  17.054   8.822  14.158 -0.1223 -0.1284 -0.0760
20609W        W36793  13.147  10.082   2.494  0.2029 -0.0916 -0.2585
20610W        W36794  15.458  12.942  14.327  0.3434 -0.0816 -0.1103
20611W        W36795   7.875  10.210   0.541 -0.1545  0.0681  0.2148
20612W        W36796  15.392   4.901   0.874 -0.0857  0.1333  0.1307
20613W        W36797   2.972  10.894   2.889 -0.1278  0.0246 -0.0920
20614W        W36798   3.940   1.537   0.818  0.4966 -0.0815 -0.0765
20615W        W36799  14.020  12.188  13.330  0.5374 -0.2960  0.3386
20616W        W36800  16.322  10.670   5.769 -0.2859  0.0598 -0.0036
20617W        W36801  10.715  15.806   2.655  0.1810 -0.2495  0.1504
20618W        W36802  10.111  17.458   0.542  0.2234  0.0081  0.1071
20619W        W36803  13.750  11.295  14.081  0.1431  0.2093  0.1886
20620W        W36804   8.455  11.135  13.087 -0.0110  0.2317  0.1703
20621W        W36805  10.420   7.235   4.943 -0.0035 -0.0092  0.0722
20622W        W36806   4.952  12.254   5.413 -0.1430  0.1308 -0.2125
20623W        W36807   9.312  14.466   2.397  0.0275  0.1232  0.1363
20624W        W36808  13.910   1.814  13.142  0.0125 -0.4800 -0.2668
20625W        W36809   8.912  13.407  11.687 -0.1859  0.1123  0.0372
20626W        W36810  10.589   4.543  15.284  0.0562 -0.4004 -0.1530
20627W        W36811   6.993   4.575   0.917  0.2876  0.0071 -0.1151
20628W        W36812  17.775  12.408   1.656 -0.0662 -0.1457 -0.0716
20629W        W36813   9.555  14.934   3.685 -0.2356 -0.1387  0.1411
20630W        W36814  10.930  10.676   3.743 -0.0146 -0.0318 -0.0734
20631W        W36815   0.141  13.963  15.014  0.0873  0.1882  0.1006
20632W        W36816   9.067  17.139  13.781  0.2496 -0.0677 -0.0842
20633W        W36817  13.554   4.741  16.676 -0.1829  0.1431  0.0909
20634W        W36818   4.609   2.504   3.263  0.3986  0.3606 -0.1195
20635W        W36819   1.507   7.462   0.251  0.1059  0.2310 -0.3155
20636W        W36820  16.341  10.032  16.369 -0.1202 -0.0834 -0.2527
20637W        W36821   9.365  16.395   3.356 -0.1650  0.0295  0.1377
20638W        W36822   8.372  12.305  15.024  0.0435 -0.0554 -0.0914
20639W        W36823   6.437   4.527   6.450  0.0402  0.1011 -0.1340
20640W        W36824   7.510   1.453   2.715  0.0316 -0.0183  0.2978
20641W        W36825   2.472  17.666   3.740 -0.0593  0.0544  0.1406
20642W        W36826  13.937   8.006  16.205 -0.3324  0.3339  0.0627
20643W        W36827   9.301  13.498  14.210 -0.1083  0.1530 -0.3150
20644W        W36828   2.136   3.051  16.055 -0.0668 -0.1386  0.2165
20645W        W36829   6.537  10.728  12.730 -0.2777 -0.3087  0.2177
20646W        W36830  11.367  13.411  14.823  0.1230 -0.0171  0.2123
20647W        W36831   4.975   2.329  12.922  0.0768  0.2208 -0.1363
20648W        W36832  12.402   7.157  14.996 -0.0346 -0.0553 -0.1179
20649W        W36833   4.428   6.189   5.556  0.0688  0.1225 -0.2744
20650W        W36834   9.822   4.357  14.477  0.0660 -0.1066 -0.4262
20651W        W36835   2.199   7.666   3.984 -0.0596  0.2059  0.1980
20652W        W36836   2.296   9.481  13.850 -0.2832  0.2678 -0.1000
20653W        W36837  13.383   2.771  14.382  0.0651  0.1315  0.0619
20654W        W36838  15.819  11.566   0.077 -0.2267  0.1512  0.0249
20655W        W36839  12.452  15.443   0.226  0.1067  0.1055  0.1111
20656W        W36840   0.979  13.749   5.822 -0.0102  0.0799  0.0847
20657W        W36841   4.224   1.830   4.241  0.1821  0.1933  0.0261
20658W        W36842  14.625   9.631  15.140 -0.4855  0.1092  0.1999
20659W        W36843  15.788  10.478   1.984  0.0370  0.1471 -0.2836
20660W        W36844  14.933  10.880   0.822  0.0658 -0.1309  0.0834
20661W        W36845   3.271  17.098  12.899  0.1153 -0.0610 -0.1557
20662W        W36846  12.340   6.978   5.882 -0.1599  0.1921 -0.1345
20663W        W36847  12.084  13.247   2.580 -0.0801 -0.2240  0.0603
20664W        W36848  17.424  17.171  12.440 -0.0751  0.1626 -0.2211
20665W        W36849  10.226   2.340  15.560  0.0494 -0.2222 -0.3021
20666W        W36850   5.598   4.797   2.168  0.0718  0.0146  0.0155
20667W        W36851  10.500  16.821  14.654 -0.2584  0.1500 -0.4124
20668W        W36852   6.149  14.538  14.476  0.1876 -0.0736 -0.1433
20669W        W36853  16.001   4.701  13.772 -0.1830  0.1020 -0.0371
20670W        W36854  10.717  10.240   0.640  0.1639 -0.0808 -0.0065
20671W        W36855  15.581   5.945  16.566  0.1805  0.1220 -0.1088
20672W        W36856   0.657  10.408  14.250  0.1391  0.0482  0.0353
20673W        W36857   5.491  16.958  15.118  0.0307 -0.0273 -0.0019
20674W        W36858   1.822  11.254   1.496  0.0796 -0.0278  0.2721
20675W        W36859   0.618   9.225  14.608 -0.1902  0.1527 -0.1394
20676W        W36860  12.798   3.443  15.420  0.1926  0.0923  0.0774
20677W        W36861  10.902   8.349   2.814  0.1268 -0.2372  0.0756
20678W        W36862   9.305   0.178  15.420 -0.4761  0.1545  0.1835
20679W        W36863   5.854   6.893   3.286 -0.2244  0.0918  0.1157
20680W        W36864  17.676  11.067   3.670 -0.0193 -0.1461  0.0099
20681W        W36865  16.420  13.374  14.165 -0.4199  0.1345 -0.0682
20682W        W36866   2.306  11.488   2.729 -0.3270  0.3186 -0.0752
20683W        W36867  16.462  13.692   4.741 -0.2090  0.1023  0.1189
20684W        W36868  11.639  14.760   2.146 -0.0003  0.0430  0.0182
20685W        W36869  10.881  16.470  14.502  0.0431 -0.1541  0.0918
20686W        W36870  14.448  15.194  16.212  0.0821 -0.0953 -0.1929
20687W        W36871   3.492   5.027   0.357 -0.1002  0.3478  0.2215
20688W        W36872   8.467   0.081  14.085 -0.0135 -0.1483 -0.1893
20689W        W36873   2.371  13.574   5.582  0.1127  0.0177  0.0796
20690W        W36874   3.836   5.867   4.718 -0.1297 -0.2303  0.1714
20691W        W36875  17.353   7.861   6.104 -0.2211  0.0883 -0.2644
20692W        W36876   5.729  16.360  14.689 -0.1492  0.1063  0.0357
20693W        W36877  15.516  14.503   1.053 -0.0509  0.0188 -0.0235
20694W        W36878  17.381  11.237  11.267 -0.2493  0.1779 -0.0186
20695W        W36879  10.514  13.125   2.725 -0.0528 -0.3925  0.1644
20696W        W36880  17.916   1.235   2.636 -0.0808  0.1886 -0.0597
20697W        W36881   0.304  18.000  15.161 -0.1985 -0.1844 -0.2867
20698W        W36882   0.801  13.204  15.701 -0.1583  0.0023 -0.1249
20699W        W36883  11.029  16.296   1.002  0.0274 -0.0783 -0.2391
20700W        W36884   3.938   8.218  15.066 -0.1767  0.1249 -0.0890
20701W        W36885  17.840   6.022   3.891  0.1433  0.0386  0.1091
20702W        W36886  13.511   7.119   5.183  0.2549  0.2454 -0.0487
20703W        W36887   8.966  14.501   4.755  0.2352 -0.1344 -0.0228
20704W        W36888   7.143  16.759  16.253 -0.0398 -0.1475 -0.1757
20705W        W36889   1.512   9.090   3.223 -0.1598 -0.0808 -0.2313
20706W        W36890   5.299  10.285   4.001 -0.3829 -0.0055  0.1721
20707W        W36891  14.564   5.602  12.121  0.0392  0.1076  0.1312
20708W        W36892   8.078   9.843  14.131  0.1013 -0.1425 -0.0373
20709W        W36893  14.446   2.237  13.647 -0.0617  0.1241 -0.2000
20710W        W36894   6.134  12.201   1.944 -0.0804  0.1132  0.1065
20711W        W36895   0.128  15.346   4.806 -0.0708  0.0142 -0.0477
20712W        W36896   3.257   2.572  14.572 -0.2279  0.1425  0.1463
20713W        W36897   7.336   0.991   4.809  0.0440  0.1960  0.3148
20714W        W36898   7.359  11.194  15.267 -0.0335 -0.0539 -0.1021
20715W        W36899  12.950   9.779  11.881  0.2449  0.0517 -0.0447
20716W        W36900  10.621   7.221   1.506 -0.2834 -0.1093 -0.3142
20717W        W36901   4.192  12.429  11.486 -0.0246  0.2600  0.1858
20718W        W36902   2.774   1.334   3.655 -0.1619 -0.0359  0.0559
20719W        W36903   7.400   0.676  13.758 -0.0069  0.1377 -0.0062
20720W        W36904  14.885  15.817  14.743  0.0598 -0.1171  0.0673
20721W        W36905   5.238   6.054   1.300  0.2842  0.0055 -0.4598
20722W        W36906   6.469  10.778   5.514 -0.0907 -0.0642 -0.0693
20723W        W36907   6.988   1.053  14.686 -0.1197  0.0458 -0.3974
20724W        W36908   8.713   0.244   3.020  0.1506 -0.3145  0.4333
20725W        W36909  14.950   6.597   3.306  0.1458  0.0742 -0.3417
20726W        W36910   7.898   1.714   0.476  0.0389  0.3918 -0.0091
20727W        W36911   6.524   7.813  15.227  0.2299  0.0341  0.0493
20728W        W36912   6.325  11.628  14.423 -0.0735  0.0824 -0.0530
20729W        W36913  12.922  17.524   1.171  0.0828 -0.1283 -0.2200
20730W        W36914  12.110   0.883   5.139  0.1097  0.1339 -0.3677
20731W        W36915   7.069  17.801  15.454 -0.5138  0.0374 -0.1022
20732W        W36916   0.346   9.433  12.628 -0.0934  0.1218  0.1470
20733W        W36917  17.776   7.893   3.986 -0.1625 -0.0926  0.0812
20734W        W36918  12.329  10.570   2.347 -0.0731 -0.1196  0.3346
20735W        W36919  12.873   8.300   2.371 -0.0875  0.0729  0.1195
20736W        W36920  16.441   7.618  16.089  0.2826 -0.4179 -0.0150
20737W        W36921   3.019   0.800  14.940 -0.0140 -0.0330  0.1763
20738W        W36922   0.880  13.305   2.459  0.1637 -0.0501 -0.1106
20739W        W36923   4.491   8.415  11.920  0.2230 -0.1293 -0.3431
20740W        W36924   9.146   7.511   0.924  0.1930  0.0299  0.1799
20741W        W36925   8.416   8.868   2.903  0.3282 -0.1654  0.0787
20742W        W36926   2.175  11.874  11.950  0.0300 -0.2976 -0.2532
20743W        W36927  15.982  14.647  14.321 -0.0664 -0.0649  0.0654
20744W        W36928  10.774   1.121  14.482  0.2237  0.3251 -0.1582
20745W        W36929   0.109   5.129   2.628  0.3407  0.0381  0.2134
20746W        W36930  13.918  13.255  13.217 -0.1439  0.2274  0.0632
20747W        W36931  17.858  10.362  12.459  0.0979  0.0554  0.2638
20748W        W36932  15.456  16.959   3.796  0.0282  0.1615 -0.0538
20749W        W36933  10.657   0.395   5.147 -0.2077  0.0584  0.2734
20750W        W36934  11.361   8.038   4.189 -0.0580  0.4546 -0.5086
20751W        W36935   0.544  11.407   0.811 -0.2154  0.0845  0.1333
20752W        W36936   3.967  13.129  15.401  0.2395  0.4199  0.0180
20753W        W36937  16.864  15.060   1.158 -0.1660  0.2037 -0.1081
20754W        W36938  10.958  17.378   0.041  0.3476 -0.1675 -0.1055
20755W        W36939  13.524   8.433   4.202 -0.1990 -0.0237  0.1500
20756W        W36940   4.537   3.777  15.799 -0.2189  0.1203  0.0528
20757W        W36941   5.251  16.305  11.520  0.3479 -0.0826  0.0583
20758W        W36942  16.130  13.145   0.360  0.0856 -0.1451 -0.1832
20759W        W36943   1.432  13.448   0.006 -0.2740 -0.0919  0.0421
20760W        W36944   7.121  11.656  13.490  0.0626  0.1952  0.0053
20761W        W36945   0.928   9.015  16.371  0.3493 -0.1697 -0.1167
20762W        W36946  17.601  15.661  14.613  0.0868 -0.0163 -0.1481
20763W        W36947   8.180  12.130   2.727  0.2472  0.0768 -0.1885
20764W        W36948  12.395   7.395  14.552  0.3381 -0.5275  0.0544
20765W        W36949  11.074   7.590  15.046  0.2348  0.1626 -0.0688
20766W        W36950   8.573   5.827  16.128 -0.0607 -0.3187  0.0144
20767W        W36951   2.920  15.766  13.323 -0.1110 -0.0053  0.1903
20768W        W36952  17.044   5.268   3.263  0.1327  0.1174 -0.1669
20769W        W36953  10.900  13.309  11.277 -0.0127  0.2858 -0.3992
20770W        W36954  10.381   7.977   5.382  0.3107 -0.1384  0.1857
20771W        W36955   6.471   5.107   5.142  0.1092 -0.3378  0.2178
20772W        W36956  12.695  11.669   5.421  0.0280  0.0006 -0.1429
20773W        W36957   8.147  16.430  11.374 -0.2774  0.1870  0.0533
20774W        W36958   6.971  11.050  14.384 -0.2709  0.0885  0.1942
20775W        W36959   6.728   3.407   4.274  0.0315  0.2249 -0.3638
20776W        W36960   6.960  13.422  16.637 -0.3119  0.0857 -0.0499
20777W        W36961   0.449   3.213  11.546  0.1383 -0.2401  0.1866
20778W        W36962  12.154   1.964   3.278  0.0403  0.5282 -0.0974
20779W        W36963   3.074   4.704  14.088  0.0084  0.0833  0.2242
20780W        W36964  13.128  11.295   0.446  0.0618 -0.0087  0.0445
20781W        W36965   7.878  12.322   4.383  0.3433  0.1430 -0.1609
20782W        W36966  12.954   9.535   5.473 -0.2309  0.0665  0.1263
20783W        W36967  15.539   5.413  11.908 -0.1070 -0.0376 -0.0994
20784W        W36968  10.767  17.058   2.226 -0.0329  0.1682 -0.1507
20785W        W36969  15.590   9.367  13.021 -0.3759 -0.1014  0.2188
20786W        W36970  13.889   2.361   0.071 -0.0271 -0.2337  0.0866
20787W        W36971   0.254  10.163   3.884 -0.1510 -0.1037 -0.1947
20788W        W36972   3.667   4.408   0.936  0.2347  0.2231  0.1593
20789W        W36973   3.217  16.678  12.600  0.0538 -0.1294  0.1742
20790W        W36974  11.164  16.990   3.429 -0.0838  0.0181  0.1931
20791W        W36975  15.214   6.982   3.592  0.2462 -0.0564  0.1790
20792W        W36976  17.154  16.922  11.456  0.1907  0.3871  0.0217
20793W        W36977   5.316  16.532  14.229 -0.0544 -0.3269  0.2503
20794W        W36978   0.252   9.188   3.775  0.2068 -0.2830 -0.0824
20795W        W36979   0.195  15.573   5.227  0.0078  0.2688  0.0635
20796W        W36980  11.557  10.397  11.283  0.1437  0.0341 -0.2431
20797W        W36981  14.992  13.926   5.024 -0.1398  0.1229  0.0863
20798W        W36982  17.783   1.797   1.694 -0.0537  0.0165  0.2170
20799W        W36983  17.549  12.732   3.450  0.1824  0.0478 -0.0760
20800W        W36984  11.502  17.918  15.223  0.0987 -0.0853  0.0106
20801W        W36985   8.995   6.616   1.129  0.1821  0.0611 -0.0690
20802W        W36986   2.445   9.385   3.309 -0.1971 -0.0987 -0.0622
20803W        W36987   2.811   7.884   5.443 -0.2517  0.0811 -0.3077
20804W        W36988   9.203  11.038  14.044  0.0587 -0.3876  0.2387
20805W        W36989  17.962  17.627   2.100  0.3670 -0.0292 -0.0213
20806W        W36990  12.582  11.373  11.587 -0.1508 -0.1682 -0.2577
20807W        W36991  14.366   8.397   0.127  0.0064  0.1202  0.1547
20808W        W36992   8.596   7.726   0.139  0.0185  0.0251 -0.1655
20809W        W36993  15.780  17.372   0.339 -0.1605  0.2391 -0.0890
20810W        W36994   4.466   2.505   2.439  0.3181 -0.0845 -0.1621
20811W        W36995  13.623   8.975   0.879 -0.0031 -0.0428  0.2198
20812W        W36996   1.176   7.616  15.553  0.0858 -0.0136 -0.2998
20813W        W36997  15.770  10.326  12.011  0.0544  0.1192 -0.2267
20814W        W36998   9.253   9.346   1.396 -0.3610 -0.3350 -0.0171
20815W        W36999  12.506  14.869  13.421 -0.1878  0.0808  0.1950
20816W        W37000  15.582  12.513   1.600 -0.0003 -0.0779  0.0491
20817W        W37001   1.288  12.831   1.871  0.1068  0.0040  0.0781
20818W        W37002   0.548  11.634  14.965  0.2730 -0.2448  0.0826
20819W        W37003  15.119  12.570   3.134  0.2181 -0.0124 -0.3555
20820W        W37004   8.021  10.554  16.460 -0.0670  0.1595 -0.2834
20821W        W37005   0.589  16.724   4.456  0.2488 -0.1045 -0.2133
20822W        W37006  15.126   3.330   1.724  0.4874  0.0252  0.0179
20823W        W37007   4.363   7.517   3.596 -0.0049 -0.0645  0.1772
20824W        W37008   6.584  17.926   0.020 -0.1153 -0.1815  0.0410
20825W        W37009   4.419   0.301   1.231 -0.0835  0.1326 -0.0135
20826W        W37010   7.138  14.966   0.930 -0.2383  0.0292  0.0486
20827W        W37011  12.491  12.288  13.324  0.1429  0.1084 -0.2596
20828W        W37012   4.094  12.766   1.023 -0.0671  0.1187 -0.2175
20829W        W37013  12.092   5.532   0.991 -0.0943 -0.1385  0.1165
20830W        W37014   7.992  15.459   5.348 -0.2675 -0.0458  0.0200
20831W        W37015  15.082   9.916   0.208 -0.0727 -0.0232 -0.0447
20832W        W37016  12.424   9.006  14.447 -0.4564  0.2340  0.1824
20833W        W37017  11.244  14.207   2.438  0.3450  0.3822  0.0009
20834W        W37018  14.124   1.669   5.197  0.0139  0.0000  0.2299
20835W        W37019  16.167   8.060  16.059  0.0746 -0.1988 -0.2313
20836W        W37020   6.430   4.980   3.631  0.1069 -0.2011 -0.1787
20837W        W37021  13.619   4.987   4.914 -0.0810 -0.1102  0.1094
20838W        W37022  15.146   8.176   4.014 -0.0579 -0.2535  0.1260
20839W        W37023  10.950  13.752   4.337 -0.2126  0.0261 -0.0026
20840W        W37024   2.147   0.767  11.678  0.0839 -0.2510  0.0745
20841W        W37025   6.173  14.531  16.485 -0.1593  0.0060 -0.0154
20842W        W37026   5.662   9.210  12.514 -0.0277  0.0636 -0.0629
20843W        W37027   8.005   3.057   3.510  0.0482  0.0378 -0.1615
20844W        W37028  14.350  13.126   1.923  0.1096  0.3179  0.1540
20845W        W37029  10.329   2.066  16.498 -0.1308 -0.4915 -0.1290
20846W        W37030  13.142  12.400  14.917 -0.1179  0.1625 -0.0711
20847W        W37031  12.633  11.517  14.427  0.3229  0.2315  0.2279
20848W        W37032  15.744  16.189  12.300 -0.0627  0.1076 -0.0264
20849W        W37033   3.986   5.158  13.834  0.0037  0.2707  0.6424
20850W        W37034   9.931   5.997   0.834  0.0962  0.3260  0.3324
20851W        W37035   2.295  17.179   3.568 -0.2299  0.1130 -0.2654
20852W        W37036   7.044  10.793   2.906 -0.1803  0.0534 -0.1752
20853W        W37037  12.745  16.831  15.346 -0.3558  0.4487  0.0856
20854W        W37038   5.971  11.986   2.435 -0.1418  0.0228 -0.0064
20855W        W37039  17.094   3.348  13.674 -0.0269  0.0319 -0.0535
20856W        W37040   0.233  11.537  11.463  0.1598  0.0902 -0.1475
20857W        W37041  10.175   6.044   4.912 -0.0731 -0.1910  0.2202
20858W        W37042   0.006   4.066   5.323 -0.3437  0.3177 -0.0110
20859W        W37043   2.937   2.845  15.834 -0.0146 -0.0155 -0.0412
20860W        W37044  12.324   6.207   1.796  0.1823 -0.0803 -0.1676
20861W        W37045   6.644   8.726  16.640  0.1525 -0.0023  0.0818
20862W        W37046  11.417   4.565  16.113 -0.0577 -0.1174 -0.2113
20863W        W37047  14.375  13.172   5.259 -0.1179  0.2895 -0.1590
20864W        W37048   4.090  17.468  16.067 -0.0334  0.0241 -0.1166
20865W        W37049  17.941  11.983   4.669 -0.0701 -0.1763 -0.0718
20866W        W37050  14.556   5.986  13.881 -0.0665  0.2062  0.0103
20867W        W37051  14.236  15.454   4.766  0.1779 -0.0893  0.0768
20868W        W37052   6.173   1.484   4.285  0.2209 -0.0135  0.0460
20869W        W37053  16.602   3.185  16.451 -0.1793  0.0988  0.0515
20870W        W37054   5.159   1.820   1.004  0.0835  0.1019 -0.1414
20871W        W37055   1.398   3.976   2.815 -0.3440 -0.1748  0.1568
20872W        W37056   5.471   4.311  16.507  0.3064  0.2390  0.1253
20873W        W37057  13.357  11.075   0.848 -0.2278  0.2936  0.0465
20874W        W37058   8.412   2.781   0.431 -0.0757  0.0290  0.0105
20875W        W37059  12.830   1.369  13.696  0.1513  0.1562  0.1005
20876W        W37060  12.257  14.053  14.391 -0.0716  0.2918  0.2713
20877W        W37061   4.697   0.823  14.198  0.2082  0.0945 -0.1328
20878W        W37062  13.281  12.320  14.395 -0.0339  0.0703 -0.5201
20879W        W37063   6.525  15.721   0.168  0.1349 -0.3329  0.2461
20880W        W37064   7.128   5.479  12.879 -0.0103 -0.0202  0.2079
20881W        W37065  15.515  12.076   2.399 -0.0332 -0.1336 -0.1161
20882W        W37066  17.851  16.993  15.697  0.0282  0.0851 -0.0059
20883W        W37067   9.300   0.930   4.748 -0.1576  0.0045  0.2171
20884W        W37068   9.024   8.711  14.039  0.0041  0.1618  0.1276
20885W        W37069   1.318   6.883  11.712 -0.1298  0.3545 -0.1233
20886W        W37070   0.232   8.006  15.215  0.0467 -0.0911  0.3202
20887W        W37071   6.394   6.809  14.622 -0.0458 -0.0945  0.0264
20888W        W37072  11.400  17.161  16.029 -0.1676  0.0368 -0.0617
20889W        W37073  15.699   6.266  15.496 -0.0661 -0.0937  0.0032
20890W        W37074  14.753  15.815  11.646  0.1402  0.1723 -0.0893
20891W        W37075  11.008  17.172   2.976 -0.1684 -0.4295 -0.2231
20892W        W37076   8.896   3.723   2.503 -0.0169 -0.1523 -0.1512
20893W        W37077  16.458   1.156  14.000  0.0090  0.1430  0.0804
20894W        W37078   6.860  10.847   0.656  0.1566  0.1129  0.0473
20895W        W37079   9.913   8.345   1.542 -0.2198 -0.0175  0.2771
20896W        W37080   1.138   4.156  14.113  0.0766  0.0542 -0.0345
20897W        W37081   1.692   0.456   3.785  0.0883 -0.1324 -0.2450
20898W        W37082  16.064   6.052  14.397 -0.0299  0.2556 -0.0224
20899W        W37083  14.062   8.661   1.935 -0.0977  0.1897 -0.0762
20900W        W37084   5.632   8.614  15.470 -0.1682  0.0897 -0.2454
20901W        W37085   2.984  14.132   0.469  0.0433 -0.0673  0.0528
20902W        W37086  16.224  12.120  16.022  0.2912 -0.0397  0.1190
20903W        W37087   5.260   4.442   3.483 -0.1328  0.0088 -0.1332
20904W        W37088   9.537   2.805  13.790  0.4358 -0.1026 -0.1895
20905W        W37089  15.005  15.226  12.405 -0.0511 -0.0501  0.1227
20906W        W37090   7.642   4.372   1.646  0.1221 -0.0164 -0.0587
20907W        W37091   8.957  12.573  12.122 -0.1535  0.0261  0.1102
20908W        W37092   2.871   4.589  15.061 -0.0865 -0.0027  0.1909
20909W        W37093  16.306   1.781  15.261  0.0004  0.0538 -0.0957
20910W        W37094   8.782   6.668   5.701 -0.0578 -0.2511 -0.0264
20911W        W37095   4.072  17.483  15.146  0.0821  0.0963  0.0831
20912W        W37096  14.217   5.779  14.144  0.1787 -0.2206 -0.2062
20913W        W37097   4.517   2.632  12.176 -0.2732 -0.1640 -0.0449
20914W        W37098  14.293   8.247   1.738 -0.2484 -0.1324  0.1338
20915W        W37099  12.515  15.066  12.248  0.1502  0.0174  0.0741
20916W        W37100   5.739   9.708  13.189  0.0294 -0.0246  0.2662
20917W        W37101   4.483   1.177  15.016  0.1247 -0.2851 -0.0734
20918W        W37102   2.889   2.061   0.075 -0.0392  0.1581  0.1524
20919W        W37103   6.774  10.151  14.506  0.0061  0.0169 -0.2670
20920W        W37104   0.260  17.375  10.455 -0.0017  0.1104  0.1827
20921W        W37105  14.214  11.084  12.014  0.0141 -0.2843  0.2214
20922W        W37106   7.439   0.069   4.804  0.1868 -0.2497  0.3847
20923W        W37107  14.552  13.703  11.677 -0.2556  0.3506  0.2497
20924W        W37108  16.616   9.519   4.992 -0.1417 -0.1624 -0.1655
20925W        W37109   1.043   5.883  14.188  0.1679  0.0956 -0.0777
20926W        W37110   6.331  17.886  12.047  0.0207  0.0699 -0.1531
20927W        W37111  12.035   2.745  12.032  0.1026 -0.1052  0.0080
20928W        W37112   0.421  10.906  12.972  0.0484 -0.0678  0.1492
20929W        W37113   5.350   9.667  15.034 -0.3635 -0.3859 -0.0970
20930W        W37114  15.866   7.693  12.834 -0.1592 -0.0550 -0.1083
20931W        W37115   3.768   3.494  14.757 -0.1189  0.2232  0.0278
20932W        W37116  14.488   1.395  15.888 -0.2726 -0.2231  0.0951
20933W        W37117   0.849   0.916  10.501 -0.0449  0.2710 -0.1468
20934W        W37118   3.144  15.494   4.512 -0.0570  0.1007  0.0141
20935W        W37119   6.100  13.609  13.888 -0.3311  0.1546 -0.0968
20936W        W37120  16.487  10.788   1.080 -0.1439  0.0216  0.1834
20937W        W37121  12.698  15.715   1.438  0.0305 -0.1191 -0.0189
20938W        W37122  14.763   3.481  15.225  0.0092  0.0015  0.0647
20939W        W37123   4.633  17.761   5.237  0.0626 -0.0512 -0.2132
20940W        W37124   5.301   1.392  16.079 -0.0032 -0.0508  0.0258
20941W        W37125  10.187   1.398   5.042  0.1412 -0.2297 -0.0757
20942W        W37126  13.056   0.448  11.812  0.4644  0.0539  0.0171
20943W        W37127  12.453   3.172   2.440  0.0051 -0.0507  0.2629
20944W        W37128   1.144   8.066  14.031 -0.1000  0.1621 -0.3023
20945W        W37129   5.910   9.256   2.093 -0.3407 -0.0444  0.2162
20946W        W37130  17.214  15.048   3.161 -0.0938 -0.1376 -0.2560
20947W        W37131   9.946  11.318  15.912 -0.0139  0.1873  0.0239
20948W        W37132   0.800   1.740   1.815  0.0458 -0.1327  0.1385
20949W        W37133   1.512   7.691   1.591  0.3974 -0.0583  0.0412
20950W        W37134  15.462   9.733  14.408  0.0478  0.3076 -0.2288
20951W        W37135   5.742   6.665   5.258 -0.0258 -0.0680  0.0464
20952W        W37136   4.705  14.705   2.234  0.1177 -0.2532 -0.0976
20953W        W37137   1.910   1.655   0.368  0.0003  0.0002  0.1467
20954W        W37138   8.153  14.334  12.002 -0.2220  0.0681 -0.1712
20955W        W37139  12.028  13.608   1.296  0.0686 -0.1673  0.0979
20956W        W37140  14.819  13.992  15.964  0.2409  0.0019  0.1523
20957W        W37141  17.790  10.217  15.461  0.0836  0.0460 -0.0607
20958W        W37142  15.132   2.016  16.217 -0.1221  0.0607 -0.0917
20959W        W37143  16.953  15.913  12.476 -0.0348 -0.0110  0.3013
20960W        W37144  14.739  14.455  15.141 -0.0724 -0.0183  0.0249
20961W        W37145  12.477   5.015  12.783  0.1407  0.0717 -0.2187
20962W        W37146  10.969   3.667   4.791 -0.0151 -0.2136  0.1722
20963W        W37147   4.596  17.283  16.073  0.0895  0.1809 -0.1860
20964W        W37148   0.867  17.583   4.377  0.1203 -0.0590  0.0369
20965W        W37149   5.529   6.645   2.185 -0.0055 -0.3501  0.1115
20966W        W37150  15.447  17.010   4.550 -0.2263  0.0092 -0.1673
20967W        W37151  14.975   6.271  15.960  0.0496  0.0196  0.4285
20968W        W37152   4.053  17.768  16.503  0.0269  0.0193  0.2169
20969W        W37153   5.818   7.373   3.479 -0.1266 -0.0611 -0.1075
20970W        W37154   6.215   0.913  12.080  0.0370 -0.0380  0.3607
20971W        W37155  16.706   0.159   4.750  0.2962 -0.2921  0.3189
20972W        W37156   9.065   4.526   4.353  0.2460 -0.2962 -0.0525
20973W        W37157  14.663   6.092  12.964 -0.0997 -0.3564  0.0241
20974W        W37158   6.931   3.463   3.813 -0.2321 -0.3769 -0.1560
20975W        W37159  14.676  17.470  11.739 -0.0503 -0.1145 -0.2399
20976W        W37160   2.266  10.170   5.838  0.1293  0.0062  0.0956
20977W        W37161  13.794  16.039  13.972  0.3401 -0.1123  0.5475
20978W        W37162   6.871   0.567   1.869  0.1887  0.0746 -0.0221
20979W        W37163   5.985  11.742  15.293  0.2532 -0.0130  0.3612
20980W        W37164  10.742  11.786  15.392  0.0235 -0.5362 -0.0739
20981W        W37165   3.823   6.974  12.493  0.1892  0.0093  0.0069
20982W        W37166  12.379   5.019   3.832 -0.4441 -0.1677  0.0025
20983W        W37167   1.804  15.830  11.610  0.2060 -0.0412  0.1694
20984W        W37168   1.311   9.384   4.147 -0.0442  0.0303  0.2943
20985W        W37169  17.943   1.235   1.689  0.0813 -0.0286 -0.2026
20986W        W37170   0.420  11.968  12.273  0.2358 -0.2384  0.3368
20987W        W37171  10.836  14.571   4.715  0.0412  0.0555  0.1620
20988W        W37172   5.066  13.209   5.068  0.2317  0.0709  0.1149
20989W        W37173   7.446  10.422   2.825  0.2593 -0.0235  0.1480
20990W        W37174  11.077   1.213  15.831  0.1010 -0.1900 -0.0864
20991W        W37175   7.788  14.118  14.873 -0.0571 -0.0276 -0.2155
20992W        W37176  10.148   0.037   2.792  0.1911 -0.1265 -0.3009
20993W        W37177  15.499  17.376   5.802  0.3330  0.0236 -0.2094
20994W        W37178   1.041   9.408  14.046  0.1512  0.0257  0.0989
20995W        W37179   3.548   8.380  14.825  0.2903 -0.4584  0.1207
20996W        W37180   8.805  15.084  13.708 -0.2584  0.0694  0.1173
20997W        W37181  14.016  15.979  15.723  0.1937 -0.0601  0.0334
20998W        W37182   9.236   1.569   3.080 -0.0111  0.1193  0.0881
20999W        W37183  13.424  16.372   5.556  0.2319  0.2171 -0.1802
21000W        W37184   7.631   2.905   0.787 -0.1888  0.1165 -0.0069
21001W        W37185  15.343   7.493  13.614 -0.0629 -0.0535 -0.0468
21002W        W37186   1.202  16.260   3.705 -0.0408  0.2068  0.0674
21003W        W37187  12.784  11.171   5.332 -0.2224  0.0545  0.2429
21004W        W37188   6.987   6.624   2.370  0.1144 -0.1673  0.0500
21005W        W37189   5.840   8.436   0.983 -0.0335  0.1347  0.2819
21006W        W37190   1.139   6.345   1.291  0.0035 -0.3790 -0.0921
21007W        W37191   1.792  11.930   5.410  0.0969  0.0264 -0.0248
21008W        W37192  13.682   9.601   1.654  0.1286 -0.2334 -0.0675
21009W        W37193   1.462  16.931   0.463 -0.0369 -0.1838  0.1288
21010W        W37194  15.695   0.797  14.660  0.1107  0.0553 -0.0560
21011W        W37195   4.395   8.335  15.029 -0.3640 -0.2382  0.3216
21012W        W37196  14.305   0.339  12.092 -0.1403 -0.2104  0.1871
21013W        W37197  12.843  10.845   3.079 -0.0872  0.1909  0.2786
21014W        W37198   8.896   4.201   5.818 -0.2363  0.1022  0.2063
21015W        W37199   9.983   2.116   4.084 -0.1571  0.0999  0.0900
21016W        W37200   3.088  15.189   3.119 -0.1571 -0.0906 -0.3181
21017W        W37201  15.123   9.348   5.230  0.1281  0.2059 -0.1979
21018W        W37202  15.980   1.023  13.267  0.2679  0.0622  0.0244
21019W        W37203   9.770   9.652  16.223  0.1396  0.4937 -0.1881
21020W        W37204   3.094  10.299  12.717 -0.2316  0.1903 -0.0864
21021W        W37205   7.462   8.948  13.610 -0.2854 -0.2511 -0.1672
21022W        W37206  15.996  17.947   0.388 -0.0262 -0.0002 -0.0713
21023W        W37207   9.953  12.708  12.887  0.2005 -0.1030 -0.0381
21024W        W37208  17.419  10.006   3.295 -0.0908 -0.0237  0.2597
21025W        W37209   8.009   1.503  16.693 -0.0352 -0.0608 -0.1407
21026W        W37210   2.211   7.310  14.310  0.0239 -0.0039  0.0685
21027W        W37211  13.643  10.216  13.087  0.1168  0.2042  0.3139
21028W        W37212   3.016   3.506   3.400 -0.2151 -0.2765  0.0353
21029W        W37213   3.689  15.511  11.414 -0.0034 -0.0917  0.2195
21030W        W37214   9.636   1.919  12.164  0.3987  0.0691  0.0401
21031W        W37215   0.827  12.073   4.874 -0.2120  0.0503 -0.1899
21032W        W37216   0.415   2.394   3.505  0.0450  0.0408 -0.0254
21033W        W37217  17.993   3.879  14.001  0.2677 -0.1768 -0.1552
21034W        W37218  16.727  12.341   3.888  0.0409 -0.1624  0.0267
21035W        W37219   9.988   7.786  12.950 -0.1353 -0.2194  0.1498
21036W        W37220   5.993   5.712   5.638 -0.2195  0.0388 -0.1903
21037W        W37221  17.647   0.804   0.380  0.3844 -0.3388 -0.1074
21038W        W37222   6.990  10.564   1.365 -0.0919 -0.1431  0.2458
21039W        W37223   8.403  12.629   3.515  0.2042 -0.0858 -0.1214
21040W        W37224  12.746   9.183   2.300  0.1557  0.2906  0.1442
21041W        W37225   5.182  16.202   3.847  0.0161 -0.0330 -0.0599
21042W        W37226   0.767   3.514  11.813  0.1877 -0.2024  0.0527
21043W        W37227   1.218   8.679   0.728 -0.1063 -0.0344 -0.2892
21044W        W37228  11.730   2.435   1.306 -0.1805  0.0159 -0.2916
21045W        W37229  12.481  14.585   2.192  0.0199  0.2528 -0.0608
21046W        W37230   1.271  10.039   0.453  0.2340 -0.0491  0.0122
21047W        W37231   5.339   6.845   4.005  0.1488 -0.0375 -0.1252
21048W        W37232  14.740  11.037  12.688  0.1747  0.0087  0.0070
21049W        W37233  11.214  14.983   5.380  0.0118  0.3832 -0.2346
21050W        W37234  11.066   8.236   3.269 -0.0302 -0.2262  0.0620
21051W        W37235   3.174  13.693  11.494  0.1026  0.0463  0.0358
21052W        W37236   2.921  10.699  13.125 -0.1861 -0.0564  0.0076
21053W        W37237  12.041  10.426  10.653  0.2150 -0.0026  0.2148
21054W        W37238   6.059  17.981   4.453  0.1553 -0.2756 -0.0771
21055W        W37239  16.532  12.222   5.221  0.0087  0.2777 -0.1244
21056W        W37240   7.456  11.505  11.519  0.0457 -0.0308  0.0135
21057W        W37241   5.291   7.442  15.076  0.1318 -0.0528  0.1437
21058W        W37242   7.723   7.831   4.648 -0.1549  0.0271  0.2366
21059W        W37243   4.448   8.602   3.526 -0.1710 -0.0991 -0.4635
21060W        W37244  14.125  16.383  11.491 -0.0075  0.0186 -0.2295
21061W        W37245   9.421   9.536   0.952  0.1867  0.1107  0.0287
21062W        W37246   2.567  14.251  14.050  0.1677  0.2215 -0.0459
21063W        W37247   6.371   0.638  11.570 -0.1222  0.1082  0.0093
21064W        W37248   5.739  14.921  15.253  0.3158 -0.2777  0.1374
21065W        W37249  15.020   6.868  14.782 -0.0520 -0.1137 -0.0232
21066W        W37250   0.751  14.830  14.127 -0.0202 -0.0825  0.0030
21067W        W37251   1.648   2.745   2.645  0.0622 -0.3799 -0.0653
21068W        W37252   9.059   4.649   4.900 -0.1864  0.3814  0.0114
21069W        W37253  14.396   4.659  14.584 -0.3535  0.1653  0.0251
21070W        W37254  15.046  14.233   1.093  0.1691  0.2955  0.0000
21071W        W37255   5.283  10.867  12.346 -0.2615 -0.1045  0.1368
21072W        W37256   4.738  16.390   3.910 -0.0207  0.1413 -0.1410
21073W        W37257   9.358   8.173  10.298 -0.1648 -0.2587  0.1272
21074W        W37258   5.402   8.151   2.221  0.3808 -0.0814  0.1487
21075W        W37259  15.149   4.651  14.133 -0.1214  0.0260 -0.1861
21076W        W37260   0.628  13.833  14.120  0.0516 -0.1464  0.4213
21077W        W37261  10.769  16.967  11.625 -0.2206 -0.1048 -0.3099
21078W        W37262  11.911  10.048   1.801 -0.0014  0.0526 -0.0177
21079W        W37263   5.376   1.021   3.903 -0.1598  0.0490  0.4820
21080W        W37264   6.286  15.370  12.888 -0.3433 -0.2863 -0.1631
21081W        W37265  11.730  12.757   2.562  0.0225 -0.2002  0.0863
21082W        W37266   6.116  14.867   0.672  0.3168 -0.2271 -0.0167
21083W        W37267   0.519   3.658  11.392 -0.0968 -0.0797  0.0216
21084W        W37268  15.960   2.508   2.322  0.1420  0.0057 -0.0217
21085W        W37269  16.795   8.857   3.417  0.0225  0.0725  0.0413
21086W        W37270  12.444  11.366  15.256  0.2267  0.3890 -0.1728
21087W        W37271   2.145   8.464  14.415  0.1022  0.0547 -0.1628
21088W        W37272   6.581   8.175  14.926  0.1882 -0.0607  0.0345
21089W        W37273   6.905  13.417   2.765  0.2678 -0.0249 -0.0957
21090W        W37274   7.212  15.614   2.100  0.0921  0.3517 -0.2927
21091W        W37275  15.559   0.576   5.625 -0.0790  0.3564 -0.3134
21092W        W37276   7.351  11.065  11.676 -0.0232 -0.0862  0.0159
21093W        W37277  10.900   6.187   0.612 -0.3334 -0.0131  0.2468
21094W        W37278  10.855   5.326  14.681 -0.3586 -0.1550 -0.0653
21095W        W37279   7.771   9.806  13.451 -0.0949 -0.0386  0.1616
21096W        W37280  11.324  12.450   1.781 -0.1044  0.2858  0.1900
21097W        W37281   9.173   4.058   0.768  0.0147 -0.0344 -0.2424
21098W        W37282   4.941  16.513  11.278  0.2948 -0.0233  0.0448
21099W        W37283   7.060  11.451  10.752  0.0631  0.1317 -0.0792
21100W        W37284   7.011  14.926  16.481  0.0362  0.0624 -0.0242
21101W        W37285  17.957  12.727  16.226  0.0633 -0.1123  0.2351
21102W        W37286  17.679  13.537  16.187  0.1637 -0.1443 -0.4162
21103W        W37287  15.058   8.403   5.308  0.1570  0.2527 -0.0963
21104W        W37288  17.145   9.843   1.969 -0.2064  0.1418 -0.0712
21105W        W37289  14.936  13.814   4.259 -0.0654  0.4062  0.1775
21106W        W37290   1.420   4.029  16.549 -0.0657 -0.1095 -0.1345
21107W        W37291  14.596   9.691  14.272 -0.0237  0.1001 -0.3872
21108W        W37292  12.209  15.466  14.967 -0.1446  0.0907  0.1272
21109W        W37293  15.253   2.163  10.411 -0.0901  0.0535 -0.0846
21110W        W37294   5.456  17.238   4.350 -0.0508  0.0601 -0.0747
21111W        W37295  16.756  10.169   2.101  0.1491 -0.1718  0.0453
21112W        W37296   1.988   6.014  10.970 -0.1355 -0.1180  0.3694
21113W        W37297  16.499   5.029   1.549  0.2736  0.1036  0.0576
21114W        W37298  17.277   5.965   4.367 -0.4485 -0.0715  0.1597
21115W        W37299  15.759  15.969  14.432 -0.0170  0.0350 -0.0643
21116W        W37300   0.918   7.968  12.206 -0.1509 -0.1127  0.0150
21117W        W37301   0.209  10.013   2.374  0.0315  0.0081  0.3693
21118W        W37302  11.610  10.791  13.537 -0.0895 -0.0975  0.2181
21119W        W37303  16.822   2.529   1.374  0.2783  0.1396  0.0509
21120W        W37304  16.772  15.008   0.185  0.1654  0.1215 -0.1173
21121W        W37305   3.386   0.952  14.288  0.2242  0.3146 -0.2460
21122W        W37306  10.254  12.970   4.839  0.1958  0.0708 -0.0836
21123W        W37307  10.529   4.379  14.716  0.1431  0.1504  0.2998
21124W        W37308   7.047   7.994  15.067 -0.0776 -0.2100 -0.2903
21125W        W37309  16.875   0.665  11.556  0.1414 -0.1980 -0.1675
21126W        W37310   4.256  10.588   4.788 -0.2486 -0.3724  0.1692
21127W        W37311  16.333  16.625  13.850  0.0711 -0.2180  0.2726
21128W        W37312   1.387   9.363  12.762  0.1793 -0.2122 -0.2376
21129W        W37313  15.089   3.708   1.289 -0.0627  0.2441 -0.0246
21130W        W37314  12.257   8.298  13.040  0.0107  0.1471  0.3824
21131W        W37315   2.748  10.178  16.243  0.0036  0.1817 -0.0382
21132W        W37316  15.254  12.896  16.209 -0.2670 -0.3614  0.2974
21133W        W37317  17.405  10.694  12.621  0.1228 -0.1467 -0.1631
21134W        W37318  15.024   5.858   3.647 -0.1330  0.3676 -0.0510
21135W        W37319   0.450  15.813   0.687 -0.3043 -0.2066 -0.0651
21136W        W37320  16.966   3.144   3.966 -0.0174 -0.1045  0.2293
21137W        W37321   2.230  17.996  11.707 -0.0432  0.0717 -0.0267
21138W        W37322  12.041  11.239   1.785 -0.0777 -0.0604 -0.0754
21139W        W37323   9.671  15.033  11.602  0.2673  0.0468 -0.0929
21140W        W37324   3.894   3.359   1.866  0.0283  0.0371  0.1103
21141W        W37325  16.924  16.793   1.652  0.2240  0.1086  0.0457
21142W        W37326  15.645  11.832   4.553  0.1895 -0.2071 -0.6364
21143W        W37327  17.459   9.648   0.727 -0.1593 -0.1768  0.1127
21144W        W37328  13.772   3.297   2.033  0.3323  0.1243 -0.0418
21145W        W37329   3.386  17.179  14.366 -0.2844  0.0842 -0.0416
21146W        W37330   3.167  10.547   5.658 -0.2784  0.1116 -0.0732
21147W        W37331   5.765  14.285  12.461 -0.2427  0.0180  0.3210
21148W        W37332   2.123   0.405  12.652 -0.0553 -0.0581 -0.1821
21149W        W37333  15.948   6.943  14.180 -0.0386  0.0509 -0.0104
21150W        W37334  11.277  16.193  15.748  0.0042  0.0467  0.0208
21151W        W37335   1.081   0.606   0.755 -0.1002  0.1873  0.1383
21152W        W37336   5.297   8.939  14.291  0.0413 -0.0995  0.3228
21153W        W37337   8.162   5.179  12.377 -0.3167  0.3491 -0.0029
21154W        W37338   6.777   0.652  15.916  0.1945 -0.0238  0.2067
21155W        W37339  10.752  15.099  11.461  0.2181 -0.1749  0.0397
21156W        W37340  14.875  12.571  16.143 -0.2028  0.1430 -0.1256
21157W        W37341  10.006   4.057   0.469  0.0391  0.0013  0.1849
21158W        W37342  13.939   4.413   0.149  0.1418 -0.2631 -0.0179
21159W        W37343   1.275  15.388  14.554 -0.3669  0.0068  0.1101
21160W        W37344   7.507   4.193   3.223  0.0352  0.0633 -0.2818
21161W        W37345   1.475   3.090   2.946  0.3012  0.1553  0.0902
21162W        W37346  15.772  15.338   1.478  0.1905  0.1583 -0.2198
21163W        W37347  17.301  11.610  13.768 -0.0733  0.0925  0.2436
21164W        W37348  13.587  14.399   1.646 -0.0071 -0.2217  0.1035
21165W        W37349  15.017   2.834  15.606  0.1350  0.2079  0.0317
21166W        W37350   3.891  10.084   2.730  0.1648  0.1482 -0.0216
21167W        W37351   5.106  10.340  11.472  0.0031 -0.2998  0.1058
21168W        W37352   7.488   8.613  15.830 -0.1523 -0.0766  0.0322
21169W        W37353  10.294   6.001  12.160 -0.0785  0.0800  0.0261
21170W        W37354   5.610   9.716   0.985 -0.0696 -0.4138 -0.0615
21171W        W37355   1.032  15.826   3.480 -0.3572  0.0015 -0.2974
21172W        W37356   1.786  11.052   3.829 -0.0420  0.1204 -0.0768
21173W        W37357   2.565  17.727   1.920  0.0599 -0.0831  0.2535
21174W        W37358  15.508   0.173  13.931 -0.2986  0.0170 -0.1085
21175W        W37359   2.655  14.839  14.696  0.2514 -0.0802 -0.2037
21176W        W37360   7.306   8.018   4.285  0.4679  0.0017 -0.2157
21177W        W37361  15.727  13.777  14.641 -0.1262 -0.0995 -0.2018
21178W        W37362  14.742  17.835  13.533  0.0880  0.0208 -0.1195
21179W        W37363   1.047  10.584  14.667  0.0150  0.0131 -0.1325
21180W        W37364   8.067  15.682   3.857 -0.0775  0.0605  0.0376
21181W        W37365   7.775  10.293   1.511 -0.0548 -0.1519 -0.1868
21182W        W37366   9.223   2.598   3.990 -0.2715 -0.2140  0.2159
21183W        W37367  11.662  12.866  13.103  0.0326 -0.1808 -0.0285
21184W        W37368   8.192  13.938   1.997  0.0948 -0.0165 -0.2062
21185W        W37369   5.509  15.635  11.492  0.0886  0.2618  0.0083
21186W        W37370   0.028  15.462   5.734 -0.0066  0.4386  0.0714
21187W        W37371   4.578  17.544  13.658  0.3258 -0.1536  0.1148
21188W        W37372  15.737   5.480  13.294  0.1072  0.0264 -0.2698
21189W        W37373  11.051   7.911  15.833 -0.1257 -0.2294  0.1154
21190W        W37374  16.199   3.566  12.767  0.0924 -0.3186  0.0549
21191W        W37375  15.192  15.171   2.235  0.1054  0.0349 -0.1611
21192W        W37376   6.389  13.868   2.083  0.3610  0.0631 -0.3526
21193W        W37377  11.647  10.069   3.624  0.0001  0.0426  0.0868
21194W        W37378   6.715  11.696  14.748  0.1720 -0.1243  0.1699
21195W        W37379  15.626  14.280  12.262  0.1490  0.1291  0.2665
21196W        W37380   7.874   0.283   4.384 -0.0549  0.2278  0.1776
21197W        W37381  12.350  15.761  13.202  0.1185 -0.0125  0.2268
21198W        W37382   9.396  13.107  14.529  0.0908  0.0743 -0.1865
21199W        W37383   6.148   2.701  13.541 -0.0139  0.1068  0.1059
21200W        W37384  10.129  15.096   0.238 -0.1370 -0.0727 -0.1876
21201W        W37385   9.366  13.278  11.599 -0.1373 -0.1512 -0.1699
21202W        W37386  15.399  10.814  13.766  0.0169  0.0153  0.1565
21203W        W37387   8.490  15.540  12.983 -0.3870 -0.0528  0.3139
21204W        W37388   7.357   4.750  15.997 -0.0830  0.1118  0.2165
21205W        W37389  11.932  15.773   6.299  0.0422 -0.2237 -0.0650
21206W        W37390   6.233  15.554   5.040  0.3022 -0.1089  0.1831
21207W        W37391  17.591  11.855   1.846 -0.0897 -0.2277 -0.1231
21208W        W37392  13.032   0.385   4.782  0.0554  0.2258  0.0465
21209W        W37393  17.076  16.406  11.398 -0.0810 -0.0105 -0.0228
21210W        W37394   7.608   9.678   6.213  0.0294 -0.3795  0.0908
21211W        W37395   9.812   5.462  16.150  0.3018 -0.0015  0.1425
21212W        W37396  15.684  12.124   0.771 -0.1124 -0.2931  0.0686
21213W        W37397   3.817   3.369   0.568  0.0519 -0.1467 -0.1386
21214W        W37398  12.501   6.959   1.382  0.3918 -0.3874 -0.0286
21215W        W37399   5.968  16.490   5.051 -0.2173 -0.1708  0.1153
21216W        W37400  17.124   0.575   3.393 -0.0646 -0.0416  0.3006
21217W        W37401  11.011   9.723  15.741 -0.0757 -0.0538 -0.1972
21218W        W37402  11.950  14.567   3.891  0.0063 -0.2975 -0.2232
21219W        W37403   7.120   5.549   6.230 -0.3550 -0.0321 -0.0629
21220W        W37404  13.389   1.199   0.366 -0.3727 -0.3479 -0.1203
21221W        W37405   4.923   0.606  15.231  0.0160 -0.1492 -0.1015
21222W        W37406   6.440   2.729   0.516  0.1768  0.0884  0.0788
21223W        W37407   7.907   7.894  11.899  0.1950 -0.1213 -0.0668
21224W        W37408  13.664  16.316   5.085 -0.0583  0.1985 -0.2653
21225W        W37409   8.052   0.993   4.320 -0.1093 -0.2174 -0.1407
21226W        W37410  10.940  14.703  13.473  0.0300 -0.0566 -0.1909
21227W        W37411   9.366  15.126  15.926  0.2210  0.0827  0.0611
21228W        W37412   2.669   0.335   1.253 -0.3209  0.1843  0.1563
21229W        W37413  13.675  15.242   0.677  0.2137 -0.1367  0.2935
21230W        W37414   0.587   7.734   2.886 -0.0299  0.1275 -0.1687
21231W        W37415   2.246  13.720   2.823 -0.1219 -0.1323 -0.3816
21232W        W37416   3.008  16.070  15.674 -0.1378 -0.0926 -0.2586
21233W        W37417   9.726  17.581  11.713  0.0733  0.0529 -0.0826
21234W        W37418   3.674  16.824   5.254  0.2058 -0.0047  0.2238
21235W        W37419  11.895  13.719  13.431 -0.2500  0.0929 -0.0222
21236W        W37420   7.822  15.612  14.340 -0.1392  0.0170 -0.0727
21237W        W37421   2.078  16.163  16.405 -0.1847 -0.1965 -0.3939
21238W        W37422   4.872   8.951  16.467  0.1229  0.1441 -0.2233
21239W        W37423   8.981  12.773  14.480  0.0639 -0.0819 -0.3248
21240W        W37424  10.064  11.862   3.613 -0.0368  0.1175  0.1173
21241W        W37425  17.837   1.260  12.187 -0.1622  0.2649 -0.1053
21242W        W37426  10.090  13.947   6.301 -0.2376  0.0747  0.2101
21243W        W37427   4.691  13.118  16.052  0.4093 -0.0061 -0.1381
21244W        W37428  11.607   7.016  14.470 -0.4049  0.0610  0.0088
21245W        W37429  14.692   6.050  15.501  0.0180 -0.1108 -0.0669
21246W        W37430   2.153   8.515   5.491 -0.0632  0.0663  0.2229
21247W        W37431   3.163   3.044   3.682  0.2115 -0.1022 -0.2906
21248W        W37432   9.552  17.760   2.053 -0.1548 -0.0334 -0.2721
21249W        W37433   0.702   8.538   0.620 -0.0305  0.1319  0.0108
21250W        W37434  12.691  16.307   3.950  0.1033  0.0919  0.0643
21251W        W37435   7.386   5.116   5.266  0.3235  0.0666 -0.0188
21252W        W37436   6.610  15.558  12.148  0.0533  0.0296 -0.0610
21253W        W37437  10.528   9.529   1.772 -0.2130  0.1427  0.1812
21254W        W37438   1.978  15.857  13.339  0.2394 -0.0877 -0.0204
21255W        W37439  14.411   8.867  13.784  0.0762  0.0443 -0.0293
21256W        W37440  16.998  13.038  16.258 -0.0402  0.1012 -0.1859
21257W        W37441  13.087   1.714  11.351 -0.2088 -0.0096 -0.0604
21258W        W37442   1.849   0.246   5.638  0.4493  0.0376 -0.0520
21259W        W37443  10.465  14.014  15.171 -0.0067  0.1830  0.0391
21260W        W37444  13.838   8.571   1.069 -0.0346  0.2613 -0.1372
21261W        W37445  11.664  11.643  11.796 -0.1091  0.2119 -0.0017
21262W        W37446   5.111   4.967   2.097  0.1465 -0.1733 -0.3199
21263W        W37447   4.765  10.444   3.240 -0.0198  0.2501  0.0250
21264W        W37448   9.552   1.070   0.425  0.2233  0.2643  0.1519
21265W        W37449  13.917  14.304  11.403 -0.3065 -0.0824  0.0321
21266W        W37450   9.090  16.137   2.419 -0.2141  0.1865 -0.2013
21267W        W37451  15.204   3.191   2.226 -0.0828 -0.0967 -0.0450
21268W        W37452  10.273  16.474   1.093 -0.1341  0.2570  0.0984
21269W        W37453   1.533   9.152   3.708  0.0006  0.1571 -0.0967
21270W        W37454   1.392   6.853  13.532 -0.0695  0.0157  0.0134
21271W        W37455   6.797  16.695   2.959  0.1895  0.2766  0.1878
21272W        W37456   0.210  15.756   2.363  0.3731 -0.1206  0.0456
21273W        W37457  10.302   4.858  15.656  0.2832  0.2552 -0.1057
21274W        W37458   1.442   1.930  13.280 -0.2936 -0.2694  0.2864
21275W        W37459  12.722   6.407   4.154 -0.1093  0.3415 -0.0236
21276W        W37460  17.579   8.218   0.749  0.0180 -0.2376 -0.0535
21277W        W37461  17.673  17.606  11.163  0.0251 -0.1675 -0.1137
21278W        W37462   0.961   4.522  11.856  0.1059  0.2265 -0.1665
21279W        W37463   9.889   0.131  11.724  0.0450  0.0783  0.0271
21280W        W37464   1.835  11.221  14.280  0.0476 -0.2486 -0.1231
21281W        W37465   9.388  17.530   3.445 -0.0727  0.1576  0.0198
21282W        W37466  11.710   0.282   3.551  0.1166 -0.0992 -0.2128
21283W        W37467   8.431  13.044  16.011  0.1519  0.0646  0.0887
21284W        W37468   8.452   1.619  14.006 -0.1312  0.0683 -0.1620
21285W        W37469  17.226  12.945  12.926  0.2418  0.0890  0.2972
21286W        W37470   5.725  15.871  13.582 -0.0962  0.2773  0.0970
21287W        W37471   2.108   3.935   2.086  0.4260  0.0742  0.1200
21288W        W37472   5.255   1.445   0.099  0.2765 -0.0514 -0.4122
21289W        W37473   1.779  15.809   4.569  0.3600  0.0278  0.1968
21290W        W37474   6.705  13.619  12.685  0.0861 -0.1405  0.0120
21291W        W37475  15.113  10.739   2.805  0.0298 -0.3212  0.3227
21292W        W37476  12.545  11.012   3.490  0.3959  0.0990  0.2024
21293W        W37477  13.640  17.025   1.090  0.1269 -0.1398 -0.1165
21294W        W37478  16.145   1.574  14.047  0.0377 -0.0219 -0.0570
21295W        W37479  14.546   5.671   2.916 -0.0788  0.2586  0.1347
21296W        W37480   1.529   0.445  16.528 -0.0128 -0.0559 -0.0104
21297W        W37481   2.803   9.706  11.807 -0.1894 -0.2286  0.0635
21298W        W37482   2.993   7.107  16.606  0.2080  0.0086  0.0339
21299W        W37483   6.061   9.791   0.268 -0.0227 -0.0030  0.1687
21300W        W37484   6.012   6.615   1.934 -0.1700 -0.1765  0.0950
21301W        W37485   0.345   3.427   1.775 -0.2068 -0.0468 -0.0816
21302W        W37486   7.445  16.263  11.872  0.0495  0.1420 -0.1712
21303W        W37487  12.693  16.836  14.022  0.0549  0.1953 -0.1519
21304W        W37488  13.591   8.670  14.091  0.1912  0.2775 -0.3027
21305W        W37489  14.601   4.167   5.711  0.1859 -0.2384  0.1604
21306W        W37490   3.163   8.253   5.147 -0.0548  0.1585  0.0970
21307W        W37491  17.800   7.697  14.041 -0.1829  0.1943 -0.2211
21308W        W37492  11.595   8.424  15.361 -0.1529 -0.0826  0.0300
21309W        W37493   7.825   1.813   3.624 -0.1146 -0.1256 -0.1323
21310W        W37494  10.147   4.358   2.954 -0.0345 -0.1103  0.1386
21311W        W37495   2.623  11.044   1.063 -0.0505 -0.0198  0.0409
21312W        W37496  17.523   7.828   2.545  0.0944  0.1796 -0.1703
21313W        W37497   0.212  12.654  14.783  0.1013 -0.0477 -0.1407
21314W        W37498   6.894  13.271  15.550 -0.0844  0.1440 -0.0206
21315W        W37499  13.660   7.755   3.391  0.2719  0.0332  0.1067
21316W        W37500   4.409   0.225  15.481  0.0998  0.0733  0.2094
21317W        W37501   8.551  14.055   2.840 -0.0633  0.0898  0.1380
21318W        W37502   8.456   8.273   2.321  0.1327 -0.3244 -0.0172
21319W        W37503  12.242   4.897  16.463  0.0497 -0.2633  0.0267
21320W        W37504  17.054  13.259  13.428  0.1976  0.2638 -0.1199
21321W        W37505   6.542   3.206  14.186 -0.0191  0.2700 -0.1901
21322W        W37506   6.125  10.138   4.952 -0.3360  0.1304 -0.0367
21323W        W37507  14.371   0.909   0.590 -0.0004 -0.2241  0.2435
21324W        W37508  16.089  13.821  12.887  0.3444 -0.1762  0.0941
21325W        W37509  17.077  14.777  12.306  0.4021 -0.1299 -0.2131
21326W        W37510  15.275  12.570  15.834  0.0147  0.1360 -0.0382
21327W        W37511  17.845  15.696   4.331 -0.0339  0.2764  0.0431
21328W        W37512  14.147  11.976   3.747 -0.1055 -0.1237 -0.0657
21329W        W37513   0.344   4.811   2.172 -0.0152 -0.0610 -0.0092
21330W        W37514   6.117   1.095  16.131 -0.3243  0.1114  0.0061
21331W        W37515   7.069   4.688   2.656  0.1064 -0.2692 -0.0430
21332W        W37516   9.187  11.170   5.516  0.1961  0.1433  0.4478
21333W        W37517  17.296  10.011   4.204 -0.4116  0.2692 -0.4764
21334W        W37518  13.545   4.855   3.930  0.2041  0.0199  0.0339
21335W        W37519   4.977  17.091  12.065  0.0018  0.1934 -0.0212
21336W        W37520   5.178   8.943  11.485  0.0621 -0.1547 -0.3077
21337W        W37521   0.571   5.984   5.560  0.1487 -0.0773  0.1481
21338W        W37522   0.819  14.021  15.902  0.1833 -0.1034 -0.0661
21339W        W37523  13.088  10.458  15.084 -0.0532  0.1949 -0.2354
21340W        W37524  10.074   1.369   4.497  0.3780  0.1407  0.0696
21341W        W37525  10.297  12.331  15.959 -0.1950  0.1285 -0.0844
21342W        W37526  11.495   2.838   1.831  0.0214  0.1588 -0.3624
21343W        W37527   6.864   9.349   3.054  0.2907 -0.2412 -0.0380
21344W        W37528  15.945  11.351   3.377  0.3849  0.1773 -0.0437
21345W        W37529   9.104   2.521   5.397  0.1168 -0.0526 -0.0617
21346W        W37530   8.565   3.982   0.625  0.0935  0.1004  0.0340
21347W        W37531  13.473  12.424  13.455  0.1763  0.0455 -0.2346
21348W        W37532  10.816   5.972   2.589 -0.0935  0.0167 -0.1339
21349W        W37533  10.454   9.060  15.143 -0.0619  0.0388 -0.1206
21350W        W37534   0.418   8.652   5.034  0.0231 -0.1192 -0.3551
21351W        W37535   6.741  14.265   3.399  0.1407  0.3043 -0.0345
21352W        W37536  11.066   9.543  14.600  0.1921  0.0157  0.1165
21353W        W37537  13.537   0.611  15.497 -0.1864  0.0389  0.1009
21354W        W37538  17.701  11.965   2.622 -0.2259  0.1437 -0.0042
21355W        W37539   5.723  14.829   0.375 -0.2569  0.0333 -0.0322
21356W        W37540  13.717  17.894  16.500  0.0707  0.0117  0.0866
21357W        W37541  16.394   0.469  15.215 -0.2120 -0.2653 -0.1185
21358W        W37542   3.362   6.904   4.097 -0.0435  0.0949  0.0764
21359W        W37543  17.899   4.708   3.990 -0.3768 -0.0603  0.1846
21360W        W37544   3.254   5.963   3.986 -0.1757 -0.0034 -0.1950
21361W        W37545  10.671   9.699   3.998  0.0559  0.2139 -0.0526
21362W        W37546  14.540  12.700   0.344 -0.3279 -0.2430 -0.2182
21363W        W37547   4.270   9.745  16.562  0.0910 -0.0952  0.2798
21364W        W37548  10.490   3.581  11.500 -0.1677  0.0801  0.0443
21365W        W37549  17.053  11.574  11.396  0.0922 -0.2315 -0.0978
21366W        W37550  13.354   3.155   1.012 -0.0302  0.0434  0.2754
21367W        W37551  14.974   0.568  11.691 -0.2795 -0.2489  0.0349
21368W        W37552  10.972  12.472  13.475 -0.2818 -0.2973 -0.0215
21369W        W37553  12.753  17.605  14.334 -0.0466 -0.1763  0.0059
21370W        W37554   5.667   6.472  15.344 -0.1286  0.0866 -0.1264
21371W        W37555   7.904   3.148   0.321 -0.0679 -0.1671  0.0056
21372W        W37556   4.518   2.658  16.025  0.3650 -0.0979 -0.1851
21373W        W37557   9.266  10.035   0.758 -0.1217  0.0053 -0.2030
21374W        W37558  11.658   8.509   0.270  0.0042  0.2009 -0.0138
21375W        W37559   0.627  14.102  14.952 -0.0089 -0.1758 -0.2111
21376W        W37560   8.321  12.705   0.076  0.0806 -0.0634 -0.3476
21377W        W37561  12.482  10.163  10.657 -0.2733 -0.0495  0.0827
21378W        W37562   3.163   4.835   3.719 -0.3286 -0.2609 -0.0520
21379W        W37563   2.237  15.533  11.732 -0.0395 -0.0992 -0.2192
21380W        W37564  13.073  16.603  13.867 -0.1440 -0.3627 -0.3863
21381W        W37565   1.285   6.627  13.031 -0.0596  0.0490  0.1585
21382W        W37566   2.318   9.512   5.114 -0.1892 -0.1701  0.3351
21383W        W37567  17.773  11.236  11.591 -0.0930 -0.0095  0.2370
21384W        W37568  16.447  17.855   3.475  0.0323  0.0143  0.2340
21385W        W37569   3.083  12.238  16.308 -0.1263 -0.1039  0.0833
21386W        W37570   3.907   8.428   4.612 -0.1798  0.1852 -0.0913
21387W        W37571  16.024  12.085   0.358 -0.0179  0.0471  0.0007
21388W        W37572   6.804   1.846  14.054 -0.2069  0.0296 -0.1102
21389W        W37573  13.956   5.729  16.637 -0.2787 -0.1408  0.2474
21390W        W37574   4.750  12.527  16.539 -0.0078  0.1137 -0.2919
21391W        W37575   2.873  10.056  11.355  0.4177  0.1734 -0.1780
21392W        W37576   6.509   8.317  14.395 -0.1701  0.0253  0.0090
21393W        W37577   7.790  15.394  16.151 -0.3586 -0.1095 -0.2166
21394W        W37578  17.880  10.152   4.800 -0.1065 -0.3136  0.0601
21395W        W37579   4.378  14.879   5.022 -0.1064 -0.3427  0.2540
21396W        W37580   6.720   9.813  14.888 -0.1018  0.0590  0.1259
21397W        W37581   2.393  15.965   3.406 -0.0431 -0.1755  0.0664
21398W        W37582   3.795   0.515  16.632  0.1509  0.3525  0.1322
21399W        W37583   8.174  17.328   4.219  0.0176  0.1142  0.3689
21400W        W37584  11.073  15.130  14.283 -0.4069  0.2998 -0.0119
21401W        W37585  17.489  11.620  11.750  0.3124  0.0743  0.0553
21402W        W37586  12.158   7.888  11.633  0.0551  0.0454 -0.1476
21403W        W37587  15.219  14.383   2.080 -0.1895  0.0408 -0.0571
21404W        W37588  14.788   8.756  13.471  0.1330  0.0649 -0.1149
21405W        W37589  17.697   6.810   0.703 -0.0569 -0.1957  0.2141
21406W        W37590   8.506  10.139   2.139 -0.1896  0.0527  0.0817
21407W        W37591  11.640   3.179  11.919  0.1327  0.2620 -0.1925
21408W        W37592  11.316   4.514  11.806 -0.1684 -0.2380  0.1343
21409W        W37593   7.048  15.618  12.304 -0.1546 -0.0331  0.1026
21410W        W37594   8.305  15.230  16.310 -0.2090  0.0107 -0.2363
21411W        W37595  15.970  16.775   2.274 -0.0775  0.0090  0.0801
21412W        W37596  11.365  16.480   3.623 -0.2494 -0.0837 -0.2125
21413W        W37597   3.616   2.177  12.314  0.2337  0.5901  0.0123
21414W        W37598  10.016  17.214   4.590 -0.3367  0.1075 -0.0054
21415W        W37599   6.821  11.349   6.455  0.1287  0.1320 -0.0319
21416W        W37600  14.878   8.380  16.673  0.1574 -0.0277 -0.0298
21417W        W37601   8.778  11.340   1.151  0.1151 -0.0735 -0.1568
21418W        W37602  17.118  11.895  11.852  0.0817  0.2743 -0.2910
21419W        W37603   5.791  11.358  14.932 -0.0665 -0.0672 -0.1301
21420W        W37604   2.854  16.361   2.878  0.1075  0.0726  0.0586
21421W        W37605  14.513   0.779  15.336 -0.0251 -0.1114 -0.0997
21422W        W37606  14.529   0.091  11.730 -0.1800  0.0896  0.1016
21423W        W37607   8.325   8.158  16.677 -0.1526  0.3483  0.1675
21424W        W37608   5.184  12.647   5.188  0.4819  0.0937 -0.2128
21425W        W37609   9.440   8.729  16.491  0.3284  0.0295 -0.1125
21426W        W37610   7.062   8.184  14.235  0.2471 -0.0632 -0.1435
21427W        W37611  17.379   1.154  12.506  0.0932  0.2074  0.0734
21428W        W37612   4.146  15.531  15.032 -0.2949 -0.3682  0.0956
21429W        W37613  12.522  11.828   3.623  0.2290 -0.0181  0.1268
21430W        W37614  11.193   0.831   1.765  0.0886  0.2683  0.2620
21431W        W37615   3.245   8.942  13.501 -0.2815  0.1492 -0.1997
21432W        W37616   6.389   1.449   5.557  0.0313 -0.1753  0.0577
21433W        W37617  14.186  16.299   0.335 -0.1211 -0.1600 -0.0949
21434W        W37618   4.842  12.491  12.214 -0.0544 -0.0692  0.3522
21435W        W37619   3.691   3.065   3.688 -0.0984  0.5540 -0.4237
21436W        W37620   7.768  10.910  16.565  0.1508  0.1906 -0.0724
21437W        W37621  16.465   1.115  11.581  0.1637 -0.1501 -0.1429
21438W        W37622   7.455  13.268   1.425  0.0603  0.1352  0.1498
21439W        W37623   8.274  16.923  12.782  0.0034 -0.0468 -0.0163
21440W        W37624   7.605   4.345  12.434  0.3130  0.1593 -0.0841
21441W        W37625  10.893   1.194  15.325 -0.0250  0.0126  0.0698
21442W        W37626   1.528   7.415   0.957 -0.0116  0.0830  0.0397
21443W        W37627  10.173  16.582  16.140 -0.0328 -0.2399 -0.0934
21444W        W37628   2.934  13.944  14.965  0.1173 -0.1045 -0.1359
21445W        W37629  13.372  13.393   3.116 -0.0997  0.1748  0.0441
21446W        W37630  14.435   8.658  16.395 -0.1179 -0.0597  0.4494
21447W        W37631  15.499   6.527  15.113 -0.1161  0.3305 -0.0945
21448W        W37632  17.851  15.513   1.464 -0.0648  0.0340 -0.1357
21449W        W37633   0.642   9.573   4.469 -0.2853  0.1600 -0.2654
21450W        W37634   1.745   0.841  13.712  0.0229  0.0669 -0.0064
21451W        W37635   3.310   5.362   0.714  0.0246 -0.2553 -0.1716
21452W        W37636   1.380  10.343  13.655  0.1187 -0.1225 -0.1568
21453W        W37637   1.321  16.813  12.927 -0.0239  0.3100  0.0498
21454W        W37638  15.137  11.642  12.351  0.0388  0.1780  0.0108
21455W        W37639   8.637   9.773  15.437 -0.1227 -0.0002 -0.0596
21456W        W37640   8.497   9.739   0.495  0.2495  0.0742 -0.2237
21457W        W37641  17.240  12.158  15.844  0.0857  0.0575  0.2459
21458W        W37642   0.824   0.819   5.044  0.3130 -0.0533  0.0487
21459W        W37643  10.817   2.634  12.611  0.0974  0.1979  0.0038
21460W        W37644  12.754   4.469  14.490  0.2055  0.0615  0.0367
21461W        W37645  12.323  17.782  16.483  0.2032  0.3900 -0.2072
21462W        W37646   2.025   9.624  11.319  0.1257  0.1139 -0.0553
21463W        W37647  12.815  10.477   2.441  0.0154 -0.1362  0.2607
21464W        W37648   0.227  13.827  12.335 -0.0840  0.0971  0.1182
21465W        W37649   1.779  17.786  14.058 -0.2094  0.0876 -0.0427
21466W        W37650  11.989   8.540  14.467  0.1559 -0.2668  0.3658
21467W        W37651   9.906   0.026  14.159 -0.0333 -0.3265 -0.0564
21468W        W37652   3.450  10.259  12.317  0.1625  0.1606 -0.0147
21469W        W37653   7.525  15.628   5.634 -0.1100 -0.2072 -0.1934
21470W        W37654  11.551   2.139   0.565 -0.0355  0.1879 -0.0062
21471W        W37655   3.810   9.422   2.934 -0.2106 -0.0528 -0.1972
21472W        W37656   2.760  12.339   5.403 -0.2181 -0.1849 -0.1762
21473W        W37657   0.582   4.870   1.125  0.2687 -0.2275  0.0417
21474W        W37658   5.918   4.434  12.542  0.1308  0.4732  0.0644
21475W        W37659   8.611  13.052  16.488 -0.0746 -0.3661  0.1051
21476W        W37660  17.415   8.665   3.660 -0.1813 -0.1397 -0.1649
21477W        W37661  14.962   4.826  14.609 -0.1406  0.1709  0.1105
21478W        W37662  16.895  17.171   2.416 -0.0142 -0.0791  0.2265
21479W        W37663   8.049  13.369   4.314  0.2561 -0.0660  0.1475
21480W        W37664   7.879  12.206  13.767 -0.0009  0.0554  0.3207
21481W        W37665  16.881   3.818   0.598 -0.0567 -0.1143 -0.2855
21482W        W37666   9.465   0.915   5.276  0.1207  0.3317  0.0502
21483W        W37667   6.858   7.526  16.021 -0.1412 -0.1004  0.0843
21484W        W37668   9.783  15.148   0.633  0.1714  0.1649 -0.0901
21485W        W37669  16.984  17.773  13.883 -0.1703 -0.2220 -0.1258
21486W        W37670   4.492  11.702   2.593  0.2283  0.1749 -0.0653
21487W        W37671   4.124   5.157  11.582  0.0603 -0.2191 -0.3036
21488W        W37672  12.833  10.051   1.725 -0.0817  0.0738 -0.3224
21489W        W37673   6.424   0.930  12.518 -0.0202  0.1899 -0.2162
21490W        W37674   3.354   3.079  14.679 -0.2267 -0.0979 -0.1740
21491W        W37675  10.673  14.185  16.068 -0.1639  0.2901 -0.0368
21492W        W37676   1.734  17.156  15.209  0.1379 -0.0261  0.1950
21493W        W37677   6.643  12.379  14.197 -0.0352  0.0106 -0.1266
21494W        W37678   1.097   9.350  12.312  0.0169 -0.1428  0.0131
21495W        W37679  10.374   5.377   0.193  0.3786  0.0192  0.0112
21496W        W37680  17.561  14.415   5.288 -0.0846  0.1394 -0.1179
21497W        W37681  13.902  15.170   1.500 -0.1376 -0.0606 -0.2593
21498W        W37682  12.932  10.036   1.164 -0.0898  0.1443 -0.0286
21499W        W37683   3.832   3.136   2.842 -0.3086 -0.0967 -0.0842
21500W        W37684   9.114  14.646   3.866  0.1310 -0.0018  0.0009
21501W        W37685   2.866   4.130   0.181 -0.3137 -0.4287 -0.0442
21502W        W37686   7.314  17.353  12.329  0.0422 -0.0924  0.1760
21503W        W37687   8.326  14.518   4.126  0.1078 -0.1601  0.2443
21504W        W37688  12.396  17.384  12.786 -0.0317 -0.1877 -0.1866
21505W        W37689   4.001  11.335  15.977 -0.2306  0.0551 -0.0174
21506W        W37690  13.007  12.610   1.995 -0.1011 -0.2098 -0.2138
21507W        W37691  17.303  16.905  12.926  0.0578  0.1577  0.0785
21508W        W37692   1.135   2.295   1.357 -0.0205 -0.0580 -0.0694
21509W        W37693  11.071  11.819   5.543 -0.0455 -0.0957  0.1209
21510W        W37694   3.285   0.032  15.554 -0.1294  0.2061 -0.0523
21511W        W37695   8.962  12.709  16.201  0.2795  0.0898 -0.0973
21512W        W37696   6.508  10.015   2.028 -0.2208  0.1529  0.0595
21513W        W37697  16.325  11.420   2.380  0.2041  0.2186 -0.0073
21514W        W37698  11.882  12.307   4.765  0.2221  0.2101  0.0770
21515W        W37699   8.451   0.819   5.112 -0.0056 -0.1641 -0.0783
21516W        W37700  12.040  16.821   2.140 -0.1690 -0.2639 -0.0503
21517W        W37701   2.486  14.869  12.207  0.0444  0.1416  0.2078
21518W        W37702  13.198   2.193   1.101  0.1764 -0.3498  0.2122
21519W        W37703  14.859   6.220   5.172 -0.1853 -0.0413  0.1652
21520W        W37704  13.911   6.351  15.852  0.1859 -0.2508  0.0667
21521W        W37705   9.453   7.983  13.860  0.0809 -0.0561  0.2270
21522W        W37706   2.329  13.237   3.009  0.1449 -0.2043 -0.0176
21523W        W37707  12.156   2.988  13.792 -0.1495  0.0541 -0.0796
21524W        W37708  11.090   6.117  13.108 -0.1866 -0.4606 -0.0046
21525W        W37709  16.914  16.966  15.620 -0.3146  0.3164  0.1073
21526W        W37710  12.535   3.576   2.104  0.0506  0.0045 -0.0730
21527W        W37711   1.920  10.699   6.473 -0.0399 -0.1380  0.1338
21528W        W37712   3.146   9.869  15.971 -0.0404 -0.0169 -0.2156
21529W        W37713   6.674  17.983   2.536  0.1400 -0.0667 -0.1089
21530W        W37714   3.223   6.787   3.571 -0.4274 -0.1999 -0.3968
21531W        W37715   0.696   9.541  16.427  0.0172  0.1283  0.2485
21532W        W37716   6.999   8.026   2.206  0.0749  0.0550 -0.0305
21533W        W37717   2.379  16.428   3.309 -0.0315 -0.1196  0.3244
21534W        W37718   5.961  16.891   3.523  0.3418 -0.0152 -0.0193
21535W        W37719   1.609  12.525  11.206 -0.2185 -0.2051  0.3039
21536W        W37720   6.406   9.441  14.833  0.0850 -0.0103 -0.2313
21537W        W37721   2.989  16.779  14.378 -0.1777  0.0891  0.2444
21538W        W37722   9.568   4.807   4.439 -0.0142  0.2055 -0.0733
21539W        W37723  15.966   3.691   5.213  0.0776 -0.0718 -0.0769
21540W        W37724  16.736  16.320  12.302 -0.5860 -0.1845  0.0126
21541W        W37725   9.255  14.572   1.421 -0.4385  0.4005 -0.3700
21542W        W37726   9.387   1.813  15.264  0.2090 -0.1953 -0.2371
21543W        W37727  15.569   7.936  11.679  0.3331  0.1580 -0.0135
21544W        W37728  13.332  16.455   2.561 -0.1698 -0.0072 -0.0700
21545W        W37729   7.948  12.054  13.278  0.4558  0.2004  0.0251
21546W        W37730  12.286   9.235   1.623  0.3722 -0.2716 -0.3951
21547W        W37731   8.557   9.650  11.642 -0.0600 -0.1471 -0.0083
21548W        W37732   8.719   1.610   0.734 -0.0680 -0.3531 -0.2128
21549W        W37733   7.897   4.655   0.668  0.1707 -0.1423 -0.1240
21550W        W37734   0.503  11.940   3.944  0.0285 -0.1458  0.2424
21551W        W37735   8.239   0.136  16.282 -0.0989  0.3416  0.0403
21552W        W37736   6.606   5.071  14.859  0.2543  0.0715 -0.2405
21553W        W37737  14.977  15.956  13.606 -0.2428 -0.1875 -0.0297
21554W        W37738   3.648  13.282  15.772  0.2436 -0.1135 -0.0352
21555W        W37739   7.938   2.520   0.315  0.0889  0.3162 -0.1306
21556W        W37740   5.474   2.148   3.023  0.0875 -0.1085  0.0428
21557W        W37741  12.888  12.106   4.407  0.1080  0.0606  0.0072
21558W        W37742  15.159   1.833  13.777  0.0055  0.1626  0.0200
21559W        W37743   8.305   1.986   0.641  0.1973  0.1754 -0.0051
21560W        W37744   0.855   3.771   0.402 -0.1283 -0.0668  0.0683
21561W        W37745  10.194  16.745  14.251 -0.1627  0.1266  0.2344
21562W        W37746   9.162   8.126  11.937  0.1048  0.0829  0.1290
21563W        W37747   0.516  10.176  11.361 -0.0788  0.3944 -0.0554
21564W        W37748  14.200   0.775   0.003  0.1997 -0.2147 -0.2062
21565W        W37749   8.290  13.743   3.140  0.1316 -0.2546  0.0168
21566W        W37750   1.345  11.185   1.912 -0.2480 -0.0546 -0.0339
21567W        W37751  14.569   7.670   3.851 -0.1048  0.0359  0.2550
21568W        W37752  13.863   9.168  15.275  0.1959  0.2432  0.0818
21569W        W37753  16.691   5.625   6.134  0.0358  0.0008  0.1180
21570W        W37754   8.915   0.780  15.974  0.1736  0.2739  0.1959
21571W        W37755   8.083  13.023   0.357  0.0731  0.0979 -0.0943
21572W        W37756   3.724  11.538  14.808  0.0138  0.1953  0.1844
21573W        W37757   3.855   0.238   1.319  0.1878  0.1157 -0.1197
21574W        W37758  13.478  12.824  14.140 -0.0519 -0.2147  0.1435
21575W        W37759   3.890  15.936   0.311  0.3003  0.1637 -0.1313
21576W        W37760  10.176   4.927   0.387  0.0386 -0.1755 -0.0401
21577W        W37761   9.245  13.879  12.411 -0.0545 -0.1567  0.2770
21578W        W37762   5.424   9.626   4.764  0.2823  0.1802  0.1489
21579W        W37763  15.692  15.053  16.025 -0.0877  0.1030 -0.2559
21580W        W37764   6.684  15.973   5.643  0.2961 -0.1460 -0.0459
21581W        W37765   3.975  12.432  15.078 -0.3937 -0.2123 -0.2179
21582W        W37766  11.598  12.008   1.930 -0.1035 -0.0553 -0.1650
21583W        W37767  11.348   1.541   3.686  0.3104 -0.0430  0.0475
21584W        W37768  12.590   1.128  16.014  0.0990 -0.3703 -0.3769
21585W        W37769  13.645   4.308  12.485 -0.0554 -0.2824  0.2193
21586W        W37770  15.477   7.804   6.460  0.1268 -0.0209  0.0948
21587W        W37771  13.552   9.318  12.342  0.0836  0.3803  0.1193
21588W        W37772  12.256   8.380   5.098 -0.1381 -0.1124  0.0290
21589W        W37773   5.365   0.230   1.225 -0.1715  0.2776 -0.2375
21590W        W37774   6.558  11.676   1.397 -0.3240 -0.2843  0.1155
21591W        W37775  13.488   8.441  12.981  0.2516 -0.0461  0.1407
21592W        W37776  17.973   2.598   3.656  0.2761 -0.0390  0.0862
21593W        W37777   0.073   7.289  12.352 -0.0387  0.1502  0.0617
21594W        W37778   2.093   5.252   4.957 -0.0577  0.2154 -0.1707
21595W        W37779   5.376  12.609  13.561 -0.2934 -0.3522 -0.1634
21596W        W37780  11.890   5.155  11.923 -0.2175  0.1001  0.2113
21597W        W37781  12.267   6.966  12.630 -0.0754  0.0193 -0.0542
21598W        W37782  15.935   0.725   1.891  0.1336 -0.0680 -0.0216
21599W        W37783   4.806   2.188   2.216  0.0371 -0.1709  0.1344
21600W        W37784   0.209   9.669  15.325  0.0516  0.1460 -0.2256
21601W        W37785  10.169   8.836   1.380 -0.4019  0.1388  0.0327
21602W        W37786  16.744  12.691  12.822 -0.1293  0.1524  0.3549
21603W        W37787  14.319   3.573   3.938 -0.0231 -0.1982  0.1077
21604W        W37788  10.735   9.953  12.184  0.1405 -0.1212  0.0206
21605W        W37789   7.098   3.387  14.764 -0.1088 -0.1118 -0.4533
21606W        W37790  15.384   9.961  12.158  0.1379 -0.0336  0.0832
21607W        W37791   2.412  16.473  13.980 -0.0136 -0.1640 -0.1669
21608W        W37792   7.878   7.997   0.688  0.5290  0.4772 -0.0784
21609W        W37793   6.722   6.670   1.779  0.0097 -0.1560 -0.0137
21610W        W37794  15.558   9.852  12.983  0.0125 -0.2068 -0.0967
21611W        W37795  17.797  16.052   2.382 -0.0020 -0.3411 -0.3017
21612W        W37796  17.972  13.071   4.645 -0.1202  0.1165  0.0864
21613W        W37797   5.648  13.046   1.880 -0.0690  0.1728  0.0366
21614W        W37798   5.657  11.704   1.568 -0.2349 -0.0472 -0.1346
21615W        W37799   7.200  13.987   2.120 -0.1129  0.1180  0.0185
21616W        W37800  13.089   0.856  15.379 -0.1215  0.3823 -0.2230
21617W        W37801  10.705   2.456   0.686  0.0755 -0.0131  0.1984
21618W        W37802  17.426   4.591   3.804 -0.0033  0.1108 -0.2840
21619W        W37803  11.265   8.427  11.632 -0.2935  0.0549 -0.1244
21620W        W37804   2.721   6.722   5.429 -0.1228 -0.0527  0.1426
21621W        W37805   0.166  15.972   5.633  0.0870 -0.0711  0.1483
21622W        W37806   7.722  10.302  11.453  0.1204 -0.2535  0.3751
21623W        W37807   6.404   7.013   1.209 -0.2748  0.0725 -0.0411
21624W        W37808   3.653   4.226  13.936  0.0852  0.4199  0.1780
21625W        W37809  10.051   8.153  12.580  0.1890  0.0925 -0.0926
21626W        W37810   1.341   5.069   0.408 -0.1948 -0.1849  0.3275
21627W        W37811  17.513   7.611  15.741  0.0300 -0.0421 -0.2068
21628W        W37812   8.349  16.948   4.437 -0.0383 -0.1726 -0.0158
21629W        W37813   1.837   9.494   2.529  0.0901  0.1682 -0.2295
21630W        W37814  14.953  10.787   1.321 -0.2568  0.1556 -0.1786
21631W        W37815  13.380   0.056  12.673 -0.2556  0.0611  0.1781
21632W        W37816  16.356  17.390   4.852  0.2760 -0.1094  0.0174
21633W        W37817  14.080  11.364  15.897 -0.0826 -0.1879 -0.2033
21634W        W37818  17.978   4.127   0.771 -0.1025 -0.1031 -0.0264
21635W        W37819   1.026  15.525   5.024  0.1319 -0.1828  0.0395
21636W        W37820  13.678   6.573  16.224  0.0054 -0.2454 -0.1964
21637W        W37821   0.067  15.367  12.173  0.1966  0.1038 -0.4563
21638W        W37822   2.165   8.272   4.786 -0.0216 -0.1197  0.1224
21639W        W37823  10.828  17.533   2.107  0.0520 -0.2446 -0.1880
21640W        W37824  17.375   3.882   0.765  0.2447  0.1522 -0.0971
21641W        W37825  12.646  12.520  12.937 -0.1381 -0.2218 -0.0469
21642W        W37826   5.017   7.227   4.073  0.2850 -0.4961  0.1403
21643W        W37827  12.307  16.962  13.054  0.1654 -0.0409  0.0876
21644W        W37828  14.924   3.047   3.688  0.2007  0.0193  0.3315
21645W        W37829  10.340   1.956   1.425 -0.3163 -0.0600  0.1302
21646W        W37830  12.322   1.192  13.508 -0.0334  0.0777  0.2792
21647W        W37831  12.002  12.545   3.336  0.2362  0.0116 -0.0913
21648W        W37832  16.489   1.115  12.070 -0.1063 -0.0629 -0.1311
21649W        W37833  17.118  11.885   0.655  0.2438  0.1867 -0.1041
21650W        W37834   4.056   8.835  12.473 -0.0388  0.3063 -0.0359
21651W        W37835  14.811  12.346   1.207  0.2152  0.1685  0.2440
21652W        W37836   4.293  14.192   3.424  0.1119 -0.0325  0.2378
21653W        W37837   0.075   9.840  13.592  0.0178 -0.0870  0.0569
21654W        W37838   2.578   6.983  12.280  0.0665  0.1236  0.0407
21655W        W37839  10.190  10.008  13.567 -0.1305  0.3510 -0.0052
21656W        W37840   7.978   8.550   3.706 -0.3416 -0.1521  0.0730
21657W        W37841  10.769   0.352   4.685  0.2714  0.2402 -0.2106
21658W        W37842   9.556   1.412  12.322 -0.2618  0.2165 -0.2090
21659W        W37843   5.553   0.612   1.493  0.1839  0.0247  0.4508
21660W        W37844   4.624   6.692   0.214 -0.1346 -0.0095  0.1231
21661W        W37845  13.604   9.662   4.644 -0.0065  0.0457  0.2082
21662W        W37846  16.630  13.321   5.082  0.2273  0.0596  0.1176
21663W        W37847  10.439   1.487  15.362  0.1218  0.0505 -0.1917
21664W        W37848  15.336  16.002  12.224  0.4453  0.0391 -0.2992
21665W        W37849   0.836  13.967   1.786 -0.0468 -0.0518  0.2803
21666W        W37850  16.147   2.575   3.185 -0.1713  0.2452  0.1110
21667W        W37851   5.762  17.571   2.271 -0.0195 -0.1032  0.1133
21668W        W37852  13.911   0.599  15.976  0.1525 -0.0023 -0.3395
21669W        W37853  10.694  14.326  12.782  0.1245 -0.1331  0.0566
21670W        W37854  17.107   0.159  12.971  0.1059  0.0454 -0.0919
21671W        W37855   5.783  11.266  15.442 -0.0719 -0.0450  0.2461
21672W        W37856   5.716  14.446   1.814  0.1529  0.0970  0.1428
21673W        W37857   6.867  14.696  15.461  0.1131 -0.3233  0.0624
21674W        W37858  12.165   4.116   2.220  0.0512  0.1184 -0.1489
21675W        W37859   0.343  10.011  12.669  0.1802  0.0204 -0.0847
21676W        W37860  15.227  11.992  14.566  0.1179 -0.1227  0.0896
21677W        W37861  12.711  16.648   1.485 -0.3251 -0.1241  0.0513
21678W        W37862  14.215   0.954   4.498  0.2688  0.3503 -0.0319
21679W        W37863  15.022   2.978  15.127 -0.1139 -0.0345  0.1688
21680W        W37864  17.813   3.699   0.952 -0.0792 -0.0742  0.2814
21681W        W37865  13.374  10.855  16.040 -0.1032  0.1731  0.0570
21682W        W37866   2.959  10.976  15.406 -0.1772  0.0060  0.1043
21683W        W37867   8.844  16.036   6.043  0.1333 -0.3216  0.1990
21684W        W37868  10.558  11.501   5.319 -0.0640 -0.1021  0.1012
21685W        W37869   2.860  17.293   2.023  0.2472  0.2921 -0.0565
21686W        W37870   1.476  16.007  16.628 -0.0552  0.3429  0.0346
21687W        W37871   7.503   7.557  13.490  0.0783 -0.0122  0.2766
21688W        W37872  15.542  12.496  14.545 -0.0318 -0.1778 -0.1293
21689W        W37873  16.625  15.653   2.911 -0.0173 -0.1040 -0.3267
21690W        W37874  11.311   2.135  10.569  0.0585  0.2644  0.2018
21691W        W37875   4.318   3.844  14.439  0.1093  0.1515 -0.0017
21692W        W37876   8.354   9.325   4.014 -0.3962 -0.1329  0.3780
21693W        W37877   9.660   3.247   0.106  0.1703  0.0276 -0.1035
21694W        W37878  13.414  15.618   0.402 -0.0883 -0.2592 -0.1503
21695W        W37879   1.812   6.009   0.488 -0.1781 -0.1251 -0.2881
21696W        W37880   2.828  17.807   3.405 -0.0441  0.0480  0.1668
21697W        W37881  11.049   3.814  15.983  0.0255  0.0540 -0.1202
21698W        W37882  18.002   1.222   0.340  0.0596 -0.0564  0.2101
21699W        W37883   6.842   7.921   4.146  0.1154 -0.2391  0.0242
21700W        W37884  12.855  10.912   1.169 -0.0212 -0.3779 -0.1589
21701W        W37885  10.221  16.751  13.673 -0.1655 -0.0051 -0.0458
21702W        W37886   7.144   8.038  15.860  0.2212  0.0066 -0.0468
21703W        W37887   6.753   4.597   6.022  0.1149  0.0418 -0.0251
21704W        W37888   4.020  11.688   3.315  0.0758  0.2777  0.0705
21705W        W37889   0.154  14.328  11.461 -0.0832  0.2206 -0.2771
21706W        W37890   3.902  16.308  15.973 -0.0320 -0.4345  0.0785
21707W        W37891  11.287   1.971   5.337  0.1752  0.0437  0.0523
21708W        W37892  14.833  14.036  13.425  0.0149 -0.0361  0.1397
21709W        W37893  15.927   6.763  15.380  0.1924 -0.2522 -0.0322
21710W        W37894  13.100   6.597   2.252 -0.1795  0.3605 -0.1115
21711W        W37895  13.302  16.881  15.225 -0.0915  0.0478  0.1947
21712W        W37896  16.303  15.983   1.208  0.0713  0.0097 -0.0367
21713W        W37897   4.213  12.547  14.595 -0.2694  0.0924 -0.2027
21714W        W37898   3.573   8.997   3.096  0.1130 -0.0129 -0.1338
21715W        W37899  14.992  10.325   5.233 -0.3601 -0.1718 -0.0617
21716W        W37900   6.299  14.585   1.032  0.1277  0.3262  0.0378
21717W        W37901  15.027   2.656  12.678 -0.0071  0.0005  0.2440
21718W        W37902   5.475  15.050  12.669 -0.0885  0.0246  0.0518
21719W        W37903   7.960   7.418   4.503  0.0100 -0.1808 -0.1452
21720W        W37904   4.594   6.541   5.941  0.1878  0.1085 -0.2979
21721W        W37905   0.312  12.265   4.972 -0.1499 -0.0427 -0.2540
21722W        W37906   8.760  14.371  16.283 -0.2295 -0.1106  0.1280
21723W        W37907  10.850  17.893   3.779 -0.1312 -0.1670 -0.0606
21724W        W37908   1.965   6.363   5.142 -0.0644  0.1294 -0.1015
21725W        W37909  11.257   5.572  13.455 -0.0930 -0.0872 -0.1640
21726W        W37910  17.522   3.303   1.125  0.0265  0.0332 -0.0531
21727W        W37911   7.868  17.261   2.741  0.0085  0.0683 -0.1151
21728W        W37912  16.648  11.080   2.283 -0.1717  0.0023  0.1337
21729W        W37913   6.783   1.234   3.988  0.0680  0.2360 -0.1947
21730W        W37914  11.065   9.865   5.341 -0.0671  0.2416  0.0354
21731W        W37915   6.913  15.694  11.670 -0.0301  0.1927  0.0851
21732W        W37916   6.833  17.183  10.327  0.3168 -0.2533  0.2496
21733W        W37917   2.204   2.547   4.196 -0.2483  0.0327 -0.0684
21734W        W37918   1.548   5.618  15.685  0.2373  0.0533 -0.1984
21735W        W37919  10.153  15.346  11.951  0.1191  0.0011  0.0116
21736W        W37920  13.133  15.825  14.543  0.0875  0.0617 -0.0015
21737W        W37921  17.274   6.677   1.035 -0.1247  0.3283 -0.0303
21738W        W37922   1.272   9.307   1.016 -0.2382 -0.3429 -0.0342
21739W        W37923  16.446  16.434   0.239 -0.3000  0.0781 -0.0400
21740W        W37924  17.806   5.205   3.052 -0.2397  0.1453  0.2483
21741W        W37925   6.625   5.572  12.690 -0.0376  0.0187 -0.3368
21742W        W37926  14.705  13.837   3.444  0.1010  0.1111  0.0592
21743W        W37927   1.372   2.841  11.468  0.1413  0.0198  0.0444
21744W        W37928  16.725   0.612  13.721 -0.0290  0.0733 -0.2731
21745W        W37929   3.192  16.146  13.489 -0.2282 -0.3226 -0.3986
21746W        W37930  17.762  17.367   3.726  0.1856 -0.1617  0.0512
21747W        W37931   9.059   0.803   0.102  0.4972 -0.0905 -0.3946
21748W        W37932   6.758  12.874  14.237  0.1395  0.2656 -0.0843
21749W        W37933  13.638   9.883   4.213 -0.1254 -0.3406 -0.1026
21750W        W37934  10.213  15.041   4.322 -0.0568 -0.3386  0.1128
21751W        W37935  11.400   0.025   3.139 -0.0358  0.0970  0.3270
21752W        W37936  17.073   6.131  15.901 -0.1358 -0.1606  0.0531
21753W        W37937  17.838   0.201  15.042  0.2574 -0.3328 -0.1641
21754W        W37938  10.043   3.225   1.339 -0.1892 -0.0916 -0.3625
21755W        W37939   9.714   7.767  12.522  0.0923  0.0352 -0.2256
21756W        W37940   2.644   2.236  10.344  0.0965  0.0981 -0.0130
21757W        W37941  15.289   7.166   1.447 -0.1606  0.3387 -0.0972
21758W        W37942   7.041   0.125   5.222  0.0503  0.0615 -0.0792
21759W        W37943   4.730  16.308  13.603  0.3969  0.3216  0.0703
21760W        W37944   1.094   6.451   3.276 -0.0099 -0.2458 -0.0558
21761W        W37945   4.993   2.352  16.070  0.0496  0.0706  0.1345
21762W        W37946  17.623   2.351  11.244 -0.0022  0.2720  0.1040
21763W        W37947   9.203   8.750   4.958  0.0975 -0.0331 -0.0146
21764W        W37948  14.072   2.398  12.798 -0.1255  0.4185 -0.2593
21765W        W37949   8.177   0.606   4.636 -0.1434 -0.1058  0.0620
21766W        W37950   0.569  13.656   4.241 -0.0747 -0.0289 -0.0075
21767W        W37951   6.142  13.092   1.938 -0.0124  0.1005 -0.0710
21768W        W37952   8.655   2.793  16.099 -0.2663 -0.0106  0.0022
21769W        W37953  11.745   6.395  15.062  0.1589  0.0192 -0.0907
21770W        W37954   3.963  10.776  13.611 -0.0580 -0.1150  0.2624
21771W        W37955  17.255   5.896   2.146 -0.1795 -0.1054 -0.0483
21772W        W37956   9.392   1.087  15.843 -0.1128  0.0344 -0.0170
21773W        W37957   5.789   3.652  14.699 -0.1139 -0.3134 -0.1745
21774W        W37958   2.470   8.613   4.616  0.1543  0.0156  0.2674
21775W        W37959   2.225   1.745   1.995 -0.0388 -0.4034  0.0895
21776W        W37960   2.800  17.921  15.395  0.0194  0.2666  0.3095
21777W        W37961  12.260  13.308   3.745  0.0813 -0.0433  0.2272
21778W        W37962  14.189  15.696  12.350  0.1589  0.3470 -0.0015
21779W        W37963   2.618   3.036  15.545  0.2431 -0.0030  0.0990
21780W        W37964  12.122   5.089   2.081 -0.0214  0.1249 -0.3528
21781W        W37965   0.051  11.194  12.742  0.0089  0.2295 -0.1642
21782W        W37966   8.584   4.724  13.231  0.1573 -0.1057  0.2880
21783W        W37967   4.423  12.587  11.918  0.1361 -0.2729  0.1275
21784W        W37968   8.204  10.095  14.679  0.2724  0.0239  0.2523
21785W        W37969  13.401  12.024   4.325 -0.1914  0.2125 -0.1015
21786W        W37970   4.221  15.446   1.103 -0.3110 -0.2143 -0.0341
21787W        W37971   2.473  11.706   1.694 -0.2342 -0.1322 -0.3942
21788W        W37972   4.316  13.847   2.791 -0.1578  0.0920  0.0500
21789W        W37973   4.993  17.843  15.967 -0.2135  0.2120  0.2678
21790W        W37974  11.141   9.390   3.182 -0.0933 -0.2013  0.2102
21791W        W37975   3.772  10.519   0.935  0.3247 -0.0974 -0.1410
21792W        W37976  15.869  11.845  11.816 -0.0256  0.0496 -0.1729
21793W        W37977   2.016   6.274  16.076 -0.2594  0.6356 -0.1990
21794W        W37978  16.770  11.481  11.845 -0.1815  0.0755 -0.1427
21795W        W37979  12.731   6.053  14.098 -0.2175 -0.0197 -0.2287
21796W        W37980   0.834  10.116   1.979  0.0616 -0.0130  0.1006
21797W        W37981   9.332   5.034  14.558 -0.2710  0.0735 -0.0614
21798W        W37982  15.619  14.084   3.197 -0.1600  0.1983  0.1199
21799W        W37983   7.028  13.856   5.249  0.1247 -0.0475 -0.2312
21800W        W37984   7.717  16.140  14.676  0.2224  0.1285  0.1153
21801W        W37985  17.996   6.663   5.705  0.2014 -0.3010 -0.2608
21802W        W37986   1.633   8.988   6.061  0.1171  0.0440 -0.1194
21803W        W37987   2.749   1.606  15.276  0.0750 -0.2300  0.1981
21804W        W37988   9.457   7.422  16.440  0.2840  0.3504  0.2462
21805W        W37989   9.106  16.252  11.674 -0.2965 -0.0075 -0.0298
21806W        W37990   8.116   7.484  12.757 -0.0741  0.0380 -0.1185
21807W        W37991   7.348  12.172   5.914  0.1540  0.2655 -0.2224
21808W        W37992   0.037   4.988   1.160 -0.0830  0.0516 -0.1649
21809W        W37993   0.150  17.676   5.846  0.1745  0.0921  0.1445
21810W        W37994  12.919   5.200  12.909  0.1766 -0.1560  0.0467
21811W        W37995  17.832  16.874   5.467 -0.3386  0.2456  0.2648
21812W        W37996   6.878  16.558   2.111 -0.0386  0.2020 -0.2056
21813W        W37997   6.115  12.656  15.632 -0.1804  0.1618 -0.1976
21814W        W37998  10.902  17.250  15.291  0.0376  0.0371 -0.0119
21815W        W37999   7.728   5.017  14.585 -0.0979  0.1945 -0.1799
21816W        W38000  15.330  16.433   0.851 -0.3011  0.0672  0.2311
21817W        W38001  11.542  13.607  14.087  0.2307  0.0025 -0.1678
21818W        W38002   7.978   8.303   5.657  0.2673 -0.0158 -0.0406
21819W        W38003   1.680  16.491   0.696 -0.1938  0.0514  0.0173
21820W        W38004  16.623   9.094  14.442 -0.1988 -0.0541 -0.1331
21821W        W38005  17.682   7.073   4.577  0.3635  0.1309  0.2909
21822W        W38006  11.416   8.544  12.999 -0.0889 -0.1758 -0.2031
21823W        W38007   0.966   4.127  14.978 -0.1694 -0.2783 -0.1916
21824W        W38008   5.042  13.008  14.454  0.2300 -0.0171  0.1803
21825W        W38009  17.162   8.994  12.266 -0.4303  0.1335  0.3302
21826W        W38010  10.414  10.599   0.323 -0.0688  0.1795 -0.0920
21827W        W38011   1.974  13.379   0.443 -0.1734 -0.0262  0.3140
21828W        W38012   8.684  13.779  12.994 -0.0990 -0.0580 -0.2538
21829W        W38013  10.924   1.906   2.456 -0.2227  0.2212 -0.0182
21830W        W38014  10.107  10.286  15.583  0.2643 -0.1581 -0.2301
21831W        W38015   6.734   0.816  15.087  0.2853 -0.1539  0.0621
21832W        W38016   5.649  13.833  11.706  0.0967  0.6005  0.0925
21833W        W38017  15.078  13.324  14.662  0.3581 -0.1812  0.0265
21834W        W38018  16.232  17.087  15.136 -0.0243 -0.1725 -0.2256
21835W        W38019   1.225  10.794  10.389  0.3032  0.4387  0.1967
21836W        W38020  14.607  14.783   3.230 -0.1158  0.0805 -0.0900
21837W        W38021  16.694  12.747  15.029 -0.1865  0.0813  0.0531
21838W        W38022   3.826  13.871   0.295 -0.1674  0.0193  0.2426
21839W        W38023   9.831   2.967   0.481 -0.0461 -0.1658 -0.0305
21840W        W38024  15.329   2.681   5.003  0.0959  0.1590 -0.1750
21841W        W38025  12.715  16.074  14.636 -0.2244 -0.4040 -0.1313
21842W        W38026  14.713  13.526  15.212  0.2423 -0.0693  0.0670
21843W        W38027   9.061  17.885   3.139 -0.2438  0.1767 -0.2617
21844W        W38028   4.618   2.217  12.511 -0.2167 -0.0202 -0.0968
21845W        W38029   6.244  16.121   4.825  0.0623  0.2914 -0.1359
21846W        W38030  13.090  11.639   4.445  0.0995  0.0798  0.0959
21847W        W38031  14.724  12.594  14.997 -0.0023 -0.1317 -0.1850
21848W        W38032  17.762  15.675   4.955  0.0232  0.2491 -0.0767
21849W        W38033   0.851   5.070   0.792  0.0220  0.4817 -0.1504
21850W        W38034   0.708   5.474   4.406  0.1155  0.1590 -0.0871
21851W        W38035   8.247  10.332  13.078 -0.1522  0.0547  0.1407
21852W        W38036  15.133  15.167   0.727  0.0668  0.2134  0.3259
21853W        W38037   9.300  12.891  15.425  0.1510  0.1893 -0.1361
21854W        W38038   4.409   0.541   2.995  0.0514 -0.2779  0.0961
21855W        W38039   1.084  17.446  13.630  0.2592  0.0913  0.0921
21856W        W38040  14.404  14.352  14.307  0.1246 -0.3210  0.0777
21857W        W38041  16.865   5.874   3.853 -0.1299 -0.0003 -0.3919
21858W        W38042  11.440  15.050  15.044 -0.1968  0.0035 -0.2163
21859W        W38043   4.099   3.813   0.453  0.2815  0.1736 -0.0423
21860W        W38044   3.625  12.356  15.438  0.1730 -0.1545  0.3229
21861W        W38045  14.855   2.051  13.395  0.0451  0.3358  0.4172
21862W        W38046   3.492   4.842  15.975 -0.1152 -0.3347 -0.1035
21863W        W38047  17.885   5.800   5.548  0.3668 -0.3371  0.1409
21864W        W38048   7.441   3.787   3.787  0.0698 -0.2971 -0.0095
21865W        W38049  17.773  16.806  14.491 -0.0183  0.2335 -0.2310
21866W        W38050  16.608   9.605   3.759  0.0629 -0.0644 -0.2940
21867W        W38051  12.113  15.257   2.688  0.4812 -0.0206 -0.2447
21868W        W38052  15.657   1.650   1.890 -0.0506 -0.0804  0.1962
21869W        W38053   3.606  15.311  12.668 -0.0595 -0.0142  0.1128
21870W        W38054  11.860   3.762  14.735 -0.1864 -0.1670 -0.0515
21871W        W38055  16.163  12.753   3.126 -0.0160  0.1145  0.0232
21872W        W38056  11.270  14.128  15.659  0.1355 -0.1562  0.1323
21873W        W38057   5.110  11.515  16.338  0.1261 -0.0363 -0.2032
21874W        W38058   0.629   6.672  15.665 -0.2935 -0.0061 -0.0529
21875W        W38059   1.505   5.717  14.442  0.0880  0.0802  0.0313
21876W        W38060  10.970  12.871   4.778  0.0471 -0.2041  0.1412
21877W        W38061   3.758   3.210   4.147  0.1085 -0.1137  0.0194
21878W        W38062  16.214   5.894   1.240 -0.0093  0.1662 -0.0758
21879W        W38063  14.568   2.228   0.815  0.2889  0.0050 -0.0070
21880W        W38064  16.264   7.334   2.464  0.2487 -0.1305 -0.0813
21881W        W38065   1.711  15.279  15.012 -0.1543 -0.3296 -0.0257
21882W        W38066  12.746   7.037  14.643  0.4469  0.0893 -0.1945
21883W        W38067   2.406   7.907  12.135  0.3591 -0.1980  0.0450
21884W        W38068  14.249  11.085   4.656 -0.4452  0.0462 -0.0727
21885W        W38069  13.146  12.573   0.702 -0.1223 -0.1171 -0.2428
21886W        W38070   3.493   3.096  16.032  0.1070  0.0039  0.0674
21887W        W38071   9.803  13.016   6.046  0.4416 -0.0586 -0.0911
21888W        W38072  17.605   8.085   2.957  0.1054  0.4554 -0.0981
21889W        W38073  16.657   3.795   3.252 -0.0505 -0.0067  0.2545
21890W        W38074  16.612  14.976  16.013  0.2549  0.3000  0.2154
21891W        W38075  14.083   5.702   2.117 -0.0492 -0.4139 -0.2062
21892W        W38076   2.766  17.689   2.868  0.1062  0.0810 -0.1739
21893W        W38077  13.831   7.416  16.663  0.1668  0.0145 -0.0312
21894W        W38078  17.956  15.635  16.330  0.0031 -0.0242 -0.0451
21895W        W38079  16.467   9.355  15.781 -0.3754 -0.0910 -0.0755
21896W        W38080   3.506  11.740  11.683 -0.2945  0.3678 -0.0339
21897W        W38081  17.437  16.099   2.037  0.0053  0.0876  0.4799
21898W        W38082  13.261   1.824  14.841 -0.2244 -0.1480 -0.0662
21899W        W38083   6.412   0.214  15.881 -0.2609  0.0594  0.1366
21900W        W38084   6.827  14.154  15.907 -0.0952 -0.1801 -0.2244
21901W        W38085   2.313  12.664   4.849  0.0796  0.2399  0.0959
21902W        W38086   1.479  17.762  14.556  0.1406  0.0155  0.0267
21903W        W38087   5.583  10.943  15.832 -0.1546 -0.2237 -0.0189
21904W        W38088  15.566   3.464   0.565  0.2000 -0.3029 -0.1459
21905W        W38089  15.308   7.260  16.485 -0.0413 -0.3197  0.1200
21906W        W38090   3.550  14.464   2.948  0.2602 -0.0290  0.0811
21907W        W38091  11.854   3.886  12.447 -0.1983  0.0655 -0.2853
21908W        W38092  17.575   5.364  14.863 -0.0650 -0.0192  0.3765
21909W        W38093  12.696   1.084   5.791 -0.4273 -0.0705  0.0759
21910W        W38094   8.911   1.327  12.900  0.4733 -0.0572 -0.0465
21911W        W38095  14.756   2.634  12.278  0.0390  0.2058 -0.0288
21912W        W38096   3.679   1.684   4.034  0.1364  0.2729 -0.1817
21913W        W38097  12.457   9.275   3.989 -0.2390  0.0670 -0.0763
21914W        W38098   8.915   5.212   5.846  0.0806  0.0789  0.1274
21915W        W38099   5.358  16.456   0.968  0.2520  0.0926  0.1386
21916W        W38100   1.874   0.593  15.748 -0.3340  0.1417  0.0775
21917W        W38101  11.950   2.358   4.513  0.1203  0.1087 -0.3348
21918W        W38102  11.920   9.154  13.731 -0.1573  0.1058 -0.0241
21919W        W38103  15.952   1.478  10.946  0.0379  0.0498  0.1292
21920W        W38104  12.899   1.509   4.942  0.0318  0.2345  0.1083
21921W        W38105   3.831   6.098   3.286  0.1667 -0.0059 -0.1493
21922W        W38106   2.434  16.986   2.356 -0.2078 -0.3589  0.0786
21923W        W38107   8.708   9.865   4.425 -0.1186 -0.0430 -0.1835
21924W        W38108  14.829   8.080  15.798  0.0258  0.0410  0.4301
21925W        W38109  14.622  17.543  15.635  0.0341 -0.3721  0.1888
21926W        W38110   5.730   3.706  16.051 -0.0586  0.1236  0.2741
21927W        W38111   2.797   2.185   5.582 -0.0258  0.1119 -0.0946
21928W        W38112  15.832   8.523  11.097  0.1015 -0.1916  0.2155
21929W        W38113   3.620   9.894  15.643  0.0964  0.1008 -0.0889
21930W        W38114  13.798   8.554  11.961 -0.0533 -0.0881  0.4997
21931W        W38115   3.939   1.923  13.015 -0.0449  0.0390  0.0838
21932W        W38116   0.179   0.407  16.326  0.0877 -0.0948  0.0705
21933W        W38117  13.477  10.308  15.380  0.4109 -0.0132  0.0286
21934W        W38118   7.426  10.572  11.863 -0.0997 -0.0498 -0.2369
21935W        W38119   0.466  14.569   3.129  0.1590  0.2899  0.0028
21936W        W38120   6.777   7.257  12.905 -0.5285 -0.1843  0.2865
21937W        W38121   1.613  16.676   4.256 -0.1836  0.0538 -0.1532
21938W        W38122  17.860  15.732  13.404  0.0914 -0.0056 -0.1966
21939W        W38123   5.042  16.893  16.122  0.2285 -0.0660 -0.0488
21940W        W38124  16.693   0.076  12.102  0.0430  0.0103 -0.0404
21941W        W38125  15.094  17.131   2.620  0.2176 -0.0788  0.0365
21942W        W38126   3.118   1.664  16.099 -0.2037  0.1827 -0.2076
21943W        W38127  17.054   4.054  15.784  0.1598 -0.1035  0.0940
21944W        W38128   9.988   7.517  14.820  0.1316 -0.0281 -0.0494
21945W        W38129  13.412   2.039  13.333  0.2337  0.2203 -0.2089
21946W        W38130   2.932  17.558   5.082  0.1762  0.0360 -0.0369
21947W        W38131  14.743  13.448   1.728  0.0736 -0.2651 -0.2232
21948W        W38132  15.628   1.826   5.685  0.3087  0.3188 -0.0215
21949W        W38133   0.470   2.630  12.539 -0.4069  0.0261  0.0829
21950W        W38134  15.739   1.426  12.851 -0.0930  0.1204  0.2191
21951W        W38135   4.173  16.896   1.942 -0.0166 -0.0011 -0.0026
21952W        W38136  11.298  12.983   3.334 -0.4080  0.2000 -0.2153
21953W        W38137   2.884   2.057  13.476 -0.1001 -0.0014  0.0467
21954W        W38138  13.948  15.446   3.996 -0.1070 -0.0956 -0.0640
21955W        W38139   0.201  17.973   0.376  0.1609 -0.0610 -0.1702
21956W        W38140  16.128   1.064  16.066  0.1397  0.4094 -0.0593
21957W        W38141   3.687  17.143  16.129  0.2464 -0.0076 -0.0556
21958W        W38142   3.210   7.962  14.715 -0.1961  0.0722  0.1222
21959W        W38143   7.745   9.441   1.485  0.2388  0.1036 -0.0640
21960W        W38144  15.591  11.544   2.090  0.5452  0.2943  0.2269
21961W        W38145  11.283   4.115   0.932  0.1033 -0.0099  0.1507
21962W        W38146   7.755  17.216  13.938  0.0351  0.3071  0.1288
21963W        W38147  14.360   2.940  12.429 -0.0675  0.0482 -0.0071
21964W        W38148   4.667   1.171  11.101 -0.2270  0.1078 -0.2941
21965W        W38149   4.030   2.227   1.246  0.0163 -0.2772 -0.0903
21966W        W38150   4.964  10.279  13.533  0.0474  0.1540 -0.1730
21967W        W38151   8.472   2.287  14.457  0.1414  0.0190 -0.2619
21968W        W38152   0.967  11.302   4.260 -0.2899 -0.0567 -0.1587
21969W        W38153  16.810   8.576  15.134  0.3108  0.3446  0.0084
21970W        W38154   0.348  15.559   0.207 -0.2282 -0.2758  0.0213
21971W        W38155  13.429   7.054   1.048  0.2967  0.1829 -0.1141
21972W        W38156   2.219  10.318  13.162 -0.0205  0.0141 -0.0569
21973W        W38157  15.721   2.751   3.731  0.2416 -0.0551 -0.0025
21974W        W38158   3.335   2.580  15.991  0.2068 -0.0634 -0.1684
21975W        W38159  16.787   2.818   6.331 -0.3731  0.2313 -0.1499
21976W        W38160   7.477   0.414  12.711  0.1560 -0.0107  0.1626
21977W        W38161  17.262   4.133  13.461  0.1510 -0.0188  0.6210
21978W        W38162  14.516  10.138   4.315 -0.1494  0.0945 -0.0757
21979W        W38163  14.887   0.861   0.360 -0.1107  0.2922 -0.0892
21980W        W38164  17.267  13.108   3.104 -0.0068 -0.1772  0.1730
21981W        W38165  15.968  16.766   0.473 -0.1056 -0.3581  0.2967
21982W        W38166  14.556  13.597  14.696  0.0015 -0.0646  0.4510
21983W        W38167  11.358  14.384  16.498 -0.2915 -0.3080  0.1143
21984W        W38168   1.704   5.084  11.907  0.1248  0.1650 -0.2818
21985W        W38169  15.926   5.161  12.296 -0.0122  0.0074 -0.0238
21986W        W38170   6.597  10.876   0.239 -0.3019 -0.0381 -0.0261
21987W        W38171  15.043   6.281  12.701 -0.0968  0.4746  0.1667
21988W        W38172   2.491  13.296  11.394 -0.1639 -0.4040 -0.2389
21989W        W38173   9.110  16.769   3.696  0.3700  0.2364  0.1155
21990W        W38174  12.855   2.417   4.704  0.0578  0.3242  0.2633
21991W        W38175  11.455  11.984  14.801 -0.1479 -0.1863  0.3455
21992W        W38176   6.253   4.740   4.477  0.0771  0.1434  0.0919
21993W        W38177   3.572  10.645   1.927 -0.1598 -0.1490 -0.1740
21994W        W38178   7.444   6.496  14.105  0.0215 -0.3778 -0.0041
21995W        W38179   1.175   8.206   3.912  0.2783 -0.0708  0.1083
21996W        W38180  16.158  15.174  16.021 -0.3656  0.0280  0.2135
21997W        W38181   6.826   4.465  14.785 -0.2602  0.3568 -0.2027
21998W        W38182  11.208  17.729  14.143  0.1340 -0.2137  0.0462
21999W        W38183   4.509   5.271   1.451 -0.1401  0.1682  0.2059
22000W        W38184   0.764  12.389  15.859  0.1851  0.2098  0.0639
22001W        W38185   0.025  15.016   1.596 -0.0235  0.1738  0.1035
22002W        W38186  11.577  14.841  13.516  0.0156 -0.1067  0.0752
22003W        W38187   5.840   1.806  13.407 -0.2795 -0.0627 -0.2427
22004W        W38188   8.441  13.725   0.543  0.1310  0.0612 -0.1631
22005W        W38189   6.791   8.783  12.944 -0.0393  0.1636  0.0610
22006W        W38190   7.452   8.561   0.629 -0.0020  0.0845  0.0675
22007W        W38191  12.220   2.772   3.154  0.1042 -0.1927 -0.1334
22008W        W38192  13.227  13.622   0.618  0.1000  0.2644 -0.1162
22009W        W38193  10.433  17.238   4.968  0.0035 -0.2477 -0.1006
22010W        W38194   2.831  14.453   0.937  0.0564  0.2267  0.0361
22011W        W38195  14.103  16.749   4.331  0.1722 -0.0189 -0.3324
22012W        W38196   4.531  12.425   4.401 -0.1046  0.0788  0.0468
22013W        W38197   7.019   3.953  15.464  0.1686 -0.0348 -0.0547
22014W        W38198  12.556   6.483   5.588 -0.2783  0.0600  0.1836
22015W        W38199   3.334   4.343  15.835 -0.2755  0.1197  0.1553
22016W        W38200  16.854   0.953  13.086  0.0256  0.0261  0.0228
22017W        W38201  16.547  10.515   0.606 -0.0524 -0.0161  0.0155
22018W        W38202   0.393   8.928  12.356  0.1125 -0.1869 -0.0394
22019W        W38203   5.984  14.676  11.798  0.2812 -0.1397 -0.0011
22020W        W38204   4.759   7.509  13.064  0.0024  0.0550  0.0416
22021W        W38205   1.158  17.779   3.494 -0.0296 -0.1022  0.0825
22022W        W38206  12.612   0.582  15.854 -0.2935  0.2538 -0.1805
22023W        W38207  12.585  17.319   1.616  0.1464  0.2214 -0.0736
22024W        W38208  16.825  17.591   3.349 -0.2787  0.0724 -0.2988
22025W        W38209   7.751   7.271   0.023  0.0367 -0.1649 -0.1854
22026W        W38210  10.793   1.719  15.097  0.0382 -0.2362 -0.1916
22027W        W38211  11.849   0.993   1.367  0.2911 -0.0262  0.0529
22028W        W38212  17.915  10.736  11.733  0.0105 -0.2620  0.1646
22029W        W38213   6.865  15.212   2.092 -0.0079  0.1092 -0.0617
22030W        W38214  10.088   8.887   4.862  0.0363  0.0318  0.2631
22031W        W38215   1.195   2.815   5.066 -0.0851  0.0842  0.0552
22032W        W38216   4.909  10.864  12.656  0.0392 -0.4698 -0.0589
22033W        W38217   0.089  17.772   1.311 -0.2295 -0.2115 -0.0391
22034W        W38218   4.507  14.156   4.527  0.3931  0.0443 -0.0421
22035W        W38219   0.398   0.043   5.609  0.1006  0.1687  0.0531
22036W        W38220   4.890   8.642  12.947  0.0735 -0.0369 -0.0373
22037W        W38221   7.058  12.499  11.828  0.2098  0.1190  0.1394
22038W        W38222   1.935   3.802   5.777  0.2428 -0.1877 -0.2035
22039W        W38223   4.090  16.946  14.017 -0.2081  0.1150 -0.1217
22040W        W38224  15.800  16.258   3.059  0.0267  0.0658 -0.1013
22041W        W38225   7.332  14.896  12.139 -0.0701 -0.0407  0.1660
22042W        W38226   9.087   8.285  11.380  0.2880 -0.0944  0.3132
22043W        W38227  10.682   8.021  13.346 -0.2026 -0.0946 -0.0577
22044W        W38228   4.503   4.148   4.720  0.0137  0.3545 -0.1400
22045W        W38229   4.429   5.980  15.854  0.1293  0.1593 -0.1952
22046W        W38230   8.434  16.795  11.184 -0.3559  0.1023 -0.1642
22047W        W38231   7.803   2.133  15.687 -0.0435 -0.1020 -0.0297
22048W        W38232   0.466   8.146  12.403 -0.0217  0.1865  0.2779
22049W        W38233  12.863  15.901  14.152  0.3923 -0.0056  0.1508
22050W        W38234   2.089   9.929   2.564 -0.1774 -0.0879 -0.1031
22051W        W38235  17.385  14.228  15.459  0.1288  0.1195 -0.0071
22052W        W38236  14.181   4.647   3.207 -0.0152  0.2290 -0.0347
22053W        W38237   8.367   7.775  13.076 -0.0719 -0.1712  0.1587
22054W        W38238   3.740   3.680  16.457 -0.2281  0.1829 -0.3484
22055W        W38239   4.526  17.843   1.431  0.0144  0.0109  0.1543
22056W        W38240  11.832  16.640   0.945  0.0504 -0.0996 -0.2152
22057W        W38241   8.589  12.126   0.141  0.1616 -0.0616  0.3144
22058W        W38242   9.119  12.864   0.360 -0.0581  0.3202 -0.0478
22059W        W38243   5.031   1.435   1.589  0.0324 -0.0366 -0.3526
22060W        W38244   8.424   0.352   5.027  0.2161  0.1270 -0.2709
22061W        W38245  13.037   0.612  14.124  0.0304 -0.0654 -0.0662
22062W        W38246   4.171   5.004  15.221 -0.1328  0.0966  0.3221
22063W        W38247  17.206   9.216   3.723 -0.1938 -0.0948 -0.1495
22064W        W38248  10.991   6.233  14.332 -0.1429  0.0626  0.2916
22065W        W38249  13.555  10.416  12.449  0.1684  0.0732  0.0931
22066W        W38250   9.879   7.514   0.459 -0.0590 -0.3102 -0.1742
22067W        W38251  15.736   3.349   2.001  0.2532  0.2356 -0.0580
22068W        W38252   2.583   5.326  14.504 -0.3592  0.1239  0.0892
22069W        W38253   4.028   0.990   0.104 -0.2451  0.0670 -0.2541
22070W        W38254  16.655   7.131  14.642 -0.1740 -0.0778 -0.2178
22071W        W38255   2.069   1.186   2.017 -0.0007  0.1562  0.2668
22072W        W38256  17.077  12.417  11.547 -0.0352  0.0967  0.0145
22073W        W38257   0.351   8.438   4.014  0.1850 -0.0934 -0.0302
22074W        W38258   5.883   4.188  16.054  0.1780  0.2035 -0.0601
22075W        W38259   0.722  11.583  12.292 -0.1503  0.0293  0.3006
22076W        W38260  12.636  14.351   4.858 -0.0755  0.0532 -0.0174
22077W        W38261  11.130  15.552   2.848  0.0083 -0.0750  0.0886
22078W        W38262  14.159   3.412   5.618  0.0679  0.0349  0.2486
22079W        W38263  17.074  15.715  16.380 -0.0959  0.1159 -0.1583
22080W        W38264   7.781  10.493   5.095 -0.1644 -0.1003  0.0094
22081W        W38265   1.587  15.558   0.142 -0.0443 -0.0220 -0.0948
22082W        W38266  10.874  11.960   1.120  0.0101 -0.2370  0.1168
22083W        W38267  11.205  10.186   1.415  0.0783  0.0816  0.2147
22084W        W38268  17.916  17.579  12.835 -0.0212  0.2214 -0.0708
22085W        W38269   0.000  13.625  11.892 -0.2526  0.0094 -0.3818
22086W        W38270   5.760   8.635   3.807  0.1918 -0.1768 -0.1510
22087W        W38271  12.190   3.635   2.541  0.0592  0.0669 -0.0114
22088W        W38272   3.092   4.607  16.220  0.0996  0.3643  0.0637
22089W        W38273   0.561  17.462   4.907 -0.0078  0.0142  0.0672
22090W        W38274  12.432   2.477  16.609 -0.1947  0.0163 -0.1143
22091W        W38275  10.570  13.988   4.063  0.1601  0.2166 -0.1017
22092W        W38276   7.160   9.809  11.949  0.2450  0.0720 -0.4710
22093W        W38277   3.051   1.058  16.320 -0.0236  0.1777 -0.1224
22094W        W38278  16.879   6.183   2.110 -0.0198  0.0548  0.2839
22095W        W38279  10.844   0.032  14.522 -0.3380  0.0325 -0.2592
22096W        W38280   5.316   2.378  16.469  0.1728  0.1094  0.0991
22097W        W38281  17.779  17.568   5.422  0.4122 -0.0449 -0.0394
22098W        W38282  16.117   1.805   0.563  0.0258 -0.2547 -0.4937
22099W        W38283  12.413   0.333   2.565 -0.0335  0.3478 -0.0911
22100W        W38284   2.932  13.349  14.089 -0.0601  0.0988 -0.0159
22101W        W38285   6.019  11.692   0.057  0.0006  0.1307  0.1953
22102W        W38286  16.524   5.951   3.341  0.2068  0.1905  0.0189
22103W        W38287   4.644  12.397   0.922  0.0797  0.0873  0.0258
22104W        W38288  10.482  14.556  15.253  0.1114 -0.2182  0.0105
22105W        W38289   3.990   2.341  11.775 -0.0203  0.1178  0.0844
22106W        W38290  11.103   7.837  14.594  0.2674  0.0531  0.3216
22107W        W38291   0.657   4.536  15.355  0.1672  0.0009 -0.1206
22108W        W38292  10.973  11.568  13.416 -0.1293 -0.3049 -0.0067
22109W        W38293   2.448   4.400  13.507 -0.4406 -0.1427  0.0457
22110W        W38294   0.163   0.764   0.502 -0.0519 -0.2922  0.0777
22111W        W38295  14.735  11.779   3.841  0.1779 -0.2372 -0.3242
22112W        W38296  15.811  14.980  11.499  0.0259  0.0413 -0.0350
22113W        W38297   9.576   8.468  13.228 -0.4547 -0.2359 -0.0254
22114W        W38298  10.451   1.915   5.925  0.0620 -0.1499 -0.1555
22115W        W38299  13.453  16.247  11.909  0.1395 -0.2727 -0.0088
22116W        W38300   2.015  10.773  13.392  0.0027  0.0707 -0.1498
22117W        W38301   6.203   3.395  16.122  0.3667 -0.1990  0.0546
22118W        W38302   8.768  13.230  15.319  0.0128  0.0408  0.1894
22119W        W38303   6.567   2.542   3.789 -0.1314 -0.0346 -0.3390
22120W        W38304  10.558   7.728   4.937 -0.0026  0.0693 -0.1071
22121W        W38305   7.222   2.283  16.671 -0.1304 -0.1803 -0.1400
22122W        W38306   4.354  14.355  12.318  0.3442 -0.2430  0.1280
22123W        W38307  10.342   6.376  12.514  0.2205 -0.0423 -0.0183
22124W        W38308   8.293  16.850   2.339 -0.3630  0.1859  0.1214
22125W        W38309  11.606  15.669   1.993 -0.0508  0.3143 -0.0357
22126W        W38310   4.497  17.477  14.172  0.2184 -0.1110  0.0563
22127W        W38311  17.888   5.128  15.833  0.1991 -0.2765 -0.1061
22128W        W38312   9.900  11.212  12.519 -0.0477 -0.2010  0.0990
22129W        W38313  16.161  10.198  14.925 -0.0779 -0.0591  0.1013
22130W        W38314   3.172  10.809  16.638  0.3383  0.0588 -0.1217
22131W        W38315  15.057  16.437  15.153 -0.0584  0.5762 -0.2058
22132W        W38316   9.624   8.145   5.774 -0.3412  0.1617 -0.4223
22133W        W38317   9.511  12.042   1.302 -0.0594  0.0237  0.1598
22134W        W38318   5.394   3.462   2.511 -0.1649  0.1557 -0.0594
22135W        W38319   2.274   1.066   3.606 -0.4056 -0.1048  0.0347
22136W        W38320   7.567  15.193   5.233 -0.1124  0.1940 -0.3026
22137W        W38321  16.971  10.619   2.778 -0.1566 -0.4869 -0.1370
22138W        W38322   8.531  17.205  13.964 -0.2376  0.0697  0.1331
22139W        W38323  14.278   5.517   4.366 -0.1701 -0.1973  0.4183
22140W        W38324  12.555  15.068  11.741  0.0337 -0.0571  0.2143
22141W        W38325   3.905  14.955   1.802 -0.1359 -0.2494 -0.1198
22142W        W38326   4.775  12.749  12.685 -0.0250 -0.1514  0.1982
22143W        W38327   6.412   2.378  15.104 -0.0441  0.1690  0.1365
22144W        W38328   9.065   6.020  13.187 -0.2761  0.0192 -0.1649
22145W        W38329   9.590  17.150   0.915  0.0723 -0.0031  0.0617
22146W        W38330   8.252  13.031   3.892 -0.2945 -0.0774  0.1559
22147W        W38331  17.692  11.263  15.113  0.1524  0.1150  0.1057
22148W        W38332   9.680   8.533   4.807  0.1435 -0.2129 -0.3454
22149W        W38333  17.719   2.990   4.490  0.0527 -0.2440  0.2636
22150W        W38334   0.883   6.951  14.121  0.1318  0.3137 -0.3859
22151W        W38335   0.622   4.750  13.613  0.1345  0.0833  0.0811
22152W        W38336   1.794  11.437   5.492  0.2135  0.1221  0.1374
22153W        W38337  12.573  10.735   1.852 -0.0315 -0.1618 -0.1403
22154W        W38338  14.870   0.205  13.929  0.0579 -0.1316  0.3072
22155W        W38339  10.671  11.072   3.941 -0.3002 -0.1311 -0.2763
22156W        W38340  16.841   1.868   4.010 -0.0520  0.1221 -0.3820
22157W        W38341   0.740  15.227  13.742  0.1194 -0.0362 -0.3333
22158W        W38342  16.751   7.469   0.561 -0.2979  0.1446 -0.0941
22159W        W38343   1.336   6.037   0.493  0.1011 -0.1664 -0.0114
22160W        W38344   9.761  14.146  12.633 -0.3131  0.2420  0.3802
22161W        W38345   1.766   9.124  12.516 -0.0655 -0.0539 -0.3187
22162W        W38346   3.534  17.829  11.290  0.0808 -0.1686  0.3006
22163W        W38347  16.436   5.068  13.649  0.1690 -0.1188 -0.2324
22164W        W38348  11.649   5.271  15.587  0.0548  0.1160  0.0782
22165W        W38349   6.843  11.708  16.186 -0.1853 -0.1332 -0.0213
22166W        W38350  13.710   7.208  12.396  0.0273  0.0357  0.1923
22167W        W38351   1.046  12.908  12.228  0.0610 -0.1235  0.1988
22168W        W38352   1.038   9.774   4.036  0.1631  0.0002  0.1106
22169W        W38353   0.709   8.548  12.549 -0.2120 -0.1133 -0.0391
22170W        W38354  14.066   3.510  11.434  0.1280  0.1094 -0.1463
22171W        W38355  14.200   6.209  14.476 -0.1951 -0.1097 -0.1021
22172W        W38356   0.879   0.818  15.361  0.1958  0.2549  0.2047
22173W        W38357  15.929   1.912   4.041  0.1156  0.0558 -0.3613
22174W        W38358  11.419   8.796  16.365  0.0320  0.2231 -0.1568
22175W        W38359  15.113  11.202   4.961 -0.0694  0.2921  0.1190
22176W        W38360  12.651  13.761   2.063 -0.4309  0.0429  0.1336
22177W        W38361   0.475  12.190   4.482 -0.4035  0.2621  0.1142
22178W        W38362   7.678  14.573  12.083 -0.0229  0.3471  0.1780
22179W        W38363  13.919   5.204   4.128  0.4883  0.0548 -0.3304
22180W        W38364  16.738  12.338   0.784  0.2452 -0.0134 -0.0298
22181W        W38365  11.925  16.299   0.530  0.1849 -0.1058  0.0293
22182W        W38366  12.343  14.942   1.831 -0.0750  0.0649 -0.0463
22183W        W38367   0.662  17.696   0.568 -0.3122  0.0929 -0.0976
22184W        W38368   9.086   3.055   4.118 -0.0876 -0.2574 -0.0184
22185W        W38369   0.487  14.976  12.297  0.5179 -0.0436 -0.3477
22186W        W38370  11.048   1.959   0.194 -0.1952  0.4252 -0.2351
22187W        W38371  11.473  16.011   2.753 -0.2853 -0.3334 -0.0112
22188W        W38372  13.006   6.325  12.295  0.2810  0.1404 -0.0592
22189W        W38373  14.675   6.676   5.451  0.3923 -0.3197 -0.0661
22190W        W38374   7.037  12.633   4.826 -0.1028 -0.0561 -0.0090
22191W        W38375   8.528  13.846  15.504  0.0164  0.0550  0.0494
22192W        W38376  13.204  15.049   0.647 -0.1667 -0.0790  0.0375
22193W        W38377   3.599  17.547  14.745 -0.0455 -0.0202 -0.1320
22194W        W38378   1.673   2.116  14.587 -0.0447  0.2139 -0.2763
22195W        W38379   5.533  10.127   3.461  0.1489  0.0922  0.1273
22196W        W38380  12.616  11.211  16.224  0.2347  0.0514 -0.1301
22197W        W38381  11.188   8.545   5.093  0.1404  0.1255 -0.0320
22198W        W38382   2.747   6.836   0.315  0.0632  0.1919  0.2041
22199W        W38383   8.654  14.327  13.185 -0.0509  0.1931 -0.0435
22200W        W38384   8.753   5.394   0.599  0.1163 -0.3843 -0.1284
22201W        W38385   4.429   6.585  13.113 -0.1541 -0.2828 -0.3018
22202W        W38386  11.833  10.436  14.517  0.1854 -0.0674  0.2273
22203W        W38387  10.063   6.081  13.217  0.2444  0.2443  0.1769
22204W        W38388   1.669   3.588  13.217  0.2409  0.1509  0.0324
22205W        W38389   3.565   0.209  12.236  0.0295  0.1011 -0.0891
22206W        W38390  11.696   5.438  16.329  0.1617  0.2041 -0.1175
22207W        W38391   4.441   0.682  14.626 -0.2403 -0.2198 -0.2297
22208W        W38392   8.971   7.396   3.738 -0.2902 -0.0716  0.1030
22209W        W38393  16.936   9.081   2.998  0.1424 -0.0417  0.0163
22210W        W38394   1.454   9.913  13.317 -0.0741  0.1194  0.0734
22211W        W38395   4.747  16.519  15.408 -0.2650  0.1081  0.1951
22212W        W38396   3.660   2.407  15.707 -0.0142  0.1215  0.0137
22213W        W38397  14.222   6.458   2.744 -0.0045  0.1737  0.0316
22214W        W38398   1.822   4.738   0.914  0.1340  0.3272  0.3291
22215W        W38399   5.792   0.013  11.735 -0.0611 -0.0735  0.2017
22216W        W38400  13.018   1.026   3.731  0.3039  0.2309 -0.0080
22217W        W38401  12.939   4.938   2.977 -0.1966  0.2622 -0.2033
22218W        W38402   4.623   0.922  13.579  0.1724  0.0581 -0.2127
22219W        W38403   8.623   3.317  14.080 -0.1370 -0.1533  0.0281
22220W        W38404   2.760   0.427  14.782  0.3578  0.2117  0.1067
22221W        W38405   1.775   1.959   4.842  0.1289 -0.2663 -0.0186
22222W        W38406  10.819   6.791  13.902 -0.2586  0.0246  0.0832
22223W        W38407   8.405  12.066  15.654 -0.0726 -0.0919  0.0103
22224W        W38408  14.951   6.630  12.197 -0.0353 -0.3949  0.1688
22225W        W38409   9.317  14.393  12.631  0.1257 -0.0807 -0.0364
22226W        W38410   6.949  10.051   0.063  0.0937 -0.0684 -0.1649
22227W        W38411   2.503   5.496   6.638 -0.1287 -0.0591 -0.2465
22228W        W38412   5.565   3.582   3.830  0.1174 -0.1098  0.0215
22229W        W38413   4.570  16.009   0.578  0.1527 -0.0285 -0.0363
22230W        W38414  13.015   3.492  14.233 -0.0763  0.0484 -0.2414
22231W        W38415   8.101   3.204   0.811 -0.2812  0.3354  0.1108
22232W        W38416  14.027   5.106   4.631 -0.0552 -0.1792 -0.1492
22233W        W38417   4.749  12.091   2.357  0.1014 -0.0753 -0.1517
22234W        W38418   1.900   9.235  11.005  0.1167  0.2840 -0.0028
22235W        W38419  10.488   7.416  11.643  0.2041 -0.0255  0.0021
22236W        W38420   1.276  14.100  15.625  0.2886  0.2900  0.3851
22237W        W38421   9.918  10.770  12.769 -0.1096 -0.2723 -0.0940
22238W        W38422  14.364  10.114   2.841 -0.3763 -0.1079  0.0474
22239W        W38423  11.636  16.194   4.034  0.2399 -0.2506 -0.1130
22240W        W38424  15.817   5.385   2.967 -0.0666  0.3188 -0.2254
22241W        W38425   2.911   4.763   1.954  0.0015 -0.2356  0.1547
22242W        W38426   6.957  14.948   4.557  0.0388 -0.0544 -0.0934
22243W        W38427   9.577  10.119  15.579 -0.0463  0.0048 -0.0758
22244W        W38428  15.976  15.137  15.576 -0.1726  0.1653  0.0592
22245W        W38429  16.821   9.327   3.401  0.1889  0.3502 -0.1670
22246W        W38430  12.593   1.398  14.703 -0.1845  0.0364 -0.0018
22247W        W38431   2.778   2.851  11.692  0.0721  0.1942  0.1600
22248W        W38432  11.159  11.694   3.332  0.0682  0.0905 -0.2492
22249W        W38433   4.333   2.410   1.970 -0.1859 -0.0279 -0.0496
22250W        W38434  17.023   5.186   1.026  0.3087  0.0414  0.0949
22251W        W38435   6.468  15.174   4.817  0.1374  0.3069 -0.0976
22252W        W38436   6.103  16.039   0.037 -0.1483  0.4087 -0.4097
22253W        W38437   1.555  14.133  11.454  0.1302 -0.2761 -0.1603
22254W        W38438   2.913  13.792   3.110  0.0456 -0.2019  0.1594
22255W        W38439  17.548  10.970   2.226 -0.0944 -0.3404 -0.1688
22256W        W38440  10.944  12.667  14.352 -0.1208 -0.1634 -0.0416
22257W        W38441   2.502   2.420   5.275 -0.3669 -0.3482 -0.1463
22258W        W38442  14.197   0.737   2.074 -0.2762  0.2010 -0.1146
22259W        W38443   0.880  17.729  16.252  0.1811  0.2160  0.3700
22260W        W38444  15.775   4.803  11.999 -0.1295 -0.0297 -0.0064
22261W        W38445  15.220  15.477  16.009 -0.1009  0.2928 -0.3214
22262W        W38446   1.992   4.147  15.205  0.1156 -0.1864  0.2426
22263W        W38447   7.601  10.587   0.748  0.1279  0.2071  0.2859
22264W        W38448  15.644   7.751  14.004  0.1500 -0.2308  0.2599
22265W        W38449  11.104  11.442  14.675  0.0471  0.4626  0.0109
22266W        W38450   9.018   7.190   5.650 -0.0100  0.2836  0.0707
22267W        W38451  15.741  11.895   5.459  0.2163  0.0663 -0.0770
22268W        W38452   6.958   0.735   4.570 -0.0931  0.2379  0.0634
22269W        W38453   1.478  16.214   6.371  0.0282  0.1931  0.0755
22270W        W38454   4.080   9.686   0.423  0.4716 -0.0428  0.0659
22271W        W38455   2.282   3.997  13.781  0.0809  0.1831 -0.1007
22272W        W38456   9.297   4.774   2.231 -0.2976 -0.2166  0.0658
22273W        W38457   2.843   1.888   2.509 -0.1427 -0.0795 -0.0748
22274W        W38458  15.029  13.771  12.161 -0.2063  0.0802 -0.2413
22275W        W38459   8.835  15.710  12.549  0.2994  0.0687 -0.4143
22276W        W38460   1.712  11.492  13.838  0.1944 -0.1281  0.1002
22277W        W38461   1.756  17.908  12.421 -0.1322 -0.1644 -0.1591
22278W        W38462   9.704  16.151  10.543 -0.1996  0.1216 -0.2257
22279W        W38463   8.886   4.329   5.275  0.1021  0.0775 -0.1160
22280W        W38464  11.647   0.893   3.570 -0.3547 -0.3090  0.2644
22281W        W38465   6.273   1.987  13.588  0.5308 -0.0869  0.0307
22282W        W38466   6.956   2.944   5.484 -0.0576  0.2220  0.3628
22283W        W38467   1.886   1.099   6.458  0.0746  0.2599 -0.1061
22284W        W38468   7.285  14.746   2.591  0.0844  0.0117 -0.0298
22285W        W38469   9.831  11.068   2.191 -0.1371  0.1608  0.1071
22286W        W38470   5.891   2.236  13.702 -0.2102  0.2487 -0.1994
22287W        W38471  15.085   0.620   4.441 -0.0384  0.1895 -0.0198
22288W        W38472   7.662   8.752   0.177  0.2156  0.0396 -0.1471
22289W        W38473  15.362   0.978   3.507  0.2434  0.1870  0.1754
22290W        W38474  16.312   7.699   3.020  0.0764 -0.0870 -0.0931
22291W        W38475   2.235   6.742  12.037 -0.0485 -0.0358  0.2410
22292W        W38476   2.280  13.569  11.746 -0.2578  0.0461 -0.1914
22293W        W38477  16.447  13.853  11.678  0.0135 -0.0435 -0.0036
22294W        W38478   6.348   5.820   2.271 -0.0766  0.1476 -0.0472
22295W        W38479  12.880   0.305   5.346 -0.1593  0.0070  0.4200
22296W        W38480   6.657  13.080   1.780 -0.2273 -0.3087 -0.0572
22297W        W38481   8.513   9.365   4.481  0.2911  0.0139  0.1611
22298W        W38482   2.951  10.309   4.187 -0.1487  0.0256 -0.1037
22299W        W38483  16.514  12.645   1.147  0.0609  0.1311  0.2659
22300W        W38484   0.849  10.697  12.437  0.0611 -0.0442 -0.1711
22301W        W38485   4.894   8.217  12.093 -0.1849 -0.1162  0.0057
22302W        W38486   1.108   9.802   2.934 -0.1073 -0.1842  0.0432
22303W        W38487   2.658  14.376  11.427  0.1841  0.0683  0.0700
22304W        W38488   3.585   6.042   1.934  0.3209 -0.0175  0.0404
22305W        W38489   7.765  10.810  15.403  0.0267 -0.0137  0.2300
22306W        W38490  15.592   0.976  12.794 -0.1678 -0.2200 -0.0644
22307W        W38491   4.330   9.587  13.462 -0.0800  0.0419  0.0426
22308W        W38492   3.780   5.204   1.720 -0.1253  0.3057  0.0788
22309W        W38493   0.052   0.432   2.369 -0.2724  0.0572  0.2303
22310W        W38494  13.345  12.608  15.283  0.1951  0.3572 -0.0179
22311W        W38495   4.348  10.922   2.711  0.0010 -0.1561  0.1688
22312W        W38496   6.522   9.276  13.016  0.1496  0.0714  0.0003
22313W        W38497  13.487   9.935  12.083 -0.0036 -0.4678 -0.0373
22314W        W38498  13.629  13.627  12.165  0.0891  0.0613  0.1953
22315W        W38499  14.970  17.430  13.793 -0.0109  0.1064 -0.0270
22316W        W38500  12.837   0.745  16.363  0.0356  0.0478  0.0001
22317W        W38501  13.959  16.604  13.851  0.1838  0.3310  0.0343
22318W        W38502  10.601   4.395   3.133  0.0589 -0.1117  0.0184
22319W        W38503   3.728  15.130  10.334  0.0564  0.0102 -0.1853
22320W        W38504   9.544   0.513   1.188 -0.0764  0.3013  0.1808
22321W        W38505   1.747   8.300   0.530 -0.2025  0.1909  0.2507
22322W        W38506   7.511   5.696   0.751  0.1641 -0.2629 -0.0701
22323W        W38507  15.839  14.348  16.222 -0.0960  0.0526 -0.2158
22324W        W38508   1.369   2.478  11.134 -0.2104 -0.0004 -0.1289
22325W        W38509  15.580  16.138   5.019 -0.1432 -0.1324  0.3038
22326W        W38510   1.091  11.313  11.737  0.3390  0.2010 -0.3560
22327W        W38511   3.459   1.775  13.228 -0.0221 -0.0462  0.3728
22328W        W38512   1.506   8.465  12.704 -0.2119  0.0939  0.0352
22329W        W38513  15.903   1.962  15.007  0.1287  0.0669 -0.1045
22330W        W38514   9.504   5.731   3.824  0.0817 -0.1204 -0.1308
22331W        W38515  12.035  17.337  13.913  0.0543 -0.1797 -0.1158
22332W        W38516   7.344   9.706   1.949  0.3251 -0.1982 -0.1234
22333W        W38517   7.436  11.217  14.619  0.0346  0.1309  0.1258
22334W        W38518   3.152  17.525  15.999 -0.0068 -0.0742  0.3276
22335W        W38519  10.019  17.601   3.322 -0.0481  0.1133  0.3530
22336W        W38520   4.170   4.111   1.273 -0.1151 -0.0573 -0.1694
22337W        W38521   0.240   3.267   3.375  0.1304  0.2766  0.0427
22338W        W38522  14.974   9.662  14.572 -0.2408 -0.3646 -0.0461
22339W        W38523   7.771  16.091   0.232  0.0894  0.0552 -0.3276
22340W        W38524  15.068  10.541   5.681 -0.4007  0.0357  0.0111
22341W        W38525  12.004  17.825  13.760  0.3256 -0.0744 -0.2637
22342W        W38526  16.180  12.306  14.186 -0.0976  0.0800 -0.3591
22343W        W38527   9.817   8.135   1.048 -0.1232  0.0074 -0.0637
22344W        W38528  16.833  17.778  16.322 -0.0428  0.4120  0.3159
22345W        W38529  14.491  12.741   1.142  0.5136 -0.0366 -0.0059
22346W        W38530  16.651   7.227  15.830  0.0438  0.1100  0.2282
22347W        W38531  14.567  15.263  14.173  0.3597 -0.2387  0.0188
22348W        W38532   4.470  14.175   5.671 -0.1453  0.4088  0.0156
22349W        W38533  10.026   7.657   2.159  0.3342  0.1608 -0.0576
22350W        W38534   6.603  12.916   1.280  0.0359 -0.0951 -0.0744
22351W        W38535  13.432   0.376  13.380 -0.2660  0.0810  0.1076
22352W        W38536   4.677   1.655  13.009  0.3618  0.0569  0.0553
22353W        W38537   0.678   7.417   1.579 -0.0512 -0.1188  0.2025
22354W        W38538  13.319   6.994   2.047  0.1032  0.0228  0.0146
22355W        W38539   2.042  11.566   0.523  0.0031  0.1082 -0.2213
22356W        W38540   8.024  17.647  11.544 -0.0754 -0.2069  0.1174
22357W        W38541   3.480  12.770  12.142  0.2386  0.2307 -0.1601
22358W        W38542  17.189  16.726  12.423 -0.0758  0.0542 -0.2577
22359W        W38543  16.168  11.947  10.475 -0.2682 -0.1192 -0.1503
22360W        W38544   2.689   7.912  15.284 -0.0658  0.0953 -0.2972
22361W        W38545   2.946  13.275  11.683  0.0914 -0.0457 -0.0817
22362W        W38546  14.844   4.089  12.352 -0.1555 -0.0213  0.4852
22363W        W38547   3.655   2.669   5.866 -0.0979 -0.2534  0.0393
22364W        W38548  14.407  12.070   4.176  0.4384 -0.1721 -0.3693
22365W        W38549   2.136  16.759   4.098 -0.2896  0.2970  0.0602
22366W        W38550   4.155   6.671   1.456 -0.2252 -0.0347  0.0871
22367W        W38551  17.967   8.685   4.420 -0.1071 -0.2444  0.1425
22368W        W38552   9.818  15.594  14.900  0.3657  0.0639 -0.3292
22369W        W38553  10.235  17.847  11.409 -0.0773 -0.0889 -0.0257
22370W        W38554   8.638  10.637  13.179  0.3416  0.2546  0.1354
22371W        W38555   5.772  12.498  12.189 -0.2862  0.0482 -0.0506
22372W        W38556  13.773   6.826   2.644 -0.0306  0.2360 -0.0559
22373W        W38557   1.543   5.244  14.694 -0.0082 -0.0714  0.1140
22374W        W38558  11.640  10.340   5.716  0.0254  0.1627 -0.0316
22375W        W38559   8.269   9.184  12.421 -0.1349  0.0892 -0.0702
22376W        W38560   4.275  17.677  12.931  0.0003 -0.0264 -0.0815
22377W        W38561  13.741  14.020  10.653 -0.1210  0.0758  0.0480
22378W        W38562  12.852   4.884  13.385 -0.0495 -0.1415  0.3116
22379W        W38563  10.022  13.083   2.874 -0.0113  0.1251 -0.2738
22380W        W38564  13.798  14.049  13.642  0.1336 -0.0129  0.2590
22381W        W38565  10.267  16.567  13.189  0.2436 -0.1183  0.0758
22382W        W38566   1.671   2.476   5.058  0.2797 -0.0351 -0.0215
22383W        W38567   8.171   6.987   2.975 -0.0304  0.2841 -0.0732
22384W        W38568  17.820   8.619   2.935 -0.0384 -0.0629  0.3509
22385W        W38569  16.585  14.221  14.941 -0.0783 -0.4836 -0.0961
22386W        W38570  10.837  11.453  16.026  0.3129  0.2922 -0.1077
22387W        W38571   1.949   3.395   1.091 -0.2516  0.0628 -0.3107
22388W        W38572   1.246  17.859  15.811 -0.0722 -0.2517  0.0699
22389W        W38573   0.162  16.952  12.148 -0.1552 -0.1024 -0.2861
22390W        W38574   4.126  17.759   5.477 -0.0135 -0.0863 -0.0855
22391W        W38575  17.095   1.747  14.159  0.0268  0.2403 -0.0390
22392W        W38576  15.373   5.504  14.173 -0.1490  0.0255 -0.0189
22393W        W38577  10.711   1.657  15.758 -0.1507 -0.1989 -0.0657
22394W        W38578   5.586   4.101  12.850 -0.0125  0.0596 -0.3279
22395W        W38579   1.262  12.494  14.793 -0.0804 -0.1311  0.2217
22396W        W38580   7.594  13.467  14.924 -0.1836 -0.2003  0.2532
22397W        W38581  12.918  13.616   2.879 -0.0868 -0.0937  0.2736
22398W        W38582  15.973   8.004  14.688 -0.1891 -0.1002 -0.1222
22399W        W38583  12.500   2.155   0.309 -0.1328 -0.0767 -0.1477
22400W        W38584  12.305   7.697   4.511  0.0142  0.3171  0.0490
22401W        W38585   2.346  15.753  16.404  0.0392 -0.0630 -0.0429
22402W        W38586  16.686   8.026  15.889  0.0978  0.1750  0.1054
22403W        W38587   9.212  17.305   2.756 -0.0977 -0.0299  0.1115
22404W        W38588  15.181   2.573   0.395 -0.0408 -0.1484 -0.2605
22405W        W38589  17.969   9.153  12.627  0.0556 -0.1221  0.0286
22406W        W38590   1.606  13.651  12.152  0.0263  0.1498  0.2542
22407W        W38591   9.787  11.633  12.832 -0.0679 -0.3145  0.1175
22408W        W38592   2.590  16.608   6.503 -0.1371  0.3977 -0.3275
22409W        W38593  14.190  14.532  12.846  0.0137 -0.0482 -0.0715
22410W        W38594  17.601  17.616  16.314 -0.0666 -0.0281 -0.0519
22411W        W38595  11.885  13.675  12.533  0.2022 -0.2146  0.0539
22412W        W38596   2.301   3.891   1.136 -0.3077 -0.1483  0.2167
22413W        W38597   0.786  11.772   5.711  0.0198 -0.1471  0.0929
22414W        W38598  14.470   1.284  11.435  0.1497  0.1539 -0.0440
22415W        W38599  11.707  10.766   0.239 -0.1279  0.0507 -0.0919
22416W        W38600  12.135  12.421  14.325 -0.2223 -0.1004 -0.2915
22417W        W38601   3.893  15.143   0.706 -0.1348 -0.4333 -0.0973
22418W        W38602   7.511  14.398   2.207  0.0180  0.1761  0.0141
22419W        W38603   2.847  17.471   6.054  0.0837  0.3072 -0.1162
22420W        W38604   0.637   9.644  15.068 -0.0554  0.0444  0.3789
22421W        W38605  10.059   6.948  15.925 -0.0750  0.1336 -0.1769
22422W        W38606   4.680   9.294   4.187  0.1836 -0.1434 -0.0244
22423W        W38607  17.864  17.144   2.378 -0.2963  0.1417  0.0253
22424W        W38608   5.495   7.632  15.510 -0.1906 -0.1050 -0.4270
22425W        W38609  11.742   2.586  13.793  0.0383 -0.1307  0.0148
22426W        W38610   3.226   8.795   1.037 -0.1267 -0.0148  0.1435
22427W        W38611   9.138   8.216   5.856  0.2149 -0.0517 -0.0175
22428W        W38612   7.855  15.367  13.542 -0.3782 -0.0118  0.1513
22429W        W38613   3.416   5.460   3.197  0.0159 -0.1094  0.3773
22430W        W38614   7.369   5.314  16.023  0.0116  0.0072 -0.1364
22431W        W38615  13.856   0.238  15.621 -0.1887  0.2133  0.1004
22432W        W38616  17.624  15.579   3.815  0.2432 -0.4226  0.2388
22433W        W38617   0.140  14.990  10.825  0.0353 -0.2091 -0.4389
22434W        W38618  14.335  11.958   5.732  0.0614 -0.2635  0.3038
22435W        W38619  11.562   8.572  14.234  0.2143 -0.2530 -0.0655
22436W        W38620   4.530   4.613  15.545 -0.1752  0.0659 -0.1033
22437W        W38621  16.467  16.914  13.190  0.0795  0.1131  0.1392
22438W        W38622   6.065  15.484   0.147  0.1387  0.0634  0.4327
22439W        W38623   3.547   7.439   2.283  0.0808 -0.1671 -0.2614
22440W        W38624  11.587   5.526   0.769 -0.1568 -0.1045  0.0509
22441W        W38625   0.860  13.164   1.946  0.0142 -0.1121  0.1102
22442W        W38626  16.394  13.002   3.574 -0.3748 -0.1056  0.2350
22443W        W38627   2.610  17.787   6.408 -0.2028  0.3778  0.0129
22444W        W38628  13.237  16.691  13.376  0.1501 -0.0458  0.0731
22445W        W38629   8.358  10.676  15.544  0.1536  0.0996 -0.4647
22446W        W38630  13.929   1.611  15.413  0.0750 -0.1451  0.0470
22447W        W38631  14.953  13.463   5.945  0.0725  0.3461 -0.1088
22448W        W38632  16.923   0.542  15.103  0.0950  0.0782 -0.5047
22449W        W38633  10.765  11.853   0.612  0.0889 -0.3220 -0.1039
22450W        W38634  12.010  16.560  16.482  0.1208 -0.1263 -0.0161
22451W        W38635   6.567   0.417   0.096  0.0673 -0.1895 -0.0366
22452W        W38636   1.134  16.818   0.087  0.0640  0.0576  0.1765
22453W        W38637   5.494  14.920   3.239 -0.0303  0.1117 -0.0462
22454W        W38638   8.215   9.587   1.359  0.1936 -0.0787 -0.0109
22455W        W38639  12.888  17.617   0.194 -0.1070 -0.4505  0.0428
22456W        W38640   8.982   8.691   3.747 -0.1308  0.2411  0.1551
22457W        W38641  12.010  17.359  14.506 -0.1484 -0.5039  0.1619
22458W        W38642   6.458  14.592   4.238 -0.2294 -0.1308 -0.1423
22459W        W38643   8.233  12.054   4.119 -0.0353 -0.0376  0.0784
22460W        W38644  14.999   1.862  15.266 -0.2007 -0.0670  0.0360
22461W        W38645  14.928   2.003  12.386 -0.1170  0.2358  0.1422
22462W        W38646   6.026  14.803   4.917 -0.1464  0.0695  0.0686
22463W        W38647   1.938   4.763   2.479 -0.0757  0.0113 -0.1242
22464W        W38648   4.982  13.614   3.306  0.0109 -0.2476 -0.0648
22465W        W38649  11.391   3.166  15.177  0.1028  0.1624  0.1565
22466W        W38650  15.102  10.078  13.079  0.0511 -0.1488  0.3471
22467W        W38651   8.078   8.516  15.865 -0.0839  0.3277  0.2529
22468W        W38652   0.966  15.666  15.424  0.0078 -0.2496 -0.0935
22469W        W38653  15.587  10.340  15.574  0.1969 -0.2019  0.1928
22470W        W38654  17.597  16.690   4.356  0.2743  0.0618 -0.0848
22471W        W38655  14.322  14.241   2.584 -0.1403 -0.0692 -0.1328
22472W        W38656  11.534  12.161   3.576  0.2602 -0.1330 -0.0592
22473W        W38657  12.513   9.238  14.875 -0.0676  0.1866  0.1413
22474W        W38658   0.634  15.648   2.102  0.1994 -0.1717  0.0374
22475W        W38659   4.292  16.410  15.159  0.0121  0.0237  0.2250
22476W        W38660  16.813   5.039   2.432 -0.0330 -0.0539 -0.2174
22477W        W38661   4.633  14.840   4.079 -0.0591 -0.1385  0.1602
22478W        W38662  14.408   3.827   4.417  0.1338 -0.1013  0.1556
22479W        W38663   3.273  12.805  14.586 -0.0953  0.0232  0.2813
22480W        W38664   3.651  15.667  15.135  0.0974  0.0366  0.0105
22481W        W38665   0.807   3.020   5.269  0.1292 -0.1369  0.1484
22482W        W38666  12.353  11.943   2.628  0.3155  0.0226  0.0585
22483W        W38667   3.266  10.271  13.156  0.2123  0.0408  0.4792
22484W        W38668   4.295   2.099  12.069 -0.1087 -0.3149  0.0001
22485W        W38669   8.058  13.566  15.030  0.3033 -0.0359  0.1514
22486W        W38670  16.303   7.633  14.573 -0.0028  0.1128 -0.0355
22487W        W38671  15.615   2.934   2.277 -0.1032 -0.0130 -0.1296
22488W        W38672  10.763   1.098  13.264  0.0433 -0.0342 -0.1387
22489W        W38673   6.216   6.002   3.752  0.0859 -0.1342 -0.1872
22490W        W38674  11.319  14.920   1.784 -0.3018 -0.1755 -0.2357
22491W        W38675  17.831  16.936   4.019 -0.0765 -0.2539 -0.0861
22492W        W38676   2.185   2.756  13.373  0.0631  0.0567  0.0384
22493W        W38677  17.701   9.647  15.608 -0.3882  0.0381  0.0102
22494W        W38678  14.567  15.876  12.799 -0.0505 -0.1039  0.2893
22495W        W38679   1.259  14.632   3.877  0.1012  0.0513  0.3883
22496W        W38680   5.204  16.053  15.165 -0.1756 -0.2178  0.1456
22497W        W38681   5.922  16.624  16.347 -0.0356 -0.1195 -0.0811
22498W        W38682   9.182  15.431  13.746  0.0928 -0.1120 -0.1152
22499W        W38683   1.484   0.004   1.935  0.1456 -0.1940 -0.0139
22500W        W38684   1.543  15.653   2.533 -0.0919  0.2560 -0.1599
22501W        W38685   2.757  16.691  16.223 -0.0504 -0.0699 -0.0270
22502W        W38686   2.303  10.743   3.680 -0.2074  0.3842  0.3147
22503W        W38687   3.220  16.810  14.982 -0.0213  0.2924  0.1364
22504W        W38688  17.699  16.547   2.173 -0.2909 -0.2741  0.3285
22505W        W38689   4.084   2.160  15.881 -0.0832  0.1626  0.5652
22506W        W38690  12.627  13.663  12.175 -0.0399  0.0180  0.3409
22507W        W38691   8.805  16.363  14.496 -0.1355 -0.0610  0.0323
22508W        W38692  12.737  17.698  14.976 -0.2466 -0.2009  0.1345
22509W        W38693   9.182   8.847   2.379  0.0523  0.1640 -0.2730
22510W        W38694  16.183   8.942  14.548  0.0056  0.0151 -0.0549
22511W        W38695   4.246   8.255   0.953 -0.4208 -0.4393 -0.2198
22512W        W38696   5.858  11.986  14.275 -0.1213 -0.1147 -0.0396
22513W        W38697   2.510  10.483  11.397  0.0506  0.2043 -0.0696
22514W        W38698  13.987  11.488  16.512 -0.1336  0.0262 -0.0580
22515W        W38699   5.484  17.383  13.454 -0.0312 -0.2475  0.1431
22516W        W38700   2.653  14.272   1.726  0.0574 -0.1871 -0.0628
22517W        W38701  13.319   0.228  16.551 -0.2257  0.2830  0.2252
22518W        W38702  17.445  10.212  13.406 -0.2354  0.1450 -0.0516
22519W        W38703   9.835  14.911  12.033 -0.1667 -0.0777 -0.2885
22520W        W38704   5.631  17.854   1.453 -0.1531 -0.1883 -0.1890
22521W        W38705  13.330  13.232   5.261  0.2258  0.0008  0.0027
22522W        W38706  16.073   1.662   5.531 -0.2430 -0.2481 -0.0202
22523W        W38707   6.468  10.093   0.460  0.0218  0.0586 -0.2118
22524W        W38708   7.864   9.503   3.221  0.4357 -0.1447  0.1324
22525W        W38709   8.941  16.153   2.998 -0.3791  0.2284 -0.0092
22526W        W38710  12.547  15.712   4.956 -0.3800  0.4416 -0.1549
22527W        W38711   5.793   7.281  15.280  0.1946 -0.0063 -0.2224
22528W        W38712  15.779   9.273   5.557  0.1123  0.2143 -0.1306
22529W        W38713   2.971   5.246  13.797  0.1504 -0.0613  0.1140
22530W        W38714  17.080  11.393   3.024  0.0899 -0.1707 -0.0683
22531W        W38715  16.994  14.490   0.303 -0.1589  0.0306 -0.2295
22532W        W38716   3.024  14.387   1.411  0.0270 -0.0045 -0.0487
22533W        W38717   5.231   2.340   5.308  0.3525  0.3121 -0.1975
22534W        W38718   4.918   9.863  15.446  0.1871 -0.3164  0.0212
22535W        W38719   7.295   1.082   3.946  0.1489 -0.0775  0.2971
22536W        W38720   5.266  14.098  11.492  0.3158 -0.2772 -0.1439
22537W        W38721   5.552   4.847   3.726  0.0246  0.4399  0.0684
22538W        W38722  13.086  16.730  14.737 -0.2139  0.1161  0.0834
22539W        W38723  11.860   4.816  15.643  0.2520  0.1455 -0.1052
22540W        W38724   0.797  14.889   3.877  0.2056 -0.2257  0.1829
22541W        W38725   6.825  17.142  13.614  0.2257  0.1425  0.0816
22542W        W38726   5.933  16.951   2.790 -0.0880 -0.1247 -0.0021
22543W        W38727   9.797  11.227  14.639  0.2209 -0.4214 -0.2437
22544W        W38728  10.876   8.443  10.703 -0.2852 -0.0449 -0.0221
22545W        W38729   6.661   2.056  14.808 -0.0687  0.0784 -0.2395
22546W        W38730  13.425  14.150  14.375  0.2220  0.1589  0.0403
22547W        W38731   7.627   6.847  15.837 -0.1277  0.1241 -0.2851
22548W        W38732   5.611  12.699   1.460  0.1153 -0.1807 -0.1187
22549W        W38733   7.483   6.628   4.683 -0.0195  0.0033 -0.1609
22550W        W38734   5.714  10.456  15.772 -0.0845  0.2690 -0.0359
22551W        W38735  15.154  16.784   1.187  0.1336  0.3880  0.1139
22552W        W38736   0.032  10.566   4.117 -0.0806  0.2443  0.1591
22553W        W38737   0.701   0.992   0.660 -0.1091  0.1537 -0.0374
22554W        W38738  15.859  16.162  14.992 -0.2098 -0.0386 -0.0543
22555W        W38739   8.900   7.597   4.222  0.0308 -0.0498  0.0643
22556W        W38740   6.349   5.572  13.955 -0.0781  0.2817 -0.0372
22557W        W38741   4.501  15.778  15.801 -0.0202 -0.0540  0.1191
22558W        W38742  14.254  10.671  15.231  0.1544  0.3745  0.0694
22559W        W38743  10.749  15.081   4.535 -0.2023 -0.0455 -0.1307
22560W        W38744   0.718   2.965  11.971  0.0091  0.1010 -0.2581
22561W        W38745   4.082   5.609  12.735  0.0325 -0.1805 -0.2382
22562W        W38746  16.737  17.613   2.769 -0.1038  0.3558  0.1705
22563W        W38747  11.565   7.024  13.336 -0.2273  0.2010 -0.2740
22564W        W38748   5.017  11.841   2.687 -0.3191  0.0192  0.0580
22565W        W38749   8.382   4.301   1.458 -0.0577  0.1783  0.0618
22566W        W38750  17.583   1.840   3.686 -0.1919 -0.1135 -0.0308
22567W        W38751  11.434   6.495  12.976  0.1968  0.1488  0.1829
22568W        W38752   9.004  11.100   3.309 -0.2580 -0.1721 -0.0289
22569W        W38753   5.794   8.077   4.879 -0.3098 -0.2366  0.2391
22570W        W38754  16.342   5.713  15.667  0.2585 -0.0540  0.2812
22571W        W38755  12.955  11.978  15.781  0.3199  0.1705 -0.1025
22572W        W38756  10.565   4.289   2.598 -0.2998  0.1066 -0.0299
22573W        W38757  17.376   6.790  14.694 -0.1077  0.3080 -0.2447
22574W        W38758  10.686   1.102   1.750 -0.2399 -0.3414  0.0926
22575W        W38759   5.320   9.458  11.737  0.1189 -0.2513  0.1287
22576W        W38760  15.140  11.873   4.170 -0.0662  0.0649 -0.0338
22577W        W38761   3.996   8.173  13.168  0.1549  0.1615 -0.0936
22578W        W38762  12.513  16.604  16.487  0.1291  0.0023  0.0914
22579W        W38763  16.223  13.418  13.138  0.3466  0.3532 -0.1562
22580W        W38764  12.760   0.144   3.359 -0.1014 -0.0861 -0.0697
22581W        W38765   2.540   0.377  11.886 -0.0431  0.1476 -0.2041
22582W        W38766   5.868   6.733   1.388 -0.0901 -0.1972  0.0102
22583W        W38767   6.082   4.147   4.462 -0.2162  0.1081 -0.0359
22584W        W38768  11.646   8.098  13.387 -0.3532  0.0593  0.1989
22585W        W38769   0.929   1.823  11.157 -0.1906 -0.4085 -0.0442
22586W        W38770   1.513  14.154   5.532 -0.0525 -0.1275 -0.0727
22587W        W38771   6.026   3.750   5.406  0.0699  0.2672  0.1141
22588W        W38772   1.492   7.701   3.409  0.1312 -0.0309 -0.0838
22589W        W38773   9.541   8.443   5.292 -0.0582 -0.1198  0.2959
22590W        W38774   1.873  17.713   2.796  0.2250 -0.1208 -0.0313
22591W        W38775   7.193  17.353   1.573 -0.1139  0.0873 -0.1123
22592W        W38776   8.617  10.033  13.261  0.1759 -0.1356 -0.1554
22593W        W38777   5.099   2.580   2.332 -0.3862 -0.3478 -0.0411
22594W        W38778  13.675   1.205   3.197 -0.0188  0.3054 -0.0406
22595W        W38779  14.459  11.229   0.689 -0.2173 -0.1061 -0.0323
22596W        W38780  13.434  12.183  15.625  0.0061  0.2590 -0.0671
22597W        W38781   0.998   8.946   3.450  0.3655 -0.2296 -0.0376
22598W        W38782   0.930  11.999  13.738 -0.0940 -0.0850 -0.0077
22599W        W38783   0.228   3.673  14.520 -0.1459  0.0107 -0.1656
22600W        W38784  15.106   7.084  13.158 -0.3230  0.2281 -0.0907
22601W        W38785  12.418   2.447  14.505  0.2990 -0.1944  0.0816
22602W        W38786  16.837   6.049  11.741  0.0233 -0.2179 -0.1337
22603W        W38787  17.754   3.238   4.998 -0.2588  0.1186  0.0898
22604W        W38788  11.528   9.028  12.297  0.0176 -0.1330  0.0537
22605W        W38789   7.118  10.835   3.388  0.0454 -0.0156 -0.1965
22606W        W38790  17.666   3.235  13.248 -0.0078  0.3268  0.0035
22607W        W38791   4.949   5.580   2.002  0.1449  0.1548 -0.0649
22608W        W38792   6.296   5.250   0.699 -0.1813  0.1324  0.1232
22609W        W38793   7.514  10.800  14.292  0.1302 -0.3557 -0.0310
22610W        W38794  15.066  14.891   3.141 -0.0773 -0.0191  0.0572
22611W        W38795   8.930   0.172  12.325  0.1782 -0.2387 -0.0956
22612W        W38796  11.109  13.377  13.746  0.1694 -0.0432  0.1717
22613W        W38797   4.210   9.119   1.557 -0.0450 -0.1765 -0.0780
22614W        W38798   4.719   0.721   0.296 -0.2997 -0.0105 -0.4072
22615W        W38799   7.962  17.673  16.653  0.2428  0.0151 -0.0507
22616W        W38800   8.428  10.433   1.792 -0.1438 -0.0712  0.0502
22617W        W38801   8.817  17.004  15.848 -0.1220  0.1325  0.1924
22618W        W38802  14.247  17.961   3.024  0.1548 -0.4081  0.0109
22619W        W38803   2.035   0.149   4.048 -0.2429  0.1472 -0.0358
22620W        W38804   5.493   0.088  14.677 -0.0752  0.2175  0.1235
22621W        W38805  10.988   2.393   2.446  0.0791 -0.1788 -0.1184
22622W        W38806   5.428  13.890  10.601 -0.1951 -0.1468 -0.2353
22623W        W38807   8.876   7.652  13.139 -0.0682  0.0274 -0.0349
22624W        W38808  15.206  12.197  16.588  0.1135  0.1128  0.0612
22625W        W38809  16.100   4.659   3.323  0.0462 -0.1316 -0.2609
22626W        W38810   7.080   0.641  15.473 -0.0622  0.1637  0.1768
22627W        W38811   5.721   2.660   0.716 -0.0214  0.0269  0.0877
22628W        W38812   1.213  17.087  12.494  0.2784  0.0021  0.0336
22629W        W38813  14.437  15.108  12.915  0.1020  0.0873 -0.1267
22630W        W38814  17.368   6.091   0.891  0.1367  0.0318  0.2138
22631W        W38815   1.147   8.899   2.933 -0.1769 -0.2725  0.1232
22632W        W38816  13.664   5.000  10.909 -0.2720  0.0286  0.0342
22633W        W38817   1.230  14.755   4.369 -0.1131  0.0965  0.0273
22634W        W38818  12.040   3.264  14.353  0.2321 -0.2206 -0.0512
22635W        W38819  12.693  16.406  15.074  0.1965  0.0800  0.2599
22636W        W38820   8.641   7.134   1.968  0.0457 -0.1443  0.0241
22637W        W38821   8.311  14.460   0.415  0.1820 -0.1845  0.2499
22638W        W38822  13.930   6.547  14.005  0.1957 -0.0159  0.1037
22639W        W38823   5.365   8.549   1.137 -0.0564  0.0853 -0.1180
22640W        W38824  12.782   9.965   3.208 -0.1796 -0.0060  0.3371
22641W        W38825   3.490   4.376  12.487  0.1553  0.1551 -0.5099
22642W        W38826  12.084  13.104  15.988  0.3235  0.1501  0.0860
22643W        W38827   5.532   8.406  13.534  0.0261  0.0715  0.0720
22644W        W38828  13.664   6.038   0.270 -0.1685  0.0156 -0.1847
22645W        W38829   4.819   7.420  16.348 -0.0252  0.2917 -0.0303
22646W        W38830   2.276  16.711   4.734 -0.3820  0.0345  0.0855
22647W        W38831   9.910   5.238   0.018 -0.3035 -0.1676 -0.1026
22648W        W38832   0.290  10.350   2.728  0.1035 -0.1362  0.0091
22649W        W38833  17.914   5.139  11.467 -0.3120  0.1708 -0.0382
22650W        W38834   2.700   5.243   4.121 -0.0206  0.4597  0.1829
22651W        W38835   0.172   6.957   0.448 -0.1481 -0.0363 -0.1893
22652W        W38836   7.321   2.960  11.793  0.1355 -0.1093  0.2511
22653W        W38837   2.931  14.167  12.281 -0.0212 -0.2139  0.0278
22654W        W38838   9.092  13.075   1.682 -0.0054  0.2731 -0.1821
22655W        W38839   9.847   6.347  12.844  0.0838  0.1211  0.2833
22656W        W38840  14.786  13.048   4.715 -0.1882 -0.0001 -0.4114
22657W        W38841  10.750   2.189   1.595 -0.0006 -0.3289 -0.0144
22658W        W38842   7.241   8.754   2.217 -0.1145 -0.0086 -0.0226
22659W        W38843   7.033  13.841   0.148  0.2513 -0.2179 -0.0135
22660W        W38844  16.079  16.061  11.898 -0.0563 -0.2743  0.0678
22661W        W38845  15.448  14.147   3.687 -0.1997  0.0040 -0.1661
22662W        W38846   2.066  15.231   4.544  0.1209 -0.2850  0.1960
22663W        W38847   3.392   2.704   2.861 -0.2129 -0.0502 -0.1772
22664W        W38848   9.320  13.291   0.671 -0.1368  0.1698  0.1942
22665W        W38849   1.701   5.728  13.573  0.1384 -0.0782 -0.1040
22666W        W38850   2.804  10.621   5.222  0.1114  0.0539  0.2087
22667W        W38851  12.575   6.949  15.596  0.0215 -0.0563  0.2362
22668W        W38852   3.458   6.754  15.348  0.1920  0.2100 -0.0170
22669W        W38853   9.441   7.003  13.336  0.0886  0.0083  0.0835
22670W        W38854  15.188  15.813   1.563  0.3749 -0.1166  0.2827
22671W        W38855  10.515   3.677   5.000 -0.3187 -0.1058  0.0068
22672W        W38856   3.816   6.779   3.988  0.0327  0.2372 -0.0892
22673W        W38857   0.919   9.798  13.330 -0.2002  0.0798 -0.3134
22674W        W38858  16.035  13.869   2.179  0.0110 -0.0631  0.4592
22675W        W38859   1.607  16.625  11.682  0.0727 -0.0299  0.1219
22676W        W38860  10.178   8.540   2.378 -0.1217  0.0966 -0.6050
22677W        W38861   2.323   7.969   5.789 -0.1146  0.0337  0.4546
22678W        W38862   5.716   8.429   0.373  0.1530  0.1382  0.0185
22679W        W38863  16.149  16.634   3.139  0.3139 -0.1604 -0.0959
22680W        W38864  11.323  13.760  15.354 -0.2749  0.1286  0.0772
22681W        W38865   7.522   4.270  13.775 -0.0327  0.1709  0.2749
22682W        W38866  11.689   3.232   4.661  0.3958 -0.3148  0.0668
22683W        W38867   2.595  13.460  12.672  0.0146  0.0210  0.1836
22684W        W38868  10.167   6.157   1.254 -0.1850  0.3288  0.2012
22685W        W38869  16.155  12.644  15.778 -0.0136  0.0948  0.4014
22686W        W38870  14.073   9.017   1.101  0.3811 -0.1610  0.3182
22687W        W38871   7.306   9.911   1.514  0.3089 -0.0587  0.1132
22688W        W38872   8.110   9.428  15.409 -0.1524  0.2377  0.0391
22689W        W38873  17.500  17.689   4.091 -0.1523  0.1821 -0.1685
22690W        W38874  10.948  16.094  12.716  0.2327  0.2703 -0.2351
22691W        W38875  12.157   9.979   2.359  0.1672 -0.2701  0.1429
22692W        W38876   2.897  13.417   0.049  0.2946  0.1098 -0.2343
22693W        W38877  14.671   6.944   2.048  0.0823 -0.3794  0.3574
22694W        W38878  14.190   0.760   3.426  0.2211 -0.2739  0.0885
22695W        W38879  10.468  16.473  12.298  0.2426 -0.3983 -0.1499
22696W        W38880  15.210  17.318  14.324 -0.0844  0.0469 -0.1537
22697W        W38881   3.575  16.286   4.070  0.1726 -0.1629  0.2137
22698W        W38882   5.296  16.544  11.981 -0.2516  0.0530 -0.0569
22699W        W38883   5.792   2.345  16.583  0.0885 -0.1240 -0.1749
22700W        W38884  17.453   4.826  14.508  0.2686  0.0540 -0.2447
22701W        W38885   4.321   8.372  12.772  0.2002  0.1071  0.0145
22702W        W38886  13.437  17.886   4.603  0.0762  0.0304 -0.1693
22703W        W38887  14.233   1.462   3.884  0.3159  0.0408 -0.2081
22704W        W38888  15.006   6.051  11.356  0.2802  0.2402  0.0625
22705W        W38889   4.577  11.761   3.151  0.1651 -0.0108 -0.0528
22706W        W38890  17.918  17.067   2.877  0.2610  0.0124 -0.0874
22707W        W38891   4.032  14.468  14.190  0.1948 -0.1851  0.0280
22708W        W38892   7.710  13.889   1.894 -0.1480  0.0948 -0.0405
22709W        W38893  16.471   0.190  15.731 -0.1250 -0.1249 -0.1600
22710W        W38894   9.479   8.549   1.775  0.1753 -0.1255  0.1474
22711W        W38895   8.064   4.038  12.182  0.1434 -0.1001 -0.0275
22712W        W38896   2.296  11.104   0.331  0.0131 -0.0283 -0.0681
22713W        W38897   0.570   9.681   0.862 -0.0798  0.1024  0.3469
22714W        W38898  14.074  15.993  14.399  0.2162 -0.1664  0.2112
22715W        W38899  10.871  15.986   4.374  0.2323  0.3655 -0.0234
22716W        W38900  15.161   0.778  12.828  0.4148  0.0112  0.1548
22717W        W38901   8.532  11.675  13.761  0.1798  0.1353 -0.0548
22718W        W38902   3.023   7.743  16.164 -0.1448 -0.0483 -0.3946
22719W        W38903  11.232  12.547  13.032 -0.0089 -0.0693 -0.0968
22720W        W38904  10.995  14.595  12.432 -0.2407  0.1919 -0.0453
22721W        W38905  11.313  10.608  16.453  0.3386 -0.4284  0.0229
22722W        W38906  12.205   8.035  16.342  0.0510 -0.2463 -0.0386
22723W        W38907  14.678  17.165   0.417  0.3257  0.3167  0.3015
22724W        W38908   2.106   3.262   0.631  0.0970 -0.2358 -0.0080
22725W        W38909   4.970  14.929  13.196  0.1519  0.3217  0.1587
22726W        W38910  10.382   2.874   1.127 -0.0589 -0.1571 -0.2905
22727W        W38911   4.640   3.691   4.507 -0.1017 -0.0073 -0.1353
22728W        W38912   1.767  10.774  11.474  0.1780 -0.2564 -0.0242
22729W        W38913  10.868  13.500   0.004 -0.1511  0.1987 -0.0049
22730W        W38914   4.425   3.482   0.522  0.1471  0.0272  0.2402
22731W        W38915   0.355  11.309   4.723  0.1752 -0.0280 -0.2039
22732W        W38916  17.215   3.301   2.019 -0.1752 -0.1108 -0.2002
22733W        W38917   1.678  13.839   2.674  0.1444  0.2546  0.2000
22734W        W38918   8.791  13.697  14.998  0.0313  0.0863  0.0159
22735W        W38919  12.529   2.910  16.322  0.1672 -0.2848 -0.2288
22736W        W38920  15.798   1.674   3.017  0.0541  0.0936  0.3557
22737W        W38921  16.445  13.362   2.478  0.1267  0.0791  0.2396
22738W        W38922  15.459   4.334   4.532 -0.3053  0.0980 -0.1268
22739W        W38923   4.829   0.285  14.616  0.1921 -0.1090  0.0186
22740W        W38924  16.614  14.207   3.550 -0.3149  0.0226 -0.2138
22741W        W38925   0.257   5.113  14.147 -0.3659 -0.0283  0.0431
22742W        W38926  14.441   4.822   4.183  0.1226  0.0365 -0.0995
22743W        W38927   2.925   1.303   1.716 -0.3075 -0.0383  0.0294
22744W        W38928   9.286  16.081  13.282  0.1743  0.1571 -0.2217
22745W        W38929  10.877   1.600  14.348 -0.5115 -0.0516  0.2466
22746W        W38930   7.951  12.360   3.446 -0.0618 -0.1475 -0.3342
22747W        W38931   6.934   9.460  12.821  0.1907 -0.1950  0.1205
22748W        W38932  10.399   2.581  14.219  0.2074 -0.0154 -0.1637
22749W        W38933  14.967   2.354  15.112 -0.1854 -0.0343 -0.1888
22750W        W38934   5.444   0.058  12.151 -0.1604 -0.1515  0.2844
22751W        W38935   1.987   1.009   1.487  0.2924 -0.0716 -0.0688
22752W        W38936  11.685  14.573  12.153  0.0390 -0.1440  0.1398
22753W        W38937   2.515  14.722  13.702 -0.0311  0.2712  0.1009
22754W        W38938   8.825   5.223   2.752  0.1352 -0.0161 -0.0137
22755W        W38939   6.066  17.702   0.590  0.0354  0.0873  0.0201
22756W        W38940   6.995  12.104   2.678  0.0919  0.4014 -0.1900
22757W        W38941   0.369  15.274   4.364 -0.0243  0.1936 -0.1219
22758W        W38942   3.553   7.747  15.438 -0.0299 -0.1794 -0.3059
22759W        W38943  11.609   0.761  11.165  0.2467  0.0871 -0.0258
22760W        W38944  14.868  14.018  12.568 -0.0264 -0.2060  0.1800
22761W        W38945   6.847   8.697  14.301  0.1987  0.3336  0.4229
22762W        W38946   2.037   7.778  14.093 -0.1357 -0.1532 -0.1729
22763W        W38947  10.478   6.406  13.980  0.0110 -0.1102 -0.0832
22764W        W38948  16.682  13.145   4.443 -0.0881  0.1199 -0.0872
22765W        W38949  16.824   5.707   4.351 -0.1458  0.0837 -0.4948
22766W        W38950   5.513   6.826  16.510  0.1105  0.4817  0.2846
22767W        W38951   3.254   9.225   2.811  0.4740  0.0122 -0.0551
22768W        W38952  10.703  11.649  14.959  0.0949  0.2039 -0.0159
22769W        W38953  11.715   9.826   4.778  0.2444  0.1044 -0.1933
22770W        W38954   8.034   3.583   3.458  0.1304  0.2255  0.0699
22771W        W38955   3.228  10.581  15.176 -0.2285 -0.0001 -0.1827
22772W        W38956   2.090  13.573   5.204 -0.0439  0.1085 -0.0005
22773W        W38957   2.859  10.209  15.218 -0.1290  0.0131  0.4603
22774W        W38958  10.513   3.797   1.279 -0.2574 -0.2399 -0.1729
22775W        W38959   3.708   9.295  12.361 -0.1731 -0.1939  0.0339
22776W        W38960  13.781   0.161   5.093  0.0024  0.1097  0.0917
22777W        W38961   9.080   1.839  14.330 -0.0745 -0.2469  0.1735
22778W        W38962   4.156  14.616  12.704  0.3386  0.1173  0.0992
22779W        W38963   3.480  12.871   5.717  0.1901  0.1386  0.0477
22780W        W38964   6.257   4.317   0.458  0.3376 -0.1391 -0.0418
22781W        W38965   0.950   8.728   5.189 -0.2063 -0.2628 -0.1028
22782W        W38966   2.379  16.020   4.261  0.0382  0.1251  0.0070
22783W        W38967   2.983  11.945  12.204  0.3799  0.0611  0.0080
22784W        W38968  11.127  14.947  15.806  0.1537  0.2845 -0.1616
22785W        W38969  11.233  16.204   5.862 -0.1403  0.2301 -0.1059
22786W        W38970   4.154   5.722   6.876 -0.0422 -0.2566 -0.5170
22787W        W38971   6.321  17.223  13.787 -0.0655  0.2347  0.0210
22788W        W38972  13.569  16.393   4.039 -0.2395 -0.0141  0.1794
22789W        W38973   4.815   5.881   1.026  0.1895 -0.1805 -0.2053
22790W        W38974  17.633   6.002   6.079  0.2988  0.2392  0.2051
22791W        W38975  12.113   0.570   4.401  0.3685 -0.4804 -0.2081
22792W        W38976   4.672  14.844  15.613 -0.1432  0.0227 -0.1970
22793W        W38977  12.282   7.463  13.538  0.2040  0.1106 -0.0851
22794W        W38978   8.930  16.398  13.422 -0.4178 -0.2277 -0.0197
22795W        W38979   7.056  13.433   0.447 -0.0630  0.0124 -0.1157
22796W        W38980   2.133  11.898   3.795 -0.0662  0.0261  0.3340
22797W        W38981  14.574   5.919   0.088 -0.0977  0.0087 -0.0011
22798W        W38982   5.355   5.885  14.212  0.0327 -0.2695  0.1629
22799W        W38983  10.689   5.053  14.036  0.0736  0.2798  0.1503
22800W        W38984   5.353  17.270   3.790 -0.0546 -0.5216 -0.4351
22801W        W38985  11.855   2.777   5.363  0.0713 -0.0604 -0.1376
22802W        W38986   0.624  14.476  16.161  0.1836 -0.1701 -0.3273
22803W        W38987  14.638  17.084  14.569  0.1987  0.3075 -0.1493
22804W        W38988   4.140  15.604  11.682 -0.2447 -0.3155 -0.0859
22805W        W38989   9.827  15.945   5.543 -0.2069  0.1332 -0.3055
22806W        W38990   5.943   5.113   3.552  0.0462  0.0450 -0.0088
22807W        W38991   9.325   0.150  11.475  0.2396  0.0154  0.1103
22808W        W38992   3.398   1.741   0.193 -0.2070 -0.0722  0.0138
22809W        W38993   6.008   9.428   2.581 -0.1441 -0.0760  0.0122
22810W        W38994  14.538  11.529   1.754  0.0851 -0.0888  0.2172
22811W        W38995   7.345   0.219  16.190  0.1627 -0.0010  0.0706
22812W        W38996   7.226   6.000   1.469 -0.1426 -0.1847  0.2113
22813W        W38997   1.300   9.050  16.019 -0.2821 -0.2423 -0.1262
22814W        W38998  17.638   1.083  14.741 -0.0142 -0.1307 -0.3034
22815W        W38999   4.661  13.210   3.222 -0.0787  0.4716  0.1205
22816W        W39000   6.619   7.661  12.014  0.0630  0.1223 -0.2591
22817W        W39001  11.920   9.737   2.815  0.0189 -0.0913 -0.2524
22818W        W39002   9.305  14.198   0.550  0.1277 -0.0205 -0.2787
22819W        W39003  15.185  14.547  11.759 -0.1693  0.0330  0.0826
22820W        W39004  13.201   8.023  14.888  0.0030  0.0614 -0.0940
22821W        W39005  14.431  10.082  15.197  0.1246 -0.1886 -0.1754
22822W        W39006   0.352  15.145   5.517 -0.0524 -0.1404  0.1207
22823W        W39007  16.046  13.049  16.021  0.2624  0.1688 -0.1333
22824W        W39008   1.217   8.366   4.923  0.1345 -0.0997 -0.1018
22825W        W39009   7.954   0.148   4.830  0.2154 -0.1889  0.1865
22826W        W39010  10.569   3.480   4.494 -0.2326 -0.2496 -0.0351
22827W        W39011   5.715   4.594   3.171 -0.0678  0.2172  0.0954
22828W        W39012  11.099   1.035  12.908 -0.0605  0.0033  0.4894
22829W        W39013   6.313  13.008  11.652  0.0644  0.1423 -0.4522
22830W        W39014  11.616   1.508   1.455 -0.2925  0.3358  0.1885
22831W        W39015  13.695  16.579  15.308  0.0207 -0.1570 -0.1369
22832W        W39016   9.188   9.501   3.565 -0.1778 -0.0720 -0.0120
22833W        W39017   2.855  15.655   2.924 -0.0277  0.0780 -0.0425
22834W        W39018   4.187   8.240  14.565  0.0312  0.2328  0.1104
22835W        W39019  11.870   8.391   6.301 -0.0430 -0.3893 -0.2628
22836W        W39020   3.552  15.716   1.430 -0.0588 -0.0302 -0.0211
22837W        W39021  12.188  12.436  15.359 -0.0993 -0.1713 -0.1128
22838W        W39022   8.099   9.840  15.747 -0.1227 -0.0097 -0.1449
22839W        W39023   6.115  11.800   2.916  0.2388  0.0535 -0.2625
22840W        W39024   6.094   1.855  12.965 -0.3087 -0.1655 -0.0818
22841W        W39025  13.899  14.399  13.232 -0.0787  0.3697 -0.4125
22842W        W39026  12.229   0.228  15.800 -0.1350 -0.1589 -0.0922
22843W        W39027  11.411  14.450   3.944  0.4418  0.3167  0.0079
22844W        W39028   9.090   1.337   1.022 -0.2045 -0.1520  0.2260
22845W        W39029   6.902   1.757  12.322  0.2471  0.0588 -0.0359
22846W        W39030   2.414   3.300   0.215  0.2209  0.1441 -0.0455
22847W        W39031   1.429   6.836   0.989  0.1421 -0.2343 -0.0163
22848W        W39032  16.086  12.675  14.513  0.1883  0.0014 -0.0061
22849W        W39033   7.310  16.801  14.069  0.0861  0.0772  0.1744
22850W        W39034  15.156  11.433   5.400 -0.0502  0.0260  0.5295
22851W        W39035  17.570   0.942   1.769  0.2776  0.1760 -0.0069
22852W        W39036  15.887   0.407   4.294  0.3154  0.0453 -0.0853
22853W        W39037   8.795   7.797   4.761  0.3113  0.0360 -0.0636
22854W        W39038   6.965   8.507  12.578  0.1443  0.0045 -0.0623
22855W        W39039  12.314  17.794  11.433  0.2177  0.1629  0.0822
22856W        W39040  11.199   0.421   5.058 -0.1740 -0.2046 -0.2191
22857W        W39041   8.331   6.039   2.659  0.1567 -0.1278 -0.1600
22858W        W39042  13.146  11.237  12.743  0.0562 -0.1860  0.0225
22859W        W39043   4.794  12.515   3.915 -0.2736 -0.0540  0.1076
22860W        W39044  14.387  13.290   3.276 -0.0626 -0.0357  0.0450
22861W        W39045   7.402   0.152   3.540  0.0638 -0.0161 -0.1886
22862W        W39046   6.306  14.225   3.765 -0.0542  0.0266  0.0778
22863W        W39047   5.290  14.260   5.642 -0.4666 -0.2413  0.4095
22864W        W39048   7.842  16.687   2.392 -0.4250  0.0375  0.0464
22865W        W39049  15.673   9.859  15.738  0.2307  0.2461  0.1267
22866W        W39050  10.574  15.074  15.598 -0.0063 -0.1797  0.0400
22867W        W39051  12.621   4.198  11.436 -0.1695  0.1478 -0.0874
22868W        W39052  13.165   6.568  16.200 -0.4573 -0.0461  0.0529
22869W        W39053  14.726   5.517   2.280 -0.1278  0.2403 -0.0304
22870W        W39054  17.997   0.659   1.743  0.0969 -0.1403 -0.1308
22871W        W39055   1.066   0.229   2.151 -0.0712  0.1785 -0.0040
22872W        W39056   0.268   5.744  12.010  0.1173 -0.2928 -0.0184
22873W        W39057   7.504  10.421   4.652 -0.0792  0.0123 -0.1572
22874W        W39058  13.232   2.648  15.435 -0.0852 -0.1217  0.0297
22875W        W39059  11.479   6.091   5.101  0.0030  0.1723 -0.0138
22876W        W39060   0.959  17.736  15.100 -0.1904 -0.1697  0.4956
22877W        W39061  16.315   4.906  14.127  0.2360  0.3236 -0.1493
22878W        W39062  15.916   9.704  14.179  0.1527  0.1080 -0.1038
22879W        W39063   0.732   1.309  12.820 -0.0049  0.0378 -0.0341
22880W        W39064   1.392   8.151  15.736  0.0367  0.2160  0.0439
22881W        W39065  11.096  15.903   1.413 -0.0341 -0.0694 -0.2489
22882W        W39066   2.747   4.327   2.794 -0.0873 -0.2836  0.1200
22883W        W39067  10.545   4.128   3.830  0.1054  0.1361 -0.1881
22884W        W39068  17.046   2.822   2.830  0.1839  0.0448 -0.1228
22885W        W39069  13.762   5.941  11.531 -0.2835 -0.1019 -0.0377
22886W        W39070  10.062  11.461   4.511 -0.2823  0.1739  0.1519
22887W        W39071  16.772  16.528  13.538  0.4005 -0.2123 -0.2305
22888W        W39072  11.295   8.802   0.676  0.2170  0.1455  0.0142
22889W        W39073   6.957   6.606  15.192 -0.0901 -0.0461  0.1151
22890W        W39074  10.534   3.914   3.238 -0.0846  0.4889 -0.0259
22891W        W39075  17.935  15.906  15.280  0.1909 -0.0459  0.0234
22892W        W39076   5.710  13.351  15.018  0.2996  0.2203 -0.2883
22893W        W39077   3.948  16.688  16.316 -0.0942 -0.2118  0.3888
22894W        W39078   6.901   6.156  14.921 -0.0229 -0.1463 -0.0151
22895W        W39079  13.748   6.080   2.004  0.1219 -0.1182  0.1411
22896W        W39080   6.736  14.036   3.900 -0.1026 -0.0681  0.0100
22897W        W39081  12.468   6.013  11.892 -0.3694  0.3284 -0.0847
22898W        W39082  16.097   4.310   3.680  0.1917 -0.1115 -0.0201
22899W        W39083   7.032  14.523  14.278  0.2897  0.1870 -0.1241
22900W        W39084   9.553  13.744   1.283  0.0956  0.0305  0.1205
22901W        W39085  16.327  15.817  12.960  0.2309 -0.3042  0.1313
22902W        W39086  15.388   3.205   5.146  0.0412 -0.4012  0.3032
22903W        W39087   6.061  15.875   0.505  0.1681 -0.0312 -0.0033
22904W        W39088  17.409  17.319  14.530  0.0994 -0.0630  0.1888
22905W        W39089   0.518   8.383  12.979  0.0435  0.1388 -0.0041
22906W        W39090  10.516   5.971   4.057  0.0568 -0.3523 -0.2222
22907W        W39091  14.990   2.003   2.513  0.2850 -0.3638 -0.2860
22908W        W39092   8.201   0.512   5.459  0.4847 -0.1980  0.0847
22909W        W39093   5.434   3.372  12.399  0.0398  0.1564  0.0716
22910W        W39094  16.829  10.697   1.531  0.4925 -0.2293  0.0962
22911W        W39095   3.486  17.269  11.213  0.2281 -0.0178  0.0797
22912W        W39096   0.128   2.375   1.907 -0.0508  0.0325  0.2174
22913W        W39097  10.401  12.697  14.291 -0.0614  0.1247 -0.0196
22914W        W39098   4.776   5.469   4.915  0.0958 -0.1253  0.1015
22915W        W39099  12.359   2.113  13.706 -0.1791  0.3048 -0.0630
22916W        W39100  11.814  11.129  14.737  0.0949  0.1997  0.2564
22917W        W39101   6.659  16.956   4.325  0.1700 -0.1889 -0.3218
22918W        W39102  16.194   7.724  15.127  0.2482  0.0612 -0.1864
22919W        W39103   6.160  15.478  11.991 -0.1485 -0.1558 -0.0615
22920W        W39104  16.156   0.603  14.667 -0.1311  0.1938  0.2363
22921W        W39105  16.787  10.031  11.655 -0.0880 -0.0082  0.0782
22922W        W39106   9.966  11.866  15.880  0.0616 -0.0699 -0.1330
22923W        W39107   7.807   4.298  13.112 -0.1074  0.2176 -0.1913
22924W        W39108  14.884   4.760   0.984  0.2844 -0.0214  0.2617
22925W        W39109   2.462  13.905  12.974  0.1176 -0.0323 -0.3427
22926W        W39110   2.778  17.350   1.510  0.3444 -0.0594 -0.1654
22927W        W39111   0.889   7.287  16.251 -0.0650  0.2441 -0.0214
22928W        W39112  14.012   0.050  11.288  0.5479  0.1422  0.1364
22929W        W39113  13.366   8.705   5.742 -0.1357  0.0937  0.0954
22930W        W39114  16.141   2.847  12.641 -0.0352 -0.0677 -0.0025
22931W        W39115   6.874   9.365  16.058  0.0133 -0.0723  0.2238
22932W        W39116  10.761   8.257  16.679 -0.3343  0.4968  0.1356
22933W        W39117   7.650  10.016   4.369  0.0388 -0.0192  0.0401
22934W        W39118  11.605  14.193   4.958  0.2429  0.0809  0.1773
22935W        W39119  11.781  14.339   4.286  0.2088  0.1764  0.2264
22936W        W39120  12.578  13.331   4.643  0.1266 -0.0572 -0.0068
22937W        W39121  11.574   6.784   1.911  0.0189  0.1622 -0.1851
22938W        W39122   7.463   8.063  12.647 -0.0108  0.0586 -0.2270
22939W        W39123  10.523   0.037   6.088  0.0315 -0.1430 -0.2500
22940W        W39124   8.518  15.720   5.393  0.0524 -0.1270  0.1787
22941W        W39125  17.892   7.164   3.085 -0.0444 -0.1531  0.0912
22942W        W39126   9.250  15.208   5.248  0.0408 -0.2011 -0.0519
22943W        W39127   2.247  10.696  11.812 -0.1122 -0.0594  0.0131
22944W        W39128  13.831  11.542   3.917  0.3512 -0.0096 -0.0877
22945W        W39129  12.545   5.981  12.433 -0.2317 -0.1323 -0.0890
22946W        W39130   9.117  12.137  16.686  0.1706 -0.2742  0.0377
22947W        W39131   5.596   6.565  12.926 -0.0779 -0.0363  0.0714
22948W        W39132  17.723   1.078   4.544  0.0395 -0.0119  0.0221
22949W        W39133   6.977   8.018   3.224  0.1459 -0.1218  0.1333
22950W        W39134  14.271   2.702  14.526  0.4051  0.1961  0.1380
22951W        W39135   6.700   2.456  12.912  0.1662  0.1234 -0.1733
22952W        W39136   7.410   0.657  10.804  0.2015 -0.1615 -0.1671
22953W        W39137  16.138   9.356  12.502 -0.1894  0.1377 -0.0116
22954W        W39138   7.697   4.722   5.343 -0.0652 -0.1407  0.0111
22955W        W39139  11.155   5.197  14.311  0.2406  0.0039 -0.4150
22956W        W39140   4.629  14.292  15.530 -0.3724 -0.4501 -0.2672
22957W        W39141   9.569  14.687   0.601 -0.2722 -0.0071  0.1172
22958W        W39142   2.132   5.923   2.979  0.0990 -0.0524 -0.2352
22959W        W39143  14.452  11.229  11.112  0.2125 -0.1283  0.2178
22960W        W39144  10.187  14.819  11.523  0.1665 -0.2140 -0.3068
22961W        W39145  17.022  14.405  14.236 -0.2571 -0.0674  0.0749
22962W        W39146   7.962  17.408   5.083  0.0735  0.1850  0.3361
22963W        W39147   3.092  10.079   4.630  0.0388 -0.0569 -0.0100
22964W        W39148  13.235   7.031  12.385  0.1808 -0.1427 -0.1146
22965W        W39149   2.015  10.681   3.317  0.2425 -0.1240 -0.0820
22966W        W39150   0.791  11.127  13.714  0.0814  0.2667  0.1585
22967W        W39151  12.402  11.343   3.855 -0.0843 -0.0714 -0.0470
22968W        W39152   1.302  14.459  12.590 -0.4046 -0.0006 -0.0793
22969W        W39153  16.936   3.812   1.792  0.1389  0.0482 -0.1015
22970W        W39154  10.545  14.966   1.603  0.0815  0.1291 -0.0069
22971W        W39155   9.316   8.388   2.258  0.3234 -0.0106  0.0582
22972W        W39156  16.110  16.071  10.581 -0.1803  0.0528 -0.3437
22973W        W39157   7.403   9.284   5.487 -0.0144  0.4347  0.1916
22974W        W39158   6.871   7.259  14.623 -0.0602 -0.2494  0.1052
22975W        W39159   2.843  11.153   2.502  0.1666  0.1196  0.2238
22976W        W39160  14.874  15.398  12.975  0.1742 -0.0989 -0.0984
22977W        W39161  14.262   4.846  13.746  0.1043  0.0665  0.0114
22978W        W39162   4.118   3.108   5.039 -0.0289  0.2159 -0.1117
22979W        W39163  13.432   1.111   4.971 -0.0390  0.0170 -0.2706
22980W        W39164   0.943  14.302   0.767  0.0718 -0.3864  0.2618
22981W        W39165   7.277   7.561  14.876  0.2773 -0.1406  0.1615
22982W        W39166   1.523   0.206   4.267 -0.0830  0.0115  0.1760
22983W        W39167  10.888   4.882  15.511  0.0433 -0.0735  0.1321
22984W        W39168   5.588  16.417   2.666  0.0411 -0.0158 -0.0676
22985W        W39169   8.666   3.647   0.136 -0.1909 -0.3036 -0.3530
22986W        W39170   9.206   0.539  16.411 -0.1285 -0.0025  0.0378
22987W        W39171   1.154   3.099  14.775  0.1595  0.2680  0.1267
22988W        W39172  12.710   7.432   1.453 -0.0145  0.1917 -0.2201
22989W        W39173   8.163   8.042   3.790  0.0109 -0.2996 -0.0368
22990W        W39174   1.435   1.824   1.670 -0.1898  0.2388  0.0145
22991W        W39175   2.848  14.510  10.972  0.0415 -0.1506 -0.2284
22992W        W39176   3.783  11.143  10.621 -0.0409  0.0212 -0.1159
22993W        W39177   4.580   8.145   6.165  0.1161 -0.1027 -0.0298
22994W        W39178   5.634   6.342  16.462  0.1321  0.0116  0.4764
22995W        W39179   9.720   7.940  13.318  0.3025 -0.0572  0.3612
22996W        W39180  13.055  17.978   3.727  0.2828  0.1003 -0.0755
22997W        W39181   5.692   4.948  13.339 -0.1995  0.4091  0.0202
22998W        W39182   7.562  15.996  14.060 -0.2455 -0.1372 -0.0605
22999W        W39183   7.913   9.689  14.882  0.0993 -0.1849 -0.1595
23000W        W39184  14.622  10.394  12.007 -0.2533  0.0222  0.0064
23001W        W39185   1.845  17.229   0.286  0.4202  0.0690  0.1621
23002W        W39186   5.353  11.345   1.620  0.0059  0.3951  0.3690
23003W        W39187  11.126   8.351   0.373  0.4469  0.3448  0.2298
23004W        W39188   3.565   9.682   5.468 -0.2494 -0.3143 -0.1273
23005W        W39189  17.361   3.624   2.842 -0.2015  0.0880 -0.1776
23006W        W39190   1.903   0.206   2.199 -0.0519  0.0586  0.0072
23007W        W39191  11.795   9.475   1.733  0.1859  0.0537 -0.0755
23008W        W39192   2.805  11.559  13.676 -0.0158 -0.2841 -0.2442
23009W        W39193  13.207   6.272  12.772  0.2564  0.0394  0.0331
23010W        W39194  15.898   5.767   3.902 -0.1471  0.0264  0.0153
23011W        W39195  14.301  12.931  11.869 -0.0717 -0.1247 -0.1494
23012W        W39196   3.120   5.837   0.308  0.0644  0.2065  0.0337
23013W        W39197   8.308   5.214   3.669  0.1973  0.1647 -0.0387
23014W        W39198   8.135   7.539   4.032  0.1413 -0.1497 -0.0768
23015W        W39199  13.302   0.892   3.259  0.4029 -0.0847  0.2017
23016W        W39200  13.408   1.074  14.510  0.0220 -0.1165 -0.2054
23017W        W39201  16.171  16.913   5.244  0.0505 -0.0047  0.1816
23018W        W39202   8.803   1.807   3.891 -0.2336  0.0012  0.3379
23019W        W39203  14.786   9.326   4.668 -0.0652  0.0878  0.4500
23020W        W39204  17.864   6.467  12.832  0.0843 -0.0680  0.2736
23021W        W39205  12.922  17.897   4.493  0.0601 -0.2795 -0.1795
23022W        W39206  10.855   8.184   1.267 -0.1797  0.2170  0.0337
23023W        W39207  10.667  17.649   0.404  0.0699  0.0918  0.0986
23024W        W39208  16.530   4.911  13.128 -0.2275 -0.0546 -0.3436
23025W        W39209   4.901   9.931   4.724  0.0639  0.4825  0.4599
23026W        W39210  14.149  15.588  12.821 -0.0122 -0.2151 -0.0444
23027W        W39211   0.917  11.073  14.769 -0.2107  0.3475 -0.2587
23028W        W39212   3.534  13.764   1.054  0.2596 -0.1235 -0.1291
23029W        W39213   1.116   7.310   4.247 -0.2646  0.1608  0.3096
23030W        W39214   8.969  10.968   0.684 -0.0964 -0.1417  0.1856
23031W        W39215   4.131  11.315  13.131 -0.1266 -0.0994 -0.0559
23032W        W39216  15.901  12.252   4.475  0.2213  0.0280 -0.0899
23033W        W39217   7.216   2.834  13.047 -0.2306  0.0508  0.0766
23034W        W39218   0.113   4.296   2.997  0.0623 -0.1903  0.1830
23035W        W39219   1.299   1.532   2.647 -0.3273 -0.1175  0.1284
23036W        W39220   2.629   3.964   3.405 -0.4209  0.0156  0.0355
23037W        W39221   6.967  14.501   1.609 -0.1096  0.0092  0.2543
23038W        W39222  17.684  10.383  14.424 -0.0624 -0.4541 -0.1655
23039W        W39223  17.329   7.347   4.370  0.3372  0.0890 -0.1220
23040W        W39224  12.440   2.853  14.177 -0.0419  0.3318 -0.2652
23041W        W39225   8.252  11.633   0.922  0.2915 -0.0975 -0.1046
23042W        W39226  11.270   7.709  13.329 -0.4914  0.1654  0.0778
23043W        W39227  15.344  12.680  16.655  0.3042 -0.1790  0.3018
23044W        W39228  10.579   0.280   2.955  0.2543 -0.1265 -0.0197
23045W        W39229   5.199  10.517   5.156  0.0017  0.0676  0.1586
23046W        W39230  16.782  10.416  13.867 -0.0859  0.0916  0.0982
23047W        W39231  14.990  16.385  14.642 -0.2266 -0.1216  0.0556
23048W        W39232  17.386  15.173  16.290  0.2070  0.1458  0.3316
23049W        W39233   8.116  14.343   4.580 -0.1173 -0.0960  0.2066
23050W        W39234   7.975  16.177  11.850 -0.2709  0.2077  0.0477
23051W        W39235  17.461  13.459   0.732 -0.1407 -0.4012  0.0266
23052W        W39236   0.238  11.908   5.810 -0.0611  0.0836  0.0386
23053W        W39237  13.253   6.254  13.349 -0.1262  0.1318 -0.1515
23054W        W39238  17.302   0.163   3.614 -0.0130 -0.1983 -0.2789
23055W        W39239   4.199   6.424   6.406 -0.0260  0.1893  0.1350
23056W        W39240   1.615   8.874  14.426 -0.1000  0.0087 -0.1726
23057W        W39241  14.974   0.785   2.216 -0.2096  0.0751  0.0453
23058W        W39242   8.639  12.448   0.516  0.2528  0.1106  0.1943
23059W        W39243   3.965  13.684   1.958  0.2578 -0.1677 -0.2580
23060W        W39244  15.552  15.306  15.098 -0.0943 -0.1897 -0.3994
23061W        W39245  13.508  17.434   4.404 -0.0705  0.2436 -0.0224
23062W        W39246   9.677   2.526   2.422 -0.1500 -0.0472  0.0632
23063W        W39247  15.579  10.802   2.415 -0.0526 -0.0765  0.0647
23064W        W39248  16.529  16.870  12.716 -0.0063  0.0584  0.0642
23065W        W39249   2.253   5.009   3.399 -0.2212  0.1900 -0.3264
23066W        W39250   8.269  13.111  15.530  0.1293  0.1388  0.0945
23067W        W39251   7.793   0.358   3.187 -0.0938 -0.1063  0.0767
23068W        W39252   6.121   4.835   2.287 -0.1063 -0.0322  0.0166
23069W        W39253  11.700  16.605  12.416 -0.0974 -0.2932  0.0309
23070W        W39254  14.819   7.905  12.417  0.0117  0.1195  0.2182
23071W        W39255   3.319  11.493   5.812 -0.0254 -0.2127  0.3489
23072W        W39256   5.084  11.798  15.810 -0.2246  0.1725 -0.2627
23073W        W39257   0.081  17.286  11.256  0.2540 -0.4216  0.1680
23074W        W39258  12.578   8.827   1.301 -0.0875 -0.0011 -0.0572
23075W        W39259   6.472   7.921   0.226 -0.0276  0.0538 -0.2063
23076W        W39260  12.968  12.802  12.169  0.0572 -0.0098  0.3666
23077W        W39261   8.185  15.046   1.136 -0.1156 -0.0276 -0.0834
23078W        W39262   9.492   1.940   5.738  0.1520  0.2442 -0.1217
23079W        W39263   5.297  10.453   3.049  0.1276 -0.1776  0.0543
23080W        W39264  10.887  17.535  14.529  0.0718 -0.1078  0.0061
23081W        W39265   8.242  12.076   0.515  0.1300 -0.2386 -0.1187
23082W        W39266   6.038  11.194  15.939  0.2123 -0.2287 -0.0691
23083W        W39267   5.447  12.979   5.489  0.0087  0.2901 -0.0234
23084W        W39268   4.629   2.495   0.828  0.1839 -0.0917 -0.1122
23085W        W39269  11.317  17.884   3.583  0.0579  0.1102 -0.2177
23086W        W39270   6.906   2.409  15.342  0.1400  0.2337 -0.1939
23087W        W39271   5.033  17.845   1.751 -0.2878 -0.3475  0.3195
23088W        W39272   4.187   2.660   2.911 -0.2763 -0.1627 -0.1798
23089W        W39273   0.652  16.627   0.205  0.0570 -0.1566  0.2627
23090W        W39274  11.856  16.588  15.101 -0.2180 -0.2847  0.0866
23091W        W39275  13.981   7.900   5.975  0.2918 -0.0754  0.1144
23092W        W39276  17.544  12.724   2.403 -0.1698 -0.2847  0.2696
23093W        W39277   2.792   8.545   2.342  0.0680  0.0459  0.0273
23094W        W39278  17.230   7.907  16.640  0.0506  0.0303 -0.1669
23095W        W39279  11.545  16.901   0.593  0.1426 -0.2310  0.5464
23096W        W39280  10.637   4.742  14.416  0.2182  0.0606  0.0701
23097W        W39281   5.293   8.030  15.994 -0.1706  0.0830 -0.1154
23098W        W39282   0.691   4.622   0.438  0.0414 -0.1461 -0.3130
23099W        W39283   1.766   3.342  15.699  0.0518 -0.2129  0.2561
23100W        W39284   8.486  11.359  16.538  0.1567 -0.0015  0.2478
23101W        W39285   5.841  15.398  12.573  0.0169  0.1608 -0.1761
23102W        W39286  10.226  14.033   3.112  0.2214  0.1656 -0.0771
23103W        W39287  17.653   4.739   1.370  0.0324 -0.0469 -0.2553
23104W        W39288   8.138   7.508  16.458  0.0664  0.0397  0.4137
23105W        W39289  11.261  15.797  16.066 -0.0117  0.2080 -0.2653
23106W        W39290  14.888   8.218  12.881 -0.1383 -0.0651 -0.1340
23107W        W39291  13.260   4.247   1.997 -0.1435 -0.0163  0.2153
23108W        W39292   5.176  15.581  15.526  0.0455 -0.0371  0.2570
23109W        W39293  15.983   2.322  13.764 -0.0237 -0.0599 -0.0324
23110W        W39294  15.048  16.586  13.529 -0.0614  0.0084 -0.1377
23111W        W39295   1.314  11.528   4.656 -0.1994 -0.2767 -0.0647
23112W        W39296   4.941  11.955  14.268 -0.2959 -0.3309  0.1147
23113W        W39297   5.634  14.298  11.963  0.1784  0.0783  0.1016
23114W        W39298  11.972  11.363  12.203  0.0854  0.0715  0.1591
23115W        W39299  10.618  15.063  15.100  0.1000 -0.2192  0.2511
23116W        W39300   8.262  11.120  11.961  0.0838  0.0940 -0.1226
23117W        W39301   6.348   4.669  10.668 -0.1706 -0.0023  0.1103
23118W        W39302  11.253   4.914  14.715  0.0646  0.0496 -0.2904
23119W        W39303  11.959  11.972  14.679  0.3031  0.1397  0.1068
23120W        W39304   0.031   7.231   2.601  0.0080  0.2166 -0.1725
23121W        W39305   1.721   6.737  12.130  0.0174 -0.0221  0.2589
23122W        W39306  11.934   0.516  16.360  0.4308 -0.3989 -0.1417
23123W        W39307  12.354  10.454  11.632  0.0123 -0.0537  0.1942
23124W        W39308  14.029   8.873  16.669 -0.1193 -0.0836 -0.1891
23125W        W39309  15.895  12.816   3.571 -0.0968 -0.1717  0.3954
23126W        W39310  17.055   0.751  16.610 -0.2841 -0.1065  0.3279
23127W        W39311   7.112  14.027   0.653  0.0434  0.0264 -0.0457
23128W        W39312  10.756   0.415   2.503 -0.0202  0.2028  0.0753
23129W        W39313  17.775  10.187   2.246 -0.0857  0.2499  0.0932
23130W        W39314   0.525   2.467  14.834 -0.0504  0.0467 -0.3526
23131W        W39315  16.231  12.320   0.790 -0.2454  0.2835 -0.1406
23132W        W39316  13.874  14.939  15.527 -0.0015 -0.2580  0.0972
23133W        W39317   1.493   5.180  12.330 -0.0504 -0.4075  0.1108
23134W        W39318   8.429  15.354   0.191 -0.0462  0.2250  0.1452
23135W        W39319   2.754  13.109   3.458  0.1973  0.1701  0.5689
23136W        W39320   8.792  16.270   4.623 -0.1203  0.4492  0.1268
23137W        W39321   4.649  16.794   0.200 -0.1792 -0.0245  0.1573
23138W        W39322   6.002   6.902   6.062 -0.1389 -0.4985  0.0218
23139W        W39323   0.027  11.636  11.886  0.1672 -0.0139 -0.0849
23140W        W39324  12.466   6.580  14.806 -0.4835  0.0518  0.0552
23141W        W39325  13.398  12.179   5.724 -0.0204 -0.0184  0.3828
23142W        W39326  17.424  15.078  12.111 -0.1846  0.1396 -0.2026
23143W        W39327   3.108   8.589   2.700 -0.2458 -0.1292  0.0427
23144W        W39328  13.171  16.716   3.037  0.0481 -0.0344  0.0572
23145W        W39329  17.782  14.985   2.957  0.1119 -0.0942 -0.1318
23146W        W39330   5.019   7.379  14.526 -0.0358  0.0426  0.0161
23147W        W39331   1.338  17.038  13.695 -0.1152 -0.1446  0.0886
23148W        W39332   4.095   6.326   3.736 -0.1189 -0.2539 -0.0956
23149W        W39333  12.519   3.735   4.172  0.0166  0.2147 -0.0419
23150W        W39334  17.441   8.144  14.489  0.0141  0.1837 -0.3926
23151W        W39335   8.150   2.563   5.179  0.0177  0.0204  0.0663
23152W        W39336  16.259   9.024   4.680 -0.1073  0.0177  0.0949
23153W        W39337  14.268   7.107  13.710 -0.2655  0.1104 -0.4918
23154W        W39338   5.518  11.284  12.252  0.1274  0.0956 -0.0949
23155W        W39339  14.406   9.194  15.216 -0.1432 -0.2668 -0.2759
23156W        W39340  15.047   6.858   1.752 -0.1769  0.0538  0.2290
23157W        W39341   7.612   5.176   3.201 -0.1875  0.3877 -0.0610
23158W        W39342  14.312   3.818  15.043 -0.3866  0.4411  0.3373
23159W        W39343  14.739   5.217  16.399 -0.1596  0.4560 -0.0850
23160W        W39344   8.609   8.789  14.662 -0.0302  0.0370  0.2667
23161W        W39345  17.164   8.692  14.692  0.1585  0.0241  0.0224
23162W        W39346   3.526   9.091  15.517 -0.1062  0.0544  0.0904
23163W        W39347   7.698   5.402   6.421  0.2337  0.2322  0.0151
23164W        W39348  17.340  11.825   2.312  0.3313 -0.2240 -0.0408
23165W        W39349  16.353  12.054   1.230  0.0306 -0.0686 -0.0492
23166W        W39350   4.214  14.618  15.561  0.1226  0.0974 -0.0564
23167W        W39351  11.520   5.583   5.406 -0.0831  0.0877 -0.1700
23168W        W39352  16.236  11.102   1.348 -0.1920  0.1939 -0.2352
23169W        W39353  13.757   0.532  14.546 -0.2326  0.2351  0.2354
23170W        W39354  14.704  11.259  12.217 -0.0549  0.3071  0.0349
23171W        W39355   9.734   3.629  12.844  0.1121 -0.1904  0.1682
23172W        W39356  13.603   6.477   1.036  0.1264 -0.0830 -0.0404
23173W        W39357   9.962   1.967   5.880  0.1583 -0.0316 -0.0447
23174W        W39358   6.379  12.830  15.260  0.2109  0.0564 -0.0812
23175W        W39359  14.913   2.057  12.876 -0.1979  0.0805  0.1603
23176W        W39360   2.314  11.264  13.634 -0.0423 -0.1845 -0.1916
23177W        W39361   5.135   9.239   1.535 -0.1858  0.1725 -0.2856
23178W        W39362  16.591   0.869  14.405  0.3364  0.0881  0.1745
23179W        W39363  17.883  16.163  13.243 -0.3528 -0.1816  0.1189
23180W        W39364   1.426   7.837   2.572 -0.0016  0.2052  0.2821
23181W        W39365  12.909  16.669   0.624 -0.3014  0.1425  0.2633
23182W        W39366   3.389   1.026   2.939 -0.3074  0.1562  0.3602
23183W        W39367   5.331  16.436   3.425 -0.0261 -0.0644 -0.5218
23184W        W39368   6.393   6.740  11.889  0.1398  0.1796  0.2422
23185W        W39369   0.124  15.870  14.759  0.2202 -0.3011 -0.2903
23186W        W39370   9.904  17.412  12.183 -0.0789  0.2691  0.0684
23187W        W39371  16.712   1.157  13.590  0.0583 -0.0436 -0.3036
23188W        W39372   3.535   7.712   5.762  0.0040  0.0066  0.1565
23189W        W39373   5.415   1.960  15.142  0.0158  0.0443 -0.1619
23190W        W39374   6.778   7.967  13.301 -0.0759 -0.0666 -0.0971
23191W        W39375   0.980  11.915  13.192  0.2185  0.1752 -0.3860
23192W        W39376  14.296   5.499   2.522 -0.1305  0.0021 -0.0736
23193W        W39377   1.888   3.315   3.216  0.0241 -0.1351  0.0815
23194W        W39378   8.595   1.608   2.907  0.1857 -0.1570  0.0958
23195W        W39379  11.613  12.356  15.690 -0.0848  0.3047 -0.4247
23196W        W39380  15.435  13.940  11.890  0.0203 -0.0779  0.0595
23197W        W39381   7.819  11.858  11.736  0.1259 -0.1169 -0.0350
23198W        W39382  10.824   2.903  12.210  0.0918  0.1064 -0.0328
23199W        W39383   2.305  13.931  14.365  0.1543  0.0531  0.1352
23200W        W39384  10.991   9.179   0.476  0.1581 -0.0859 -0.1733
23201W        W39385  17.508   4.844   0.411  0.0283  0.0156 -0.0779
23202W        W39386  15.030   0.425   2.660 -0.1785 -0.2400  0.0083
23203W        W39387  12.499   0.956  11.737 -0.2415  0.0565  0.0064
23204W        W39388   3.263  13.367   2.254  0.1981 -0.0498 -0.0966
23205W        W39389  10.565   5.215  15.904 -0.1008  0.0110 -0.0767
23206W        W39390   2.169   4.729  14.978 -0.1489  0.0847  0.0047
23207W        W39391  14.724   1.162   4.648  0.0495 -0.2322 -0.2200
23208W        W39392  11.772   8.878   0.645 -0.0245 -0.1957  0.0038
23209W        W39393  15.793   8.236  13.775 -0.2791  0.0692  0.0452
23210W        W39394   8.105  12.449   5.547  0.1014  0.1640  0.0431
23211W        W39395  15.439  13.353   1.087  0.0936 -0.0946 -0.0462
23212W        W39396  11.402  16.393  14.740 -0.0689 -0.2985 -0.2448
23213W        W39397  11.886  16.265   5.100  0.0772  0.2150  0.3428
23214W        W39398   4.098  10.204  11.651  0.0044 -0.2552 -0.0798
23215W        W39399  11.713   2.751  15.218  0.1159  0.3520 -0.2116
23216W        W39400   2.225   5.684   0.614  0.0948  0.1586 -0.0475
23217W        W39401   8.041  10.505   3.465 -0.0039  0.0300 -0.4540
23218W        W39402  13.988   9.885   3.067  0.0786  0.0772  0.1160
23219W        W39403  14.909  13.538  14.247  0.2133  0.1854  0.2668
23220W        W39404   6.089   4.997  16.578  0.2007 -0.3114 -0.1827
23221W        W39405   6.819  12.195   0.269  0.1713  0.1205  0.0173
23222W        W39406  14.887   9.837   5.062  0.0920 -0.0238 -0.1879
23223W        W39407  15.370  16.252   5.616  0.3104  0.0239 -0.0547
23224W        W39408  11.516  14.028   0.636 -0.0470 -0.1537  0.0367
23225W        W39409   7.986   7.683  13.378 -0.1856 -0.2695 -0.1309
23226W        W39410   7.574   3.455  14.970 -0.1501 -0.2484  0.0487
23227W        W39411   7.356   2.797   0.021 -0.1533 -0.0705  0.0372
23228W        W39412   3.078   7.482  15.551 -0.1668  0.1503 -0.0214
23229W        W39413   8.973   4.781  11.984 -0.0172  0.3153  0.0799
23230W        W39414  14.587   9.927   2.402 -0.2820  0.0303 -0.3049
23231W        W39415   7.941  10.078  11.922 -0.3909 -0.0533 -0.0595
23232W        W39416   1.461   6.780  15.760 -0.0083 -0.0995 -0.1564
23233W        W39417  17.002   9.942  14.080  0.0033  0.1334  0.0170
23234W        W39418  14.863  13.033  14.177 -0.0024  0.0110  0.1160
23235W        W39419  13.688   3.656   2.754  0.3176 -0.2074 -0.1133
23236W        W39420  10.964   9.790   1.766  0.0945 -0.1114 -0.1558
23237W        W39421   5.185   0.835  13.969  0.2765  0.1364  0.0038
23238W        W39422   8.499  13.987  16.369 -0.0927 -0.1774  0.3310
23239W        W39423   6.093  13.749   4.507 -0.2321 -0.0490 -0.0487
23240W        W39424   6.745  11.383   4.684  0.0164 -0.0582  0.0182
23241W        W39425  15.507  17.057  11.939 -0.1427 -0.0820 -0.3052
23242W        W39426   9.246  13.286   2.755  0.0626 -0.2603  0.0725
23243W        W39427  11.340  15.867  14.813  0.0113 -0.4115 -0.1435
23244W        W39428  17.038  13.990   0.253  0.2834 -0.1812  0.1481
23245W        W39429  10.765  17.417  13.973  0.4510  0.0476 -0.1303
23246W        W39430  16.541  15.681  13.894  0.0596 -0.2769  0.0040
23247W        W39431   2.012   4.193  11.683 -0.1554 -0.0642 -0.0461
23248W        W39432   4.075   7.138  16.678  0.2553 -0.4016 -0.0066
23249W        W39433   1.742   1.614   2.104 -0.0978  0.0206  0.0521
23250W        W39434  17.879  15.046   0.487  0.0580 -0.1176  0.0510
23251W        W39435   6.172  15.676   5.565  0.2126 -0.0421  0.3021
23252W        W39436   1.491   2.518  12.191 -0.0742 -0.2667  0.3212
23253W        W39437  10.276   4.431  14.252 -0.0533  0.2481  0.2369
23254W        W39438  17.217  13.403  14.345 -0.0578 -0.3094  0.0187
23255W        W39439   8.757   5.772   2.767  0.2362 -0.2183 -0.1148
23256W        W39440   0.326   1.483   2.048 -0.1488  0.1610  0.2470
23257W        W39441  12.985   0.311  16.091  0.2172 -0.0928  0.0355
23258W        W39442   4.160   6.844  13.985 -0.0106 -0.1349  0.0171
23259W        W39443  10.625   5.064   4.257  0.0606  0.0177 -0.1318
23260W        W39444   4.189   4.911   1.714 -0.1666 -0.5034  0.0955
23261W        W39445   1.705  17.296   2.563 -0.1375  0.0040  0.0961
23262W        W39446   9.319  13.854  13.433  0.0005  0.1654 -0.1320
23263W        W39447   6.967  15.188   5.026  0.0161 -0.2601 -0.1451
23264W        W39448  13.316   4.894  13.055  0.0497  0.3882  0.0223
23265W        W39449   4.629   4.378   5.832  0.0450  0.1892  0.2495
23266W        W39450  17.696  10.382  11.406  0.0586 -0.0806  0.0483
23267W        W39451   1.941  10.683   4.880  0.1983  0.2587  0.0646
23268W        W39452   9.979  11.165   1.518 -0.0190  0.0703 -0.2121
23269W        W39453  17.915   8.277   2.523  0.1369  0.1150  0.0133
23270W        W39454   9.257   6.241   5.049  0.0154 -0.0154  0.0985
23271W        W39455   7.882  14.230  11.587  0.0855 -0.2126 -0.0632
23272W        W39456  17.032   9.867  15.167 -0.2991  0.1897 -0.1460
23273W        W39457   5.410   4.855  16.526  0.0742  0.0802  0.0849
23274W        W39458  17.195   9.335  16.340 -0.0688  0.1161 -0.2648
23275W        W39459  13.737  12.569   1.606 -0.0385 -0.0294 -0.1058
23276W        W39460   1.055   1.417   1.433  0.1245  0.2149  0.3201
23277W        W39461  12.537  10.861  11.334  0.0356  0.1095  0.1595
23278W        W39462   5.641  15.584   3.949  0.3126 -0.0684 -0.1127
23279W        W39463  13.778  16.790   5.589  0.1413  0.0527  0.3274
23280W        W39464   3.826  16.544   1.629 -0.3628 -0.3119 -0.0030
23281W        W39465   7.126   3.474  12.889  0.0633 -0.0205 -0.0699
23282W        W39466  17.230   6.170  12.023  0.0414 -0.0348 -0.3711
23283W        W39467  10.405   6.743   2.213 -0.3290  0.1200 -0.2060
23284W        W39468  11.301  15.516   0.358 -0.0807 -0.1576 -0.0538
23285W        W39469  10.498  17.525   4.589 -0.2040  0.0658  0.0213
23286W        W39470   4.357   9.618  14.394  0.0286 -0.0680 -0.0492
23287W        W39471   5.287   7.502  12.548 -0.2664 -0.0381 -0.0377
23288W        W39472   7.008   0.939  11.671 -0.0459  0.0486 -0.2050
23289W        W39473   8.822   6.344   5.333 -0.3246 -0.4999 -0.1252
23290W        W39474   5.636   4.111  13.720  0.0554 -0.0593  0.1781
23291W        W39475  10.894   8.242   4.168  0.2991  0.2974  0.0773
23292W        W39476  11.098  14.443  16.033  0.1342  0.1558  0.2387
23293W        W39477   5.466  12.531   2.214 -0.2305 -0.1349 -0.3068
23294W        W39478  16.568   1.125   2.272  0.1355  0.1924  0.3054
23295W        W39479   9.278  14.032   3.181  0.5303 -0.0916  0.0088
23296W        W39480   6.506   9.414  13.586 -0.0855  0.2111 -0.2442
23297W        W39481   8.943   2.770   0.763 -0.0546  0.0434  0.2242
23298W        W39482   6.707   2.169   2.989 -0.0271  0.2204 -0.3836
23299W        W39483  13.592   8.170  15.192 -0.2051 -0.1074  0.2437
23300W        W39484  16.779  16.127   3.277  0.2626 -0.1667  0.2397
23301W        W39485  11.863  14.398   5.363 -0.1208 -0.0189  0.2783
23302W        W39486   8.831  10.856  13.553  0.2316 -0.1089  0.0485
23303W        W39487   2.788   3.151   4.587 -0.0896  0.0551  0.2174
23304W        W39488   7.082  17.237   4.588  0.1263  0.0912  0.1607
23305W        W39489   8.196   5.787  15.725  0.0063 -0.2099  0.1199
23306W        W39490   5.479   3.580   0.923 -0.1219  0.1453 -0.0729
23307W        W39491  15.067  16.015   4.972  0.2497  0.0921  0.1407
23308W        W39492   1.176  12.987   6.294 -0.0549 -0.2026  0.0420
23309W        W39493  16.159   3.313   4.964 -0.1001  0.3087  0.0629
23310W        W39494   2.039  17.710   0.299  0.0324 -0.0942 -0.0321
23311W        W39495   8.706  17.302  12.226 -0.1175 -0.1695  0.0872
23312W        W39496   1.557  12.857  15.903  0.1195  0.0418  0.3211
23313W        W39497  13.032   7.269   4.311  0.2303  0.1179  0.1485
23314W        W39498  17.899   6.432  13.987  0.0558  0.1705 -0.0546
23315W        W39499  11.880  10.019  14.217 -0.0919 -0.2291 -0.4506
23316W        W39500   0.887   3.853   2.756  0.2089  0.1086 -0.1573
23317W        W39501  11.305  13.667   0.950  0.1330  0.1275 -0.0245
23318W        W39502  13.500  14.228  10.287 -0.1730  0.1824 -0.1454
23319W        W39503   9.171  11.444  12.059 -0.0826 -0.1741 -0.4729
23320W        W39504  15.431   5.534  14.890 -0.1589  0.1742 -0.1405
23321W        W39505   2.020   9.500   1.653  0.2205 -0.1351  0.3958
23322W        W39506   7.831   1.536  11.872 -0.0721  0.0689 -0.1300
23323W        W39507   5.919   7.274  12.449 -0.1679  0.1063 -0.1386
23324W        W39508   3.466   3.943  14.685 -0.0696  0.1107  0.2170
23325W        W39509  15.917   8.095   5.273  0.1173 -0.0003  0.1709
23326W        W39510  11.294   3.478  12.721  0.0688  0.2371 -0.1818
23327W        W39511   2.818   3.537   3.837  0.1140 -0.4339 -0.0367
23328W        W39512   7.292   4.377   3.681  0.0559 -0.2706 -0.0325
23329W        W39513  17.271  16.994   2.115  0.0853  0.2683  0.0783
23330W        W39514  11.553  17.973  13.583 -0.0314 -0.0606 -0.3057
23331W        W39515   7.016  10.346   4.613  0.2942 -0.1773 -0.0164
23332W        W39516   9.358   2.552   3.073  0.0264 -0.0943  0.1174
23333W        W39517  15.209   5.823   4.555 -0.1305 -0.1819 -0.1127
23334W        W39518   8.079  14.773   2.708 -0.1535  0.1000  0.0726
23335W        W39519   5.362  10.002  15.656 -0.0581  0.0818 -0.0674
23336W        W39520  14.287   7.732  16.393  0.1521 -0.1873 -0.2023
23337W        W39521  10.965  14.052  16.429  0.1581  0.5454 -0.1975
23338W        W39522  10.058  11.629  14.683  0.1320 -0.0731  0.3201
23339W        W39523   2.962  10.406   2.818 -0.2453 -0.0330  0.1641
23340W        W39524   8.375  13.889  13.856  0.0743 -0.0974  0.0039
23341W        W39525  12.464   4.841   1.762 -0.0718  0.1600  0.1975
23342W        W39526  14.283  13.642  12.901 -0.2161 -0.0200  0.0878
23343W        W39527  10.558   0.662  11.709  0.0176 -0.3641  0.3280
23344W        W39528   3.645   3.544  11.651 -0.0397  0.0954  0.1520
23345W        W39529  11.527   3.286   1.501  0.1511 -0.2121 -0.1088
23346W        W39530   1.588  15.908  13.773 -0.5571 -0.0279  0.0912
23347W        W39531   1.070  11.286  16.433  0.0609 -0.0297  0.3261
23348W        W39532  15.418   7.520  15.044 -0.2095  0.1645 -0.2516
23349W        W39533  13.004   4.658   1.158 -0.1279  0.2285  0.0257
23350W        W39534   3.679  17.025  14.781 -0.1966 -0.3023 -0.0231
23351W        W39535   1.659   5.835  12.628  0.1336  0.1415  0.2941
23352W        W39536   4.736   8.447  13.705 -0.0377 -0.1810 -0.4767
23353W        W39537   0.275  11.806  14.561  0.0583  0.1698  0.0623
23354W        W39538  10.688  10.313  15.251 -0.1683 -0.0980  0.0690
23355W        W39539  17.358   4.587   2.447 -0.3526  0.2837  0.0647
23356W        W39540  12.608   5.786  12.931 -0.3472 -0.2012  0.1462
23357W        W39541   4.234   1.987   4.702 -0.0117 -0.1277 -0.0230
23358W        W39542  10.027  17.297  12.744  0.0001 -0.2037 -0.1804
23359W        W39543  12.662   5.851   0.220  0.0425 -0.2869  0.0473
23360W        W39544  13.025   2.733   1.773  0.1136 -0.0388  0.0623
23361W        W39545   5.381   2.884  16.205 -0.2205  0.0567  0.1385
23362W        W39546   4.870  15.736   4.729 -0.3897 -0.1772  0.0348
23363W        W39547   2.340   8.552   3.715 -0.1925  0.1058  0.0059
23364W        W39548  11.303   9.455   4.743  0.0402  0.0482  0.1031
23365W        W39549   2.800  17.076   0.391 -0.0427 -0.2265  0.0808
23366W        W39550   8.093  14.385   2.419  0.0398  0.3022  0.2977
23367W        W39551   6.956   5.380   5.362 -0.1096 -0.1245 -0.3597
23368W        W39552   3.126   3.445   4.274 -0.0518 -0.0478 -0.1336
23369W        W39553  11.590  15.030   1.347  0.0065 -0.4398 -0.0643
23370W        W39554  12.012   8.201   1.935  0.1564 -0.1419 -0.0052
23371W        W39555  16.576  11.744  11.262 -0.3068  0.1498 -0.0928
23372W        W39556  11.784  14.615  14.784  0.0918  0.0652 -0.1392
23373W        W39557   3.639   3.028  11.635 -0.1238  0.0902  0.2624
23374W        W39558   4.103   8.464   5.552 -0.0212 -0.0518  0.2501
23375W        W39559  17.012   1.668   1.615 -0.0228  0.1277  0.1614
23376W        W39560  14.430   9.966  11.846 -0.1565 -0.0590 -0.1916
23377W        W39561  16.179  14.248  11.506  0.0457 -0.0180  0.1472
23378W        W39562   8.419   0.425  15.928 -0.1849 -0.3415  0.1620
23379W        W39563   3.521   9.120  16.592 -0.0215  0.1233  0.1186
23380W        W39564  12.727  13.134  16.199  0.1718  0.0066  0.1771
23381W        W39565  14.508  14.054   1.922  0.0404  0.2393 -0.2243
23382W        W39566   5.451  14.418   4.119 -0.4564  0.0054 -0.0081
23383W        W39567   0.753   3.585   5.870  0.0355 -0.0454  0.0101
23384W        W39568  17.364   0.742   4.496 -0.1402  0.0172 -0.2759
23385W        W39569   2.755   1.734  15.761  0.1991 -0.2485 -0.1775
23386W        W39570   7.335   2.776   1.288  0.1492  0.2138 -0.1224
23387W        W39571  17.074  17.413   4.256  0.2603  0.0476 -0.0353
23388W        W39572   4.129  14.037  13.856 -0.3601 -0.1058  0.0124
23389W        W39573  13.143  12.355  12.682  0.3174  0.0633  0.0748
23390W        W39574  15.349  16.680  14.792 -0.0372 -0.0806 -0.1277
23391W        W39575   8.791   5.402   3.408 -0.0128 -0.1052  0.0305
23392W        W39576   1.112  11.012   3.274  0.0233  0.1129 -0.2642
23393W        W39577  11.410   4.162   2.986 -0.2301  0.1750 -0.0357
23394W        W39578  17.310  13.612   1.220 -0.1724  0.2536  0.3410
23395W        W39579  15.573   5.360  11.321  0.0256  0.1307  0.0949
23396W        W39580   3.074   6.577   5.797 -0.1207  0.1642  0.0241
23397W        W39581  14.791   5.878  12.489 -0.2205  0.0594 -0.1992
23398W        W39582   9.399  11.820  11.831  0.1278  0.0589  0.0217
23399W        W39583   6.749  10.962   1.702  0.3255 -0.2769 -0.1407
23400W        W39584   4.672  14.569  12.977  0.0920  0.0893  0.1208
23401W        W39585  14.098   8.423   2.450  0.1900  0.1869 -0.0201
23402W        W39586  17.305  12.367   1.502  0.0916 -0.1390  0.0043
23403W        W39587   6.564  12.558  11.728 -0.1323 -0.0496  0.1239
23404W        W39588   1.960   9.811   3.389  0.1721 -0.0391  0.1594
23405W        W39589  10.121  13.585  16.322  0.0074 -0.0043  0.2860
23406W        W39590   2.147   3.365  13.465  0.1277 -0.1011 -0.1319
23407W        W39591  15.483   3.580  11.652  0.0475  0.1627  0.0083
23408W        W39592   1.222   7.620  16.028  0.0433 -0.1747 -0.2750
23409W        W39593  17.977   1.754  11.038 -0.2736 -0.2293  0.0994
23410W        W39594   9.224   4.616  13.715 -0.0923  0.4056  0.2503
23411W        W39595   0.287  17.140  12.686  0.3631 -0.1275  0.0578
23412W        W39596   0.428  17.719   6.208 -0.0136 -0.1335  0.2202
23413W        W39597  10.490  16.390   5.110  0.1147  0.1570  0.1595
23414W        W39598   2.626   5.922   5.203 -0.1617  0.1130 -0.1908
23415W        W39599  17.601   9.619   1.720 -0.1038  0.2141 -0.2678
23416W        W39600  14.017   5.489  13.167  0.1678 -0.1841  0.1467
23417W        W39601   8.115  13.807   1.048 -0.1249  0.2242 -0.3203
23418W        W39602   0.235   9.067   5.263 -0.3789  0.0473 -0.3566
23419W        W39603  17.765   9.311  14.683  0.0592  0.0112  0.0868
23420W        W39604   9.381   4.973  11.663 -0.1805  0.0913  0.0389
23421W        W39605   6.302  12.971   2.451 -0.0043 -0.0155  0.1528
23422W        W39606  15.396   4.465   5.601  0.0006  0.0072  0.0311
23423W        W39607   0.953   7.906   5.722  0.1261 -0.0092 -0.1050
23424W        W39608   5.471  16.856  12.446  0.0902 -0.0563  0.0068
23425W        W39609   9.781  12.989  15.687  0.1951  0.2199 -0.2818
23426W        W39610   4.418  11.323  15.700 -0.0009 -0.1497  0.0220
23427W        W39611  13.521  16.241  12.437  0.1736 -0.0127 -0.0855
23428W        W39612   4.047   5.597  11.923 -0.1540 -0.0171  0.0314
23429W        W39613  12.380  17.276   5.208  0.1116  0.1121 -0.1843
23430W        W39614   2.195   8.141   2.038 -0.0616 -0.0830  0.1745
23431W        W39615  12.279   0.581  14.589  0.3130  0.0829 -0.1501
23432W        W39616  10.926   0.040   1.592 -0.1672 -0.1065  0.0879
23433W        W39617   9.040   0.364   1.502 -0.1640  0.0304 -0.0340
23434W        W39618   8.072   6.450  14.008  0.2105  0.1325 -0.0362
23435W        W39619  11.786  13.608   0.718 -0.0830  0.2361 -0.2469
23436W        W39620  14.967   9.859   1.610 -0.2456  0.1690  0.2508
23437W        W39621  14.846   7.749   2.590  0.1156  0.1869  0.1115
23438W        W39622   1.353   5.432   0.901  0.3751 -0.0219  0.2273
23439W        W39623   5.326   7.339  16.464 -0.2440  0.2199  0.0464
23440W        W39624  14.628  16.243  14.971 -0.1625 -0.0908 -0.0997
23441W        W39625   0.852  15.881  11.312  0.1601 -0.3347 -0.2673
23442W        W39626   9.695   4.232   1.373 -0.1590  0.1174 -0.0998
23443W        W39627  12.430  15.432   5.597  0.2760 -0.2063  0.2957
23444W        W39628   3.419   5.273  13.956 -0.0300  0.0863 -0.2148
23445W        W39629  11.200  15.369  12.126  0.1690  0.2140  0.3198
23446W        W39630  12.895   4.443   1.613 -0.1217  0.0805  0.0040
23447W        W39631   5.025   5.253   1.624  0.5104  0.4941  0.1384
23448W        W39632  15.134   2.397  13.592 -0.0838  0.2081  0.3734
23449W        W39633   5.517   5.412  14.257 -0.0270  0.0892 -0.3081
23450W        W39634  13.352   9.355   0.653  0.2158  0.0214 -0.3357
23451W        W39635   4.440   9.847  11.995 -0.2377  0.6355  0.0495
23452W        W39636   5.593   1.594  15.456 -0.0189 -0.2608  0.1348
23453W        W39637  17.970  12.010   0.935 -0.0998 -0.0533  0.2246
23454W        W39638  13.234  10.583  13.599  0.0448  0.0837  0.1212
23455W        W39639  17.588   2.060   4.379  0.0922  0.1582  0.2193
23456W        W39640  14.286  13.602   4.341  0.1776  0.0046  0.0728
23457W        W39641   2.098  15.554  12.770 -0.0004  0.3330 -0.4022
23458W        W39642   1.449  12.436   2.229 -0.0663  0.0473  0.2875
23459W        W39643   2.557  10.271  11.908  0.0514 -0.4106 -0.0680
23460W        W39644   8.022   3.827   2.318 -0.1773  0.1196  0.4367
23461W        W39645   9.009   7.108   4.143 -0.0049  0.3022  0.0162
23462W        W39646   9.467   2.439  13.434  0.3840 -0.1582  0.0008
23463W        W39647   7.547   0.917   1.071 -0.3739  0.1128  0.0246
23464W        W39648   4.952  10.127  14.430 -0.0130  0.1287  0.2045
23465W        W39649  10.026   0.651   3.805 -0.0209  0.1064 -0.0447
23466W        W39650  11.839   1.231   3.846  0.0061  0.3321  0.2020
23467W        W39651  17.480   1.555  16.127 -0.0705  0.0110 -0.2250
23468W        W39652   9.502  16.335  13.808  0.1967 -0.3387 -0.2085
23469W        W39653   0.040   4.898   4.464 -0.0925 -0.0179  0.0592
23470W        W39654  17.858   8.764  15.869  0.0018  0.0156  0.1811
23471W        W39655  11.233  15.101  13.737 -0.1504  0.1724  0.1018
23472W        W39656   3.986  15.078  11.673 -0.1458  0.0574  0.0828
23473W        W39657   0.518  15.558   3.759 -0.0246  0.0822 -0.1528
23474W        W39658   6.466  12.170   1.580 -0.1807  0.3003 -0.1614
23475W        W39659   8.040   5.370   4.671 -0.0910  0.1525  0.1761
23476W        W39660   4.204  17.790   4.077 -0.4815  0.2314 -0.2569
23477W        W39661   3.160   3.979   0.538  0.0774  0.0145 -0.2274
23478W        W39662  14.077   6.135  13.789  0.0201 -0.3318 -0.1105
23479W        W39663  17.900   4.740  14.231 -0.5445  0.1918  0.2375
23480W        W39664   2.829   1.750   4.737 -0.0856  0.2802  0.0047
23481W        W39665   7.950   9.170   1.014  0.1325 -0.2869  0.0691
23482W        W39666   6.122   0.735  14.465 -0.2475  0.0108 -0.4236
23483W        W39667   5.433  17.738  15.737 -0.2456  0.0206 -0.1295
23484W        W39668   3.365  16.004   3.172 -0.1733 -0.2530  0.0932
23485W        W39669  16.582   8.629  14.640 -0.1421  0.0338 -0.0433
23486W        W39670  16.398   4.805   5.334  0.2463 -0.1352  0.2614
23487W        W39671   0.827   0.645   0.325  0.0799  0.2347 -0.1573
23488W        W39672   2.165  11.629   2.093 -0.0804  0.0568 -0.2808
23489W        W39673   9.855   5.224   1.425  0.1148  0.1796  0.1550
23490W        W39674  11.669   2.409  12.148 -0.1380 -0.2497 -0.0241
23491W        W39675   0.941   5.471  13.795  0.3008 -0.0225 -0.3056
23492W        W39676  16.602   2.892  15.891  0.0725  0.2137 -0.0567
23493W        W39677   8.083   9.487  13.750 -0.6368 -0.0821  0.1102
23494W        W39678  12.259  10.363  14.894  0.1232  0.0370 -0.1067
23495W        W39679   0.322  17.896  13.881 -0.2324  0.0303 -0.1147
23496W        W39680   0.829  16.416  11.303  0.0717  0.2185  0.2517
23497W        W39681   9.476   6.563  13.691 -0.1121  0.0069 -0.0009
23498W        W39682  13.331  11.505  13.754  0.3250  0.3181 -0.1199
23499W        W39683  16.621   6.684   4.041  0.2816 -0.1084  0.1771
23500W        W39684  16.017  15.791   5.201 -0.0851 -0.2895 -0.1723
23501W        W39685  13.102   2.220  13.002  0.4607  0.0459 -0.3994
23502W        W39686  10.788   6.891   2.500 -0.3417 -0.1493 -0.1931
23503W        W39687   9.718  12.449   5.391 -0.2010  0.0600 -0.1191
23504W        W39688   2.247   5.767   2.507  0.1258 -0.1957 -0.0929
23505W        W39689  15.044   9.089   2.836 -0.1434  0.0599  0.1054
23506W        W39690   0.521   0.801  16.541 -0.3883  0.1502  0.0356
23507W        W39691   5.405   8.379   5.014 -0.0424  0.1456  0.2660
23508W        W39692  17.314  11.110  13.469 -0.0613  0.0655  0.0269
23509W        W39693  11.276  10.188   0.887 -0.1078 -0.0436 -0.2336
23510W        W39694   2.704   7.058  14.941 -0.0417  0.2464  0.1794
23511W        W39695  15.506   5.967   3.612  0.1097  0.1505 -0.1282
23512W        W39696   2.766   7.567  12.162 -0.1066  0.5127  0.2709
23513W        W39697   4.796  15.159  15.137 -0.1257  0.0577  0.0714
23514W        W39698  11.967   9.123  16.260 -0.2980  0.0214  0.0766
23515W        W39699   7.245  11.166   4.666 -0.0291 -0.3326 -0.2775
23516W        W39700  11.748  10.833   0.744  0.2863  0.2352 -0.0611
23517W        W39701   3.768  10.382  15.365  0.2290  0.2260 -0.0213
23518W        W39702   7.229  10.857  14.872  0.0277 -0.0058 -0.0374
23519W        W39703  15.766   8.283   4.766 -0.1523 -0.0464  0.1513
23520W        W39704  13.562  15.879  14.808  0.1729  0.2095 -0.1573
23521W        W39705   2.420  17.049  11.245  0.0236  0.1923 -0.1966
23522W        W39706  13.879  16.533  14.751 -0.1099 -0.2768  0.1583
23523W        W39707   5.062   3.723  15.913  0.0110  0.2868  0.1595
23524W        W39708  10.873   9.911   2.599  0.1562 -0.0357  0.1737
23525W        W39709  15.245   0.501  13.534  0.1551 -0.0714 -0.2436
23526W        W39710  12.761   5.181  16.083  0.2227 -0.2610 -0.1438
23527W        W39711   4.572   1.277   3.156  0.0005 -0.0875 -0.4170
23528W        W39712  12.297   7.987   3.224  0.1450 -0.0711 -0.0120
23529W        W39713  10.612   4.036  14.370  0.2562 -0.2173  0.1436
23530W        W39714  14.367   8.617   0.922  0.1390 -0.0961  0.0657
23531W        W39715   2.490   1.008  13.130  0.0329  0.1958  0.0416
23532W        W39716   5.801   1.135   1.489 -0.1262  0.0743 -0.0585
23533W        W39717   0.111  12.555   4.564  0.1530 -0.2035 -0.2501
23534W        W39718  14.489   3.321  12.687  0.0295 -0.0873  0.1390
23535W        W39719   5.565  15.177   1.613  0.0319 -0.1206 -0.2099
23536W        W39720   6.006  16.198  15.653  0.0818 -0.0351  0.1220
23537W        W39721   6.631   4.464   1.762  0.1086  0.2203 -0.0916
23538W        W39722  12.172   4.647   4.522  0.0974  0.0952 -0.1867
23539W        W39723   9.960  15.646   3.704 -0.1578  0.3007  0.1712
23540W        W39724   9.062   8.584  13.006 -0.0118  0.0972  0.4075
23541W        W39725   1.647  10.262   4.189 -0.1045  0.1701 -0.1142
23542W        W39726   9.708  10.932   5.183  0.3483 -0.0925 -0.0744
23543W        W39727  14.352   7.953  14.084  0.2318  0.3636 -0.1397
23544W        W39728   4.131   0.767  13.522  0.0371  0.1235  0.4098
23545W        W39729  12.480   6.105  14.699 -0.3181 -0.0692  0.2023
23546W        W39730   4.119   2.442  14.707 -0.0417 -0.0061 -0.0300
23547W        W39731  15.399   3.763   2.182 -0.0699  0.0697 -0.0362
23548W        W39732  16.652   2.056  16.620  0.2763  0.1139 -0.2670
23549W        W39733   4.424  12.595  14.094  0.1146 -0.5256 -0.0075
23550W        W39734   6.051   8.640  16.223  0.0471  0.0099  0.1291
23551W        W39735   6.070   1.614  16.346 -0.0580  0.1234 -0.2181
23552W        W39736   4.033   0.418   6.193  0.2587 -0.1021 -0.3529
23553W        W39737   8.977  13.420   3.623 -0.0755 -0.2910  0.2269
23554W        W39738   0.459   9.248  15.308 -0.0902 -0.1970 -0.2945
23555W        W39739   7.069  17.070   2.029 -0.0332 -0.2360 -0.0973
23556W        W39740  10.410   8.005  11.917  0.3716 -0.2205 -0.1935
23557W        W39741  12.844  17.446  16.004  0.0245  0.1697  0.1641
23558W        W39742  10.016   7.331  12.599 -0.0457  0.1816  0.0243
23559W        W39743   4.649  11.283  16.246 -0.2064  0.1417 -0.2546
23560W        W39744   3.115  12.089  15.441 -0.2419 -0.0458 -0.1566
23561W        W39745   7.257   9.780   5.852 -0.1559 -0.0008 -0.2428
23562W        W39746   8.054   1.571   2.738 -0.2056  0.2896  0.0108
23563W        W39747   7.795  10.823   2.786  0.0239  0.0597 -0.0901
23564W        W39748   8.341   6.123  14.383 -0.0792  0.0667  0.0817
23565W        W39749  10.510   2.687   2.519  0.2008 -0.1169  0.1964
23566W        W39750  10.232   9.511  15.081  0.2119  0.2016 -0.0506
23567W        W39751   3.891  15.077   4.912 -0.0840 -0.3490  0.2205
23568W        W39752   9.142  14.554  15.390  0.1142 -0.1388 -0.2548
23569W        W39753  10.507  11.248   5.995 -0.1035 -0.0802  0.3494
23570W        W39754  17.819  17.894  12.135 -0.1355  0.0715 -0.0429
23571W        W39755   7.099   2.397  13.304 -0.0129 -0.0378  0.2356
23572W        W39756   5.425  16.609  11.194 -0.1642 -0.1490  0.0627
23573W        W39757  12.234   9.578   0.860 -0.1198 -0.0620 -0.0953
23574W        W39758   6.991  11.674  15.699  0.1696 -0.0633 -0.0181
23575W        W39759  14.459  13.166  14.437  0.0335 -0.2899  0.1491
23576W        W39760  10.275   8.231  13.626  0.2425  0.2010 -0.0485
23577W        W39761   0.224  12.798  12.940 -0.2068  0.4395  0.2944
23578W        W39762  17.965  17.309  16.663  0.0148 -0.2212  0.0761
23579W        W39763  15.884  17.932  10.193 -0.1344 -0.0597  0.1788
23580W        W39764   2.304  10.276   3.960  0.2395  0.0192  0.1228
23581W        W39765  11.756   3.354   2.570 -0.3497 -0.0143  0.3128
23582W        W39766   5.172   5.271   0.112 -0.2975  0.0844  0.1204
23583W        W39767   4.745  16.196  15.834 -0.0826  0.2143 -0.0658
23584W        W39768  10.014  17.018   3.330  0.1031  0.0288  0.1183
23585W        W39769   9.924  17.881  13.711  0.1512 -0.2581  0.0880
23586W        W39770   0.625   9.077   2.299  0.0332 -0.2517 -0.0385
23587W        W39771  16.728   7.609   3.302 -0.1266 -0.4645 -0.0678
23588W        W39772  10.917   3.054  13.544 -0.2782 -0.2983 -0.1284
23589W        W39773   3.262  10.362   5.062 -0.3429 -0.0622  0.0955
23590W        W39774   0.725  16.445   3.668  0.0138 -0.1955 -0.2012
23591W        W39775   2.657  15.397   3.270 -0.1881  0.0602 -0.1772
23592W        W39776   3.890  16.521   0.563 -0.0990  0.3327 -0.1361
23593W        W39777  11.772  12.254  15.109  0.1131 -0.1082 -0.1351
23594W        W39778   7.838  17.733   2.955  0.0958  0.0508  0.1446
23595W        W39779   7.794   5.984   1.287 -0.0014 -0.0089  0.1061
23596W        W39780   7.417   7.748   2.324  0.0276 -0.1337  0.0340
23597W        W39781   0.138  13.710   3.103  0.3651 -0.1579 -0.1557
23598W        W39782   2.566   1.367   4.531  0.2194  0.5672 -0.1909
23599W        W39783   9.699  16.694  14.251 -0.0172  0.1606 -0.1282
23600W        W39784  11.114  11.538   0.986  0.0043  0.1625  0.0643
23601W        W39785  15.769   7.644  15.321  0.1070  0.0098 -0.1013
23602W        W39786   0.102   2.360  13.297 -0.0290 -0.1574  0.0275
23603W        W39787  15.418   1.191   2.965  0.0090  0.1248 -0.0352
23604W        W39788  17.387   1.903   5.292  0.2641 -0.2221  0.2876
23605W        W39789   3.326  15.406   0.990  0.2696  0.1542  0.0668
23606W        W39790   3.691  17.734   3.295  0.1107  0.0100  0.4148
23607W        W39791  14.003  17.652   3.380  0.1464 -0.1341  0.0612
23608W        W39792  13.149   9.588  15.230 -0.1380  0.1523 -0.1620
23609W        W39793   8.462   3.988  12.603 -0.0052  0.0572  0.2039
23610W        W39794   9.517   9.039   0.806 -0.2047  0.0147 -0.0376
23611W        W39795  13.757   3.297  11.765 -0.0855 -0.0412  0.0609
23612W        W39796   8.382   5.025   2.238  0.0201 -0.0018 -0.5088
23613W        W39797   7.307  12.407  13.084 -0.1583  0.1345  0.1989
23614W        W39798  14.465   0.708  11.697  0.0080 -0.1262 -0.0782
23615W        W39799  14.522   1.641   1.220 -0.1426 -0.0713  0.1926
23616W        W39800   4.903  15.693  12.346  0.0075 -0.0476  0.0268
23617W        W39801   6.533   4.792  15.834 -0.0229 -0.2519  0.1920
23618W        W39802  10.717  12.254   6.290  0.2467  0.1161  0.2716
23619W        W39803  10.158  12.221  15.130  0.0552 -0.2370 -0.3106
23620W        W39804  11.383   0.223  16.170 -0.1173 -0.1396  0.0547
23621W        W39805   4.632   0.211  12.916  0.1079 -0.1073  0.0110
23622W        W39806   8.488   4.237  15.121  0.2823  0.1823 -0.1485
23623W        W39807  14.500   4.858  11.389  0.0623 -0.0484  0.2676
23624W        W39808   0.426  12.197  14.850  0.0714  0.0370  0.2152
23625W        W39809  12.760  13.442  11.110 -0.0228  0.0879  0.2617
23626W        W39810   7.562   9.115  12.778 -0.1968 -0.2140  0.3849
23627W        W39811  10.777   4.552   4.023 -0.0201 -0.3844 -0.4123
23628W        W39812  10.414  11.289  12.291  0.4170  0.0433 -0.2297
23629W        W39813   1.013   2.549  11.829  0.2254  0.0794 -0.0051
23630W        W39814  10.029  12.538   0.611  0.0056 -0.3036  0.0967
23631W        W39815   6.516  13.009  15.860 -0.0195 -0.2614 -0.1401
23632W        W39816   4.780  13.283  13.593 -0.4610  0.1783  0.0411
23633W        W39817  17.458   7.687   3.701  0.3569  0.0415  0.4228
23634W        W39818   3.843   0.977   0.703 -0.0530  0.0095  0.0269
23635W        W39819  17.627  17.081  11.333  0.0187 -0.3826 -0.1250
23636W        W39820   6.183  17.751   4.936 -0.0275 -0.2064  0.0404
23637W        W39821  17.851   0.161   2.821  0.2261  0.1049 -0.1551
23638W        W39822  15.160   3.964   2.575 -0.3027  0.3182 -0.1900
23639W        W39823  11.524   6.382  13.889  0.0228 -0.3727  0.0593
23640W        W39824  10.173   2.308   2.527  0.3236 -0.1720 -0.0143
23641W        W39825   8.702   7.732   0.741 -0.1372 -0.0021 -0.0850
23642W        W39826   3.477  17.549   0.339 -0.0953 -0.0790  0.1316
23643W        W39827   9.433   2.103  13.086  0.4782 -0.0722 -0.0762
23644W        W39828   2.201   3.006   1.325  0.3797  0.1658 -0.1285
23645W        W39829  11.364   3.638  13.159  0.1133 -0.0487 -0.2580
23646W        W39830   1.393  10.272   1.286  0.0812 -0.2482 -0.2267
23647W        W39831   9.278  12.740  14.956  0.4383 -0.1744  0.3487
23648W        W39832   6.993   9.251   2.572  0.1238  0.0438 -0.2782
23649W        W39833  13.586  15.660   3.653 -0.2847  0.2337 -0.0415
23650W        W39834  17.323   2.368   5.515 -0.0883  0.1197 -0.0276
23651W        W39835   1.020   4.964  13.539  0.1384  0.0785 -0.0545
23652W        W39836  14.344   0.367  15.651 -0.4064 -0.0528 -0.0391
23653W        W39837  14.083  15.935   4.808  0.0439 -0.0765 -0.1166
23654W        W39838  15.926   6.050   5.254 -0.1211 -0.2181  0.2151
23655W        W39839   5.915  15.164  10.331 -0.3029  0.0264  0.1735
23656W        W39840  15.184   9.880   2.545 -0.2317 -0.1280 -0.0175
23657W        W39841  16.655  13.980  16.060  0.0844 -0.0844  0.2760
23658W        W39842   2.284  11.961   2.443  0.3079 -0.0657  0.0170
23659W        W39843   5.127  10.902   5.494 -0.2523  0.0553 -0.1048
23660W        W39844  17.748   8.878  13.078  0.1994 -0.1562  0.0458
23661W        W39845  17.648   8.501  12.727 -0.0224 -0.1372  0.2362
23662W        W39846  15.971   2.790   0.850  0.0720  0.1800 -0.1899
23663W        W39847   1.386  15.942   3.063  0.1178 -0.1977 -0.1524
23664W        W39848   6.406   1.612  11.922 -0.0807 -0.0348  0.1712
23665W        W39849  14.997   0.232   1.546  0.1632 -0.0178 -0.3290
23666W        W39850   6.963  13.411   1.385  0.4245 -0.0629 -0.2851
23667W        W39851  14.796   2.288   0.351 -0.1558  0.0397 -0.3322
23668W        W39852   8.624   5.055   1.712  0.0096 -0.0057 -0.3180
23669W        W39853  11.815  11.639  15.082 -0.2833  0.2039 -0.0787
23670W        W39854  11.975  12.835  15.117  0.1128 -0.1883 -0.1061
23671W        W39855   2.052  15.851   0.701  0.1127  0.0551 -0.3617
23672W        W39856   9.135   8.480   0.119  0.0948 -0.1271 -0.2223
23673W        W39857  15.459   9.789   3.827 -0.0119 -0.0513  0.0627
23674W        W39858  12.971  13.719   1.660 -0.1018 -0.0152  0.1153
23675W        W39859   4.535  11.772   5.243  0.0498  0.1774  0.0375
23676W        W39860  10.056   9.611  14.298 -0.2123  0.0850  0.0196
23677W        W39861   8.700   1.575   1.306  0.4058  0.2659  0.0740
23678W        W39862  15.903  17.018  13.403  0.3540 -0.2167  0.0843
23679W        W39863  14.749  16.381   4.740 -0.1828 -0.5014 -0.0034
23680W        W39864  15.623   5.124   1.240  0.1805 -0.1898 -0.0555
23681W        W39865  13.012  15.188  11.973  0.0545 -0.0730  0.2514
23682W        W39866  17.465   3.031   1.617  0.2716 -0.0107 -0.3290
23683W        W39867  16.099   5.411  16.019  0.0074  0.2556  0.0328
23684W        W39868  10.366   1.062   4.117 -0.2383  0.1297  0.0991
23685W        W39869   5.469  10.726   4.800 -0.0290 -0.2057  0.0406
23686W        W39870   4.147  11.701  13.531 -0.0598 -0.3076  0.2111
23687W        W39871   4.212   3.255   0.925  0.1834 -0.0385 -0.1160
23688W        W39872  12.077  16.966  12.617 -0.2002 -0.2606  0.1081
23689W        W39873  14.257   4.341   1.465 -0.3954  0.0940  0.2737
23690W        W39874  11.090   0.169  15.150  0.1767 -0.1826 -0.2601
23691W        W39875   3.778  11.803   2.170  0.0698 -0.1702 -0.0294
23692W        W39876   9.253  16.659  14.534  0.2464 -0.1283  0.1654
23693W        W39877  17.666  14.749   1.769  0.3334 -0.0225  0.0232
23694W        W39878   5.352  10.732   0.758 -0.1195  0.4417 -0.1860
23695W        W39879  13.540   6.648   5.026 -0.2096 -0.0776 -0.0088
23696W        W39880   7.307   9.326   3.794 -0.2088 -0.1627  0.0539
23697W        W39881   5.135  15.948   2.224 -0.1278  0.2818  0.2892
23698W        W39882   5.633   2.485   4.701 -0.0429 -0.1472 -0.3658
23699W        W39883   9.438   5.370   1.729 -0.1160  0.1997  0.1255
23700W        W39884   0.907  16.272   3.240  0.1053 -0.0395 -0.3451
23701W        W39885   5.666   8.851  13.380 -0.0617 -0.0702 -0.2055
23702W        W39886  13.353   3.533  13.155  0.1083  0.0088  0.2675
23703W        W39887   2.059  17.445   4.733 -0.0169  0.1043 -0.0728
23704W        W39888  14.905   1.727   0.746  0.0591  0.0231  0.1478
23705W        W39889   6.517  14.409  15.203 -0.0506 -0.1520  0.2788
23706W        W39890   1.865   0.853  12.631 -0.0131  0.0999  0.3011
23707W        W39891   2.462  17.762   0.904  0.0355  0.2490 -0.2958
23708W        W39892   9.685   9.281   4.185 -0.3139 -0.1648 -0.0239
23709W        W39893  14.797   7.504  16.649  0.0736  0.3265  0.0896
23710W        W39894   8.729   1.365  14.788 -0.0082  0.1958  0.1531
23711W        W39895   0.106  13.147  14.066 -0.0258 -0.0253 -0.0458
23712W        W39896  17.023  16.067   2.785  0.0889 -0.2040  0.3205
23713W        W39897   9.202   2.478  16.126  0.3723  0.2643  0.2133
23714W        W39898   9.562   6.266  13.297 -0.2412 -0.3212 -0.0345
23715W        W39899   6.365   1.849   2.177 -0.0760  0.3211  0.4016
23716W        W39900   5.883  15.070  12.148  0.0654 -0.2180  0.4634
23717W        W39901   0.572  17.650   1.244 -0.0531  0.0341 -0.0238
23718W        W39902  15.550   2.689  13.696  0.0269 -0.1884  0.2959
23719W        W39903   1.705  10.678  13.866  0.2070 -0.0640  0.0726
23720W        W39904  11.955   1.217  15.755 -0.3365  0.0149  0.1122
23721W        W39905  14.828  15.944   4.360  0.0359  0.2563  0.1646
23722W        W39906   6.984   6.745  12.887 -0.1430 -0.0483 -0.0913
23723W        W39907   6.870  10.835  12.148  0.0600  0.0632 -0.2883
23724W        W39908   9.192  10.433   3.938 -0.0828  0.2957  0.3118
23725W        W39909   4.888   3.387   0.672 -0.1519  0.4394 -0.0154
23726W        W39910  13.525   2.159  11.717 -0.2334  0.0784  0.0547
23727W        W39911  16.466   6.387   0.406  0.0572  0.1006 -0.5388
23728W        W39912  13.105  11.918  15.178 -0.0602  0.1192 -0.1487
23729W        W39913   4.053   0.539   5.728  0.0903 -0.2538  0.1917
23730W        W39914  15.283   6.503   0.180 -0.3631 -0.1861  0.0100
23731W        W39915  13.586   8.101  12.127  0.0583  0.3263  0.0249
23732W        W39916   8.724   7.377   5.053  0.0616  0.2250  0.1563
23733W        W39917   6.846  15.121  12.277  0.0146 -0.2532  0.1871
23734W        W39918   5.630   4.608  12.917 -0.1232  0.0287 -0.2194
23735W        W39919   9.921   1.557  14.021 -0.3550  0.1365  0.4730
23736W        W39920   6.579   4.970  12.327 -0.2467  0.0286  0.2045
23737W        W39921  10.967   4.848  12.551 -0.0752  0.0884  0.0564
23738W        W39922  16.499   2.736   2.105  0.2228 -0.2660  0.1259
23739W        W39923   4.274  15.304   1.646  0.2531  0.1042 -0.2843
23740W        W39924  15.482  16.438  14.373  0.4574  0.2696  0.1628
23741W        W39925  14.562  14.442  16.580 -0.0984 -0.0098  0.0912
23742W        W39926  12.998  14.109  13.422 -0.2590 -0.0797  0.2989
23743W        W39927  12.341  16.348   2.162  0.0082 -0.0982  0.1932
23744W        W39928   0.606   6.188  13.496  0.0774 -0.2596  0.3139
23745W        W39929   0.823  11.657   5.207  0.4980 -0.0189  0.1419
23746W        W39930   7.289  16.594  11.527  0.3439  0.2545  0.0766
23747W        W39931  16.024   8.827  11.468  0.1338  0.1860 -0.0981
23748W        W39932   6.366  17.770   1.495  0.0951  0.0470 -0.0602
23749W        W39933   0.738   9.663  12.687  0.2541 -0.4207  0.1443
23750W        W39934   4.205  14.137  12.920 -0.0055  0.0696 -0.2914
23751W        W39935   2.993   8.761   1.485  0.0671  0.2173 -0.1915
23752W        W39936  14.402   9.515   0.543 -0.0712  0.2897  0.1414
23753W        W39937   8.329  11.210  13.536 -0.0571 -0.1766  0.1570
23754W        W39938   4.938   3.608   2.524 -0.1498  0.0650 -0.2085
23755W        W39939   7.750   7.914   5.835 -0.1488  0.3188  0.1643
23756W        W39940   8.740   0.332  15.285 -0.0776 -0.3900 -0.0948
23757W        W39941   9.638   8.804   0.364  0.5687  0.4441 -0.1633
23758W        W39942  14.857   9.949  12.167 -0.2951  0.0059  0.1656
23759W        W39943   6.109   2.907  15.360  0.0145 -0.0348  0.1269
23760W        W39944  11.473   3.018  13.554 -0.1870  0.0999 -0.2903
23761W        W39945   3.107   3.000  16.303  0.2480 -0.0049  0.0358
23762W        W39946   9.780  15.990  13.170 -0.0530  0.1237  0.2117
23763W        W39947   9.975  12.448  14.275  0.3523 -0.1397  0.0828
23764W        W39948  13.099   4.527  16.478  0.2863  0.1433  0.0623
23765W        W39949   2.295   0.496  13.090 -0.0371 -0.0218 -0.0482
23766W        W39950  17.411  13.757  15.334  0.0123 -0.1039 -0.1074
23767W        W39951   9.663   9.828   0.535  0.3033  0.0633 -0.2460
23768W        W39952  12.398  17.454   1.201  0.0672 -0.0421 -0.1128
23769W        W39953  16.861  13.865  16.468  0.1673 -0.2187 -0.2459
23770W        W39954  16.874  15.242  13.564  0.0916  0.3596 -0.0010
23771W        W39955  10.270   8.507   0.915 -0.0498 -0.1548  0.1844
23772W        W39956  16.114  13.274   1.717 -0.1698 -0.0893 -0.0767
23773W        W39957  14.181   9.192  15.731 -0.3248  0.0886  0.2857
23774W        W39958   0.912  14.978   0.425 -0.0103  0.1334  0.0753
23775W        W39959  13.920   8.227   4.407  0.2094 -0.0487  0.2499
23776W        W39960   4.564  17.886  16.260 -0.1840  0.0744 -0.3286
23777W        W39961  14.388   9.464  16.050 -0.0888  0.2208  0.0936
23778W        W39962  10.124  14.853  15.485  0.0570 -0.1367 -0.0639
23779W        W39963  15.368  13.699   5.231  0.1413 -0.3525  0.4576
23780W        W39964   1.715  13.952   1.313  0.0645  0.1551  0.1670
23781W        W39965   4.909  14.784  16.487 -0.1008 -0.2650 -0.0637
23782W        W39966  15.141  17.440  12.046 -0.1175  0.0508 -0.1415
23783W        W39967   7.926   9.088   1.955 -0.3370  0.1265  0.1389
23784W        W39968   0.807   9.866   5.973 -0.1135  0.1392 -0.2179
23785W        W39969   2.665   2.971  12.985 -0.0713  0.3205  0.2872
23786W        W39970   5.327   0.027  11.556  0.0307 -0.0340  0.1897
23787W        W39971   8.924   6.510   4.814  0.1745  0.1572  0.0785
23788W        W39972   2.945  12.417   2.152 -0.0050 -0.4954  0.2307
23789W        W39973   3.463  16.798  12.044 -0.1511  0.0440  0.0147
23790W        W39974   3.818   7.709  13.093  0.0750  0.1166 -0.0169
23791W        W39975   5.778   7.581   4.924  0.0940  0.3166  0.1256
23792W        W39976   4.988  11.094   6.023 -0.1958  0.1174 -0.1320
23793W        W39977   6.587   7.001  13.744 -0.1005 -0.1810  0.0717
23794W        W39978   8.408  15.729  16.440  0.2848  0.0957 -0.1112
23795W        W39979  17.938   9.679  12.677  0.1195  0.1936  0.0412
23796W        W39980  10.840   6.429  12.692  0.0184  0.0796 -0.1741
23797W        W39981   6.437   3.457  16.560 -0.0864  0.0471  0.4710
23798W        W39982   8.124   6.593   4.091  0.0328  0.0073 -0.0649
23799W        W39983  15.495   8.340  15.422 -0.1607 -0.1159  0.1352
23800W        W39984  11.045   5.671  15.013  0.2328  0.0796 -0.1611
23801W        W39985  12.115   1.042   3.457 -0.0659 -0.0149  0.0663
23802W        W39986  13.244   3.102   3.124 -0.1794  0.1753 -0.2136
23803W        W39987  11.452   0.227   1.843 -0.1693 -0.2223 -0.3688
23804W        W39988  16.658   9.124   5.608 -0.0136 -0.0970  0.0667
23805W        W39989   5.033  11.662  13.859  0.1255  0.2181  0.0589
23806W        W39990   3.248   7.496  12.114  0.0522  0.1096 -0.0784
23807W        W39991  14.545   6.335  15.168  0.1378  0.0483  0.2613
23808W        W39992   6.402  10.938   4.992  0.0832  0.1051  0.0559
23809W        W39993  17.422   1.952  15.470  0.0983 -0.0315 -0.0098
23810W        W39994  12.645  11.136  14.881  0.1525 -0.1808  0.0497
23811W        W39995  11.865   9.480   0.547 -0.2613 -0.1892  0.1563
23812W        W39996  14.388  17.503   3.109  0.1340 -0.2237  0.0590
23813W        W39997  16.595  13.008  15.866 -0.1182  0.0408 -0.1678
23814W        W39998  12.404  12.401   1.959  0.4227 -0.0608 -0.1109
23815W        W39999   0.230  10.228   4.430 -0.1138  0.2451  0.1143
23816W        W40000  10.835   6.757   5.582 -0.2668 -0.0573  0.0139
23817W        W40001  13.240  16.207   2.985 -0.0761 -0.0222  0.0798
23818W        W40002  17.348   2.936   0.845  0.2606 -0.0451 -0.2072
23819W        W40003   3.701  15.891   2.211  0.2403  0.2229  0.2463
23820W        W40004  14.661  14.268   5.386  0.0247  0.3678 -0.2393
23821W        W40005  13.932  15.759   0.067  0.0189 -0.0022  0.0467
23822W        W40006  13.630  13.064  15.960 -0.0918 -0.1771 -0.1507
23823W        W40007  14.419  13.890  15.089 -0.1209  0.3078 -0.0905
23824W        W40008  14.058   1.328  16.648 -0.2656  0.1584  0.5228
23825W        W40009   8.743   1.057   2.379 -0.0693  0.1952  0.0106
23826W        W40010   0.773  17.037  15.398 -0.1418  0.0405 -0.2158
23827W        W40011  14.771  12.578   2.779  0.0581 -0.0563 -0.2486
23828W        W40012   1.449   8.825   5.109 -0.0890 -0.1491 -0.0663
23829W        W40013  17.379  14.747   2.784  0.0761  0.0789  0.2190
23830W        W40014  15.704   3.326  15.178 -0.3541 -0.0510  0.0603
23831W        W40015   7.107  11.759   6.398  0.0367  0.1318  0.1884
23832W        W40016   5.819   4.143   5.130  0.0756  0.0082 -0.0903
23833W        W40017  14.805  12.605  13.899 -0.0699 -0.2496  0.2527
23834W        W40018   1.954  11.409   4.105 -0.0439 -0.1624  0.0481
23835W        W40019   3.934   1.454  15.712 -0.1013 -0.2144 -0.4979
23836W        W40020  16.259   0.796   3.398 -0.1473  0.0617  0.1355
23837W        W40021  13.281  11.124   3.131 -0.0595 -0.2374  0.1657
23838W        W40022  13.368  17.226  14.047 -0.1752 -0.1805 -0.2750
23839W        W40023  11.428  17.964   1.422  0.3473  0.2338 -0.2775
23840W        W40024   2.315  12.846   3.305  0.0941 -0.2566  0.0558
23841W        W40025  11.085   3.233  13.138  0.1461  0.4173  0.0044
23842W        W40026   5.728  12.184  15.659 -0.2226  0.0464 -0.0974
23843W        W40027   3.655  12.255  13.053 -0.1485  0.2473 -0.4038
23844W        W40028  13.944  13.062   2.785 -0.0768 -0.0382  0.1043
23845W        W40029   9.071   5.067   3.209 -0.0864  0.1253  0.2570
23846W        W40030   9.000  15.227   2.622 -0.0656  0.1727 -0.1023
23847W        W40031  13.607   8.872   1.406  0.1367 -0.1045  0.2757
23848W        W40032  11.669   0.194  14.021 -0.0640  0.0781  0.1666
23849W        W40033   3.505  14.169   5.465  0.1657  0.1072 -0.1508
23850W        W40034   7.848   7.793   1.743  0.3487 -0.2341 -0.2069
23851W        W40035  17.089   2.969   1.268 -0.0810 -0.2012 -0.0148
23852W        W40036   6.568   3.028   1.609  0.1486  0.3248 -0.3514
23853W        W40037   5.797  12.840  14.872 -0.3841  0.4702  0.1982
23854W        W40038   5.260   9.681  14.239  0.0548  0.1030 -0.1997
23855W        W40039  13.365  15.199   3.720  0.0505 -0.0524  0.1818
23856W        W40040   7.886   8.864   0.602  0.2037 -0.3366 -0.0860
23857W        W40041   3.923   3.108  16.348 -0.2503 -0.0583  0.0829
23858W        W40042   4.650   7.023  13.153 -0.0351 -0.0540  0.4098
23859W        W40043   0.039   5.627   1.974  0.0779 -0.1061 -0.0755
23860W        W40044  13.151   5.930  15.109 -0.1498 -0.1569  0.3589
23861W        W40045   3.413   0.872   0.475  0.1743  0.0801  0.0692
23862W        W40046   9.441   6.985   3.410 -0.0348 -0.0181 -0.0210
23863W        W40047  15.670  15.800  11.897  0.1431 -0.0766 -0.0788
23864W        W40048  13.686  10.919   2.831  0.0144  0.2510  0.0375
23865W        W40049  13.067   4.855  11.636  0.0793  0.1451  0.1113
23866W        W40050  15.642  12.013  15.368 -0.0215 -0.3491  0.0305
23867W        W40051  13.075  12.781  14.409 -0.3374 -0.2532  0.1175
23868W        W40052   1.176   5.303   5.330 -0.1103 -0.4965  0.0561
23869W        W40053   2.043  13.807   4.199  0.1254  0.0387 -0.0356
23870W        W40054   3.586   0.529   2.820 -0.0237 -0.1109  0.1272
23871W        W40055  10.815  11.910  15.885 -0.0022 -0.1148 -0.0454
23872W        W40056   8.704   5.854  13.618 -0.1671  0.0862 -0.1104
23873W        W40057  10.289  12.033  14.691 -0.1791 -0.1144 -0.3225
23874W        W40058  17.121  10.132   0.137 -0.1938 -0.1607  0.1022
23875W        W40059  11.122   0.781   6.329 -0.0994  0.0810  0.3177
23876W        W40060   9.145  17.219  14.650  0.1790  0.2296  0.2700
23877W        W40061   8.719  13.387   3.123 -0.1957 -0.1391  0.0188
23878W        W40062   5.825   7.100  12.002  0.0983  0.1989 -0.0650
23879W        W40063   4.067   6.734   2.564 -0.3879 -0.0572  0.1799
23880W        W40064   3.713   1.211   1.115  0.1485 -0.2898  0.2857
23881W        W40065   6.201  14.273   4.718  0.1687 -0.0297 -0.2156
23882W        W40066  10.204  10.443  11.060 -0.0427  0.2626 -0.1748
23883W        W40067  16.706   4.218   0.373 -0.0902 -0.1087 -0.1607
23884W        W40068   6.779   6.650   2.864 -0.2114  0.3817  0.1423
23885W        W40069  11.453  17.462  12.715 -0.1465 -0.0742 -0.3299
23886W        W40070  16.141   2.694   5.547 -0.0192 -0.0315 -0.1112
23887W        W40071   7.958  12.447   1.385 -0.5220  0.0345  0.0889
23888W        W40072  14.425  17.498   2.164 -0.2091  0.3506  0.0782
23889W        W40073   5.192  14.557   0.906 -0.0432 -0.1587 -0.2323
23890W        W40074   3.550   0.254  13.769 -0.0877 -0.0517  0.0998
23891W        W40075   9.978   9.923   3.028  0.0455  0.0188 -0.1058
23892W        W40076  11.279   2.869   1.371  0.2929 -0.1988  0.3243
23893W        W40077   3.076  14.975   2.226 -0.2609 -0.1563  0.3012
23894W        W40078  11.452  14.425  12.553  0.2723 -0.2479  0.1207
23895W        W40079   6.287  12.396   4.335 -0.1235  0.2963  0.0364
23896W        W40080  12.085   2.571  14.841  0.2237  0.1827 -0.3303
23897W        W40081   2.532   6.258  13.719 -0.2873 -0.4660  0.1787
23898W        W40082  16.403   3.638   4.612 -0.1810  0.1543  0.0264
23899W        W40083   1.094  10.154   5.497 -0.1218 -0.0830 -0.1943
23900W        W40084   7.024  11.787   5.798  0.0430  0.0283 -0.4520
23901W        W40085   2.787   2.595   2.342 -0.0731  0.1858 -0.0549
23902W        W40086  16.851  16.333  10.908  0.2102 -0.2043 -0.2778
23903W        W40087   7.440   2.412  16.183  0.1916 -0.1516 -0.1244
23904W        W40088   4.013   5.891  12.324 -0.0253 -0.2246 -0.0137
23905W        W40089   9.186   4.744  15.133  0.2263  0.1956  0.1502
23906W        W40090  12.841  12.068   0.331 -0.0515  0.2248  0.0095
23907W        W40091  16.398   5.843  14.023 -0.1879  0.0206  0.1601
23908W        W40092   4.004  17.530   3.586 -0.1999  0.2638 -0.1942
23909W        W40093  16.223   5.653   4.308  0.1673  0.1984  0.1565
23910W        W40094  14.893  16.652   2.167 -0.0762  0.1044 -0.1395
23911W        W40095   9.123  14.304   5.176  0.0041  0.1473 -0.2343
23912W        W40096  17.433  10.412   0.953  0.1554  0.1341  0.0256
23913W        W40097  17.923   8.120   1.677 -0.2958  0.3077  0.0207
23914W        W40098  14.550  12.274   3.708 -0.1058  0.0717  0.0816
23915W        W40099   3.229  16.836   5.542  0.1933  0.0397 -0.0058
23916W        W40100  11.538   9.865  14.536 -0.3479  0.0174 -0.0077
23917W        W40101  13.830  16.708   4.794 -0.1994  0.2625  0.0149
23918W        W40102  14.736  17.893   4.858  0.0159 -0.3900 -0.4164
23919W        W40103  14.457  17.790  11.394 -0.0696  0.1458  0.0173
23920W        W40104  12.877  15.746  11.864  0.0213 -0.0434 -0.0353
23921W        W40105   9.788  11.433   3.438 -0.1710 -0.2880  0.1506
23922W        W40106   1.491  17.332  12.789 -0.4118 -0.2003  0.0222
23923W        W40107  10.158   1.792   0.171 -0.2201 -0.0356 -0.0566
23924W        W40108  14.248  11.822  15.180  0.2240  0.0808 -0.3532
23925W        W40109   6.392   1.643  13.943 -0.1985  0.0654 -0.0804
23926W        W40110   5.156  10.493   3.563 -0.1256  0.2397  0.5278
23927W        W40111   6.687   5.314   3.368  0.0583 -0.2077  0.1088
23928W        W40112  15.341   9.709  14.931 -0.0707 -0.3017  0.1261
23929W        W40113  12.215   8.559  13.432  0.0300  0.0157 -0.0586
23930W        W40114  14.777  14.849  13.216  0.0853 -0.2070  0.0391
23931W        W40115   3.207   6.459   2.132  0.0267 -0.0165 -0.0277
23932W        W40116   7.454   5.116  12.671  0.2655 -0.1002 -0.0434
23933W        W40117  14.484  12.419   2.379  0.0972  0.0035  0.0892
23934W        W40118  14.672  17.956   1.942 -0.2048 -0.2070 -0.0924
23935W        W40119  12.146  17.664   5.449  0.2187 -0.0298 -0.3525
23936W        W40120   7.269  14.804  14.700 -0.0335  0.0408  0.0140
23937W        W40121   3.020   7.758   1.526 -0.1468  0.2372  0.3069
23938W        W40122   8.216   7.756   3.359 -0.1132 -0.1861 -0.0510
23939W        W40123  17.983   8.913  11.982  0.2026  0.1492  0.4275
23940W        W40124   4.153  16.970  15.106 -0.0691  0.3170 -0.0009
23941W        W40125  16.741   6.655   0.972 -0.0854  0.1220  0.0922
23942W        W40126   5.183  15.864  13.351 -0.1024  0.2358 -0.1043
23943W        W40127  11.866   4.636   0.117 -0.2920 -0.0043 -0.0822
23944W        W40128   2.448  14.082  11.843  0.1522  0.1825  0.2281
23945W        W40129   5.252  16.450  13.622  0.2261  0.1462 -0.1847
23946W        W40130   6.067  12.545   0.600  0.0089  0.1552 -0.1502
23947W        W40131   9.692   3.177   5.406  0.0907  0.0761 -0.4592
23948W        W40132  13.047   0.780   5.072  0.0521 -0.0017 -0.2101
23949W        W40133   0.341   1.704   5.237 -0.1942  0.0711 -0.1484
23950W        W40134   9.502  11.335  16.164 -0.2136  0.3037 -0.0662
23951W        W40135  10.930   8.987   4.917 -0.0130  0.1898  0.2487
23952W        W40136   6.806   8.619   3.249 -0.0300  0.0261 -0.2102
23953W        W40137   6.255   5.183   3.170 -0.3229 -0.0403  0.1642
23954W        W40138   5.345   6.149   4.392  0.0023 -0.2790  0.1280
23955W        W40139   8.650  15.004  14.485 -0.2371 -0.2629  0.3497
23956W        W40140   7.455   6.553   3.569  0.1540  0.2309 -0.0730
23957W        W40141   3.196   2.004   5.290 -0.0599 -0.2128 -0.3235
23958W        W40142  17.403   6.911  13.390  0.2507  0.0824 -0.0133
23959W        W40143   1.712  15.001   1.421  0.2926  0.0012  0.0126
23960W        W40144   2.515   8.650   2.714  0.3131  0.1518 -0.0078
23961W        W40145   5.304  14.312   2.654  0.1285  0.0016 -0.0103
23962W        W40146  12.615  14.870   3.161  0.0761 -0.2572  0.0244
23963W        W40147  15.114  13.594  11.644  0.1445  0.1907  0.2344
23964W        W40148  12.437  11.738   1.919  0.2592  0.2497 -0.3732
23965W        W40149   4.195   2.927   4.575  0.3157  0.2712  0.0798
23966W        W40150  16.283  11.717   3.312 -0.0566 -0.1012 -0.0429
23967W        W40151   2.438   0.245  16.474  0.2621 -0.3831 -0.1625
23968W        W40152  14.515   0.787   4.899  0.2926 -0.0912  0.1579
23969W        W40153   3.484   2.561   3.794  0.1842  0.1838  0.1485
23970W        W40154   2.987  13.226   5.181  0.0981  0.2900 -0.1780
23971W        W40155   5.826  14.488  14.964 -0.0771 -0.2695 -0.0597
23972W        W40156   1.612  16.408  12.750  0.1404 -0.0478  0.1631
23973W        W40157  16.021   4.717   1.676  0.0020  0.0896 -0.2384
23974W        W40158   2.075   3.227   5.174  0.0413 -0.0530  0.2277
23975W        W40159   5.051   7.169  13.502  0.1708  0.3608 -0.0090
23976W        W40160  17.078  11.705   4.462  0.2440  0.3256  0.2092
23977W        W40161   7.983   4.814  11.629 -0.2948 -0.3910 -0.0079
23978W        W40162  10.501   4.527   5.118  0.0106 -0.1027  0.3379
23979W        W40163  14.729   1.390   1.730 -0.2586 -0.1877 -0.0213
23980W        W40164   0.122   9.342  13.077 -0.1278  0.0230 -0.0021
23981W        W40165  13.303   3.951  12.339  0.1201 -0.0055 -0.1516
23982W        W40166  17.949   2.748   5.054  0.2405  0.1146  0.2204
23983W        W40167  12.810   1.550  14.137 -0.2808  0.0839 -0.2112
23984W        W40168   1.054   2.102   5.502  0.0922 -0.0275  0.3387
23985W        W40169   9.167  12.990  16.585 -0.1367 -0.0486  0.0059
23986W        W40170   4.058  11.106  14.954  0.0648 -0.4720  0.0080
23987W        W40171   1.538   6.436  14.703 -0.1302 -0.1788 -0.3251
23988W        W40172  10.997  16.531  15.487 -0.1834  0.0889 -0.1556
23989W        W40173  17.352  14.715  13.729  0.0856 -0.1346  0.5744
23990W        W40174  16.180  15.630  13.506  0.0711 -0.1037 -0.1529
23991W        W40175   9.772   5.126  13.776  0.2458  0.1939 -0.0578
23992W        W40176   0.195  10.621   4.760  0.2795 -0.0304  0.0967
23993W        W40177  13.498  14.852  12.455  0.0130 -0.1928 -0.1391
23994W        W40178   8.027   9.916   4.034 -0.3519 -0.1281  0.2793
23995W        W40179   8.870  16.930   5.587 -0.2398  0.1578 -0.1239
23996W        W40180  17.542   7.219  14.322 -0.3267  0.4160 -0.0284
23997W        W40181  13.825   3.262  15.495 -0.1392 -0.1592  0.2581
23998W        W40182   4.708  11.633  12.057  0.3036  0.1754 -0.0454
23999W        W40183   5.099   2.145  12.460  0.2066 -0.1380  0.0827
24000W        W40184  10.292  14.574   0.159  0.0527 -0.3733  0.0233
24001W        W40185   1.166  17.375  11.079  0.0232  0.2265  0.1990
24002W        W40186  10.599   5.732   5.076  0.2646  0.0656  0.1755
24003W        W40187   4.169   2.876  11.931  0.0922  0.2032 -0.2061
24004W        W40188  15.979  16.253   0.427 -0.1090 -0.1571  0.2189
24005W        W40189   2.926   2.617   3.881  0.0622 -0.1140  0.1475
24006W        W40190  15.639   1.935   0.879 -0.0597  0.2237  0.1398
24007W        W40191  11.052   9.402  13.374 -0.0582  0.2270  0.0912
24008W        W40192  10.775   7.709  11.899  0.2083 -0.0721 -0.2339
24009W        W40193   1.687   8.088  14.274 -0.1885 -0.1554  0.1591
24010W        W40194  10.566  14.873   1.086 -0.0738 -0.0034  0.0142
24011W        W40195   4.849  17.379  14.581  0.2408 -0.3261 -0.2121
24012W        W40196   3.441   9.534  15.210  0.2749 -0.2624 -0.1476
24013W        W40197  14.597   7.397  12.375 -0.3161 -0.0561 -0.0536
24014W        W40198  12.083  10.408   0.043 -0.2924 -0.0444  0.2608
24015W        W40199   6.476   1.992  14.358  0.5840  0.0014  0.0970
24016W        W40200   5.139   7.157  12.853 -0.0544 -0.1344 -0.1790
24017W        W40201   1.850  15.223  13.388 -0.1927 -0.1637 -0.2484
24018W        W40202   0.812   4.974  14.520 -0.4120 -0.0092 -0.3068
24019W        W40203  15.007  14.523   4.162  0.1309 -0.1730  0.2001
24020W        W40204   2.697  17.295   3.214 -0.2728 -0.1673 -0.1997
24021W        W40205  13.118   3.336   5.854 -0.0968  0.1066  0.2319
24022W        W40206   5.660   5.966   3.031 -0.0431  0.1125  0.0817
24023W        W40207  15.498   2.010  15.370 -0.1499  0.2120  0.3400
24024W        W40208   7.353   6.245   2.533 -0.0420  0.0103  0.2692
24025W        W40209   2.307  12.990  11.713  0.0839  0.1428  0.1750
24026W        W40210   7.147  17.413   2.491  0.1221  0.2602 -0.1107
24027W        W40211  16.671  11.305   0.067 -0.1446  0.0742  0.3804
24028W        W40212   6.608   9.398   5.343 -0.0241  0.0451 -0.0293
24029W        W40213  16.889   3.808   2.797  0.2151  0.3060  0.1292
24030W        W40214   3.383  14.932  13.696  0.3174 -0.0224 -0.2534
24031W        W40215   7.931  15.118  14.165  0.1457  0.0663  0.2882
24032W        W40216   3.451  14.196  16.252 -0.1843 -0.1101  0.1302
24033W        W40217  16.231   0.715  13.762 -0.1728 -0.1000  0.1305
24034W        W40218   5.719  17.636  13.066 -0.3201  0.1565 -0.1440
24035W        W40219  16.183   9.067   1.707  0.3377  0.2992 -0.2066
24036W        W40220   3.396  13.133  13.615 -0.1382 -0.2504 -0.1424
24037W        W40221  13.471   8.486   0.614 -0.1328  0.0089  0.3061
24038W        W40222   8.714  11.147   0.250  0.0815 -0.0177 -0.1038
24039W        W40223   6.106   8.918   4.617  0.1167 -0.0207 -0.0383
24040W        W40224  16.795   0.267   3.801  0.0679 -0.3156  0.1184
24041W        W40225  16.551  12.984   1.733 -0.0719 -0.0013  0.2191
24042W        W40226  12.563  11.792  16.017 -0.0314 -0.0635  0.0811
24043W        W40227   8.387  14.892  15.359 -0.0636 -0.0036  0.2649
24044W        W40228   1.817  13.362  11.844  0.1854  0.2156 -0.1118
24045W        W40229  13.235   3.975  16.505  0.1656  0.0027 -0.0439
24046W        W40230  12.189   1.266  13.013  0.3692 -0.1223 -0.1082
24047W        W40231  11.224  15.835  16.557 -0.2304 -0.3553 -0.1873
24048W        W40232  12.673   2.536   5.728  0.0973  0.0786  0.1650
24049W        W40233  14.436   5.259   1.091  0.0065  0.1070 -0.2188
24050W        W40234   5.369   5.175  13.106 -0.1131 -0.2169  0.1390
24051W        W40235   1.924   1.393   3.543 -0.0104 -0.0361 -0.0953
24052W        W40236  10.878  11.686  12.065 -0.1444 -0.0065  0.0625
24053W        W40237   2.187  13.922  13.896  0.2433  0.3323  0.1215
24054W        W40238   6.442   8.812   1.866 -0.0184 -0.0321  0.2647
24055W        W40239   9.615   8.176  12.844 -0.0170  0.2342  0.1350
24056W        W40240   4.143   4.400   5.689 -0.2891 -0.2894 -0.3541
24057W        W40241  11.272   0.000   5.350  0.1021  0.0675 -0.3752
24058W        W40242  16.050   1.206   4.729 -0.1255  0.0265  0.3140
24059W        W40243   8.804  10.261   5.074 -0.3328  0.1685  0.1924
24060W        W40244   0.964  15.413  16.299 -0.0420 -0.1508  0.2325
24061W        W40245  10.947  12.604  15.199 -0.1281  0.3363 -0.0757
24062W        W40246   7.607  13.647  11.632 -0.0184 -0.2213  0.3800
24063W        W40247   1.610   1.033   4.755  0.0235 -0.1732  0.0955
24064W        W40248   8.558   8.962  13.768  0.1692 -0.0969 -0.0091
24065W        W40249   5.484  15.454   3.462 -0.1977  0.1433 -0.1228
24066W        W40250   4.534   3.482   1.322  0.0491  0.3254  0.0398
24067W        W40251  17.698   6.359  12.346 -0.1831  0.0342  0.1557
24068W        W40252  10.390  11.552  15.699  0.1811 -0.0723 -0.3684
24069W        W40253   6.942  14.642   5.081  0.0005  0.0809  0.0540
24070W        W40254   0.489   0.702  12.408  0.0154  0.1227 -0.2487
24071W        W40255   2.220  12.114  14.215  0.1623  0.1356  0.1458
24072W        W40256   3.624   1.922   5.490 -0.3290  0.0286 -0.3130
24073W        W40257   4.454  13.154  15.562  0.1146  0.0683 -0.1368
24074W        W40258   2.470   5.537   1.987 -0.0367 -0.3514  0.1800
24075W        W40259  16.395   7.250   4.902  0.0765  0.1062 -0.1096
24076W        W40260  16.858   2.155  13.703 -0.0795  0.4908  0.0863
24077W        W40261   7.315   8.673  12.873  0.0599  0.0891  0.1355
24078W        W40262  10.981  15.540  12.573 -0.0209 -0.3746  0.0141
24079W        W40263   1.951  16.192   5.565 -0.2766 -0.1524  0.1597
24080W        W40264   6.982  13.905  11.646  0.2759  0.3026  0.2340
24081W        W40265   8.359   4.136   5.912  0.0301 -0.2847  0.1881
24082W        W40266  10.504  10.024  12.935 -0.0403  0.2412  0.0458
24083W        W40267  10.786   0.427  13.715  0.0383  0.1178 -0.2056
24084W        W40268   8.887   3.145   0.415  0.1427  0.0919  0.2440
24085W        W40269   3.561  15.312   4.031  0.0985  0.1986  0.2558
24086W        W40270  16.082   1.693  13.192 -0.2170  0.1387 -0.0636
24087W        W40271   6.471   7.523  15.654  0.0346 -0.0777 -0.2861
24088W        W40272  15.076   6.872   0.453  0.1320 -0.1593  0.0285
24089W        W40273  15.405  15.300   6.081 -0.0672 -0.1893 -0.1394
24090W        W40274   6.456  14.944  15.325  0.0250  0.2152  0.3243
24091W        W40275  11.398   7.077   5.741 -0.1801  0.0473  0.0804
24092W        W40276   4.838   9.773  13.566  0.1261  0.1664  0.1625
24093W        W40277   8.601  11.847   1.215  0.3131  0.1037  0.0067
24094W        W40278   4.000  12.564  13.688 -0.0636  0.0194 -0.1397
24095W        W40279   3.917   1.723  16.575 -0.0210 -0.0677  0.1242
24096W        W40280   5.331   1.505  15.053  0.3049  0.2164  0.0589
24097W        W40281   9.518  13.123  15.001 -0.5868 -0.3187  0.2046
24098W        W40282  12.433   1.913   2.179 -0.2688  0.1814 -0.3664
24099W        W40283   4.039   5.962  13.563 -0.0734 -0.0536  0.1134
24100W        W40284  10.679  17.468   3.499  0.0635 -0.1873 -0.1548
24101W        W40285  17.519  15.790  15.606  0.2527 -0.1149  0.0251
24102W        W40286  10.577   0.008  16.140 -0.1329 -0.0729 -0.0140
24103W        W40287   7.552   9.365   0.017 -0.2585  0.0630 -0.0535
24104W        W40288   1.648  14.173  15.228 -0.0218 -0.0074 -0.1707
24105W        W40289   8.643  16.632  13.088 -0.1697 -0.0760  0.0283
24106W        W40290   3.093   7.435   1.147 -0.1607  0.0907  0.0143
24107W        W40291  13.556  10.672   3.598 -0.0749 -0.0418 -0.0593
24108W        W40292  14.814   1.602  16.372 -0.1925  0.0718  0.3228
24109W        W40293  16.051  12.522  16.245  0.0109 -0.0585  0.1253
24110W        W40294   6.794  13.869  13.151 -0.0251 -0.1881  0.0483
24111W        W40295  14.845   0.495  15.654  0.0884 -0.0502 -0.5049
24112W        W40296   3.206   5.759   2.129 -0.0104 -0.0109 -0.2931
24113W        W40297  11.113   1.966   4.415 -0.2773 -0.0056 -0.1509
24114W        W40298   8.813   3.623  12.807 -0.0505 -0.3564  0.2521
24115W        W40299  13.922   6.443   1.691  0.3465 -0.0743 -0.0872
24116W        W40300  14.102   9.791   2.577 -0.0685 -0.1070  0.0590
24117W        W40301  12.510   8.722  12.885  0.1364 -0.2375  0.0162
24118W        W40302  12.936   0.910   1.643 -0.1520  0.0225  0.0456
24119W        W40303  15.741   0.034   0.829  0.2786  0.1442 -0.0299
24120W        W40304   0.337   8.677  11.627 -0.2785  0.0271  0.3002
24121W        W40305   4.816  12.950   2.789  0.2105 -0.1029 -0.0037
24122W        W40306  11.260   4.558  13.828  0.0354  0.0367  0.3498
24123W        W40307   5.152   7.730   4.019  0.3090  0.2555 -0.1466
24124W        W40308   1.793   1.761   1.186 -0.1895 -0.1562 -0.1694
24125W        W40309   4.495   5.620  15.011 -0.0257 -0.0272  0.4080
24126W        W40310   0.528  13.624   1.233  0.0794  0.0818 -0.0645
24127W        W40311   0.083   5.389   3.482 -0.1642  0.0062  0.2834
24128W        W40312  16.366   5.822   3.815 -0.0952  0.1827  0.0488
24129W        W40313   4.070  17.225  12.885  0.3587 -0.0334 -0.0158
24130W        W40314   6.329   4.039   3.581  0.1334  0.0167  0.2775
24131W        W40315  13.559  17.146  11.433 -0.0306 -0.1861  0.0666
24132W        W40316   1.274   8.349   2.292 -0.3495  0.1315 -0.1444
24133W        W40317   2.210  10.736  16.391  0.0884  0.0433  0.1363
24134W        W40318   3.020   8.307   4.614  0.1496  0.0698  0.1294
24135W        W40319  12.174  15.274  16.002 -0.1146  0.1762  0.1040
24136W        W40320  16.970   0.511   2.961 -0.0237  0.0664 -0.1068
24137W        W40321  13.057  14.825   3.443 -0.0950 -0.0742  0.0016
24138W        W40322   2.783   5.710   4.331  0.1184  0.1112  0.0329
24139W        W40323   4.904   8.225   2.418  0.1237 -0.3156 -0.0608
24140W        W40324   2.380  11.687   0.898  0.4220 -0.0604  0.2227
24141W        W40325   5.174  14.654  12.678 -0.0260  0.0075  0.1606
24142W        W40326  10.543   6.454   1.854 -0.2084 -0.2119  0.1098
24143W        W40327  13.572   8.321  16.207 -0.0051 -0.3097 -0.1178
24144W        W40328  14.937  15.539   4.078 -0.0230  0.0743 -0.1400
24145W        W40329   5.594   1.419   5.065 -0.0268  0.0705  0.3347
24146W        W40330   8.645   7.789   3.733  0.1641  0.4167 -0.0763
24147W        W40331   5.552   8.934   0.917 -0.1437 -0.1464  0.1553
24148W        W40332   5.581   9.104   2.558 -0.1896 -0.3875 -0.0001
24149W        W40333   1.046   4.292   2.548 -0.1325 -0.0476  0.1418
24150W        W40334   7.940  11.435   3.826 -0.0888 -0.0012 -0.4181
24151W        W40335  12.677  15.182   5.097 -0.0948 -0.0016  0.0859
24152W        W40336   6.353   1.782  12.426  0.0110  0.0407  0.1231
24153W        W40337  10.399   2.491   3.174  0.0117  0.2668  0.0035
24154W        W40338   8.998  13.802  11.967  0.2601  0.1561  0.2074
24155W        W40339   2.025  14.006  12.112 -0.1570 -0.0213 -0.0564
24156W        W40340  14.414  13.077  13.169  0.3837 -0.0590 -0.1190
24157W        W40341   0.670  11.939   2.703  0.2452  0.3003 -0.1804
24158W        W40342   0.528  16.965  16.092 -0.1252  0.1469 -0.0617
24159W        W40343  16.551   0.646  11.930 -0.2296  0.0434 -0.1333
24160W        W40344  13.610   6.639   3.619 -0.1385  0.1585  0.0016
24161W        W40345   2.528  13.336  12.196 -0.1288  0.1930  0.2512
24162W        W40346   4.058  17.163  16.545  0.2161 -0.1504 -0.2678
24163W        W40347   3.909  15.121  15.122 -0.0400  0.1737  0.2803
24164W        W40348   0.375   4.086  12.204 -0.1010  0.0623 -0.3194
24165W        W40349   7.563   5.513   2.778 -0.1114 -0.0370 -0.0406
24166W        W40350  17.724  17.009  15.226 -0.1185  0.0089  0.1522
24167W        W40351   4.324  12.825   3.099 -0.0101 -0.1589  0.0591
24168W        W40352   5.185  12.317   0.851 -0.0533 -0.0550 -0.1056
24169W        W40353   5.355   5.759  12.434 -0.1300  0.3646 -0.3935
24170W        W40354  14.999  15.354  11.448  0.0056 -0.2016  0.0593
24171W        W40355  17.314   4.080   3.758  0.2679  0.1437 -0.1296
24172W        W40356   3.910   8.105  11.827  0.0986  0.2112  0.0623
24173W        W40357   6.020   0.644   5.638 -0.1061  0.2034 -0.2082
24174W        W40358   1.074   2.271   2.031 -0.1287  0.1082  0.2354
24175W        W40359   5.814   1.094  15.168 -0.3102 -0.0117 -0.0704
24176W        W40360   9.837  14.876  14.137  0.0757 -0.1508 -0.1503
24177W        W40361  14.886   7.329  11.602  0.2822  0.1692 -0.0160
24178W        W40362  10.627   2.586  15.745  0.1189 -0.1118  0.0261
24179W        W40363   4.597   1.071  12.073 -0.1215 -0.1216 -0.0497
24180W        W40364  12.036  15.116  13.354 -0.0227  0.2069  0.1893
24181W        W40365  15.960  10.646  10.576 -0.0072 -0.0188  0.1011
24182W        W40366   6.917   2.968  14.016 -0.1740 -0.1228 -0.0193
24183W        W40367  13.841  15.702  13.623  0.0376 -0.1663  0.0908
24184W        W40368   6.178  12.788  12.137 -0.0722  0.1421  0.0388
24185W        W40369   3.631   5.151  16.477 -0.1467 -0.0032 -0.1799
24186W        W40370  14.277  10.185  14.362 -0.0801 -0.1950  0.0929
24187W        W40371  15.040   1.388  14.911  0.2444 -0.1104 -0.1145
24188W        W40372   9.388   0.674  12.800  0.1122 -0.0550  0.1825
24189W        W40373  16.055   6.776   0.057 -0.0229 -0.0125  0.0807
24190W        W40374   6.818  11.331  16.485  0.0524 -0.3303  0.1616
24191W        W40375   5.065   2.929  14.936 -0.1583  0.1293 -0.4061
24192W        W40376  11.246  11.172   1.772 -0.2678 -0.0674 -0.0704
24193W        W40377   3.718  13.965   1.602 -0.0041 -0.4495  0.0649
24194W        W40378  11.534   8.891   3.916 -0.0550  0.2222  0.0073
24195W        W40379   1.978  10.369  15.723 -0.1429  0.4457 -0.0120
24196W        W40380   6.136   3.810  15.804 -0.0581 -0.2221  0.2912
24197W        W40381   9.151  17.166  11.712  0.1131 -0.2726 -0.3426
24198W        W40382   2.066   8.895   5.844  0.1808  0.1635  0.4440
24199W        W40383   2.160   3.556  13.956 -0.1336 -0.1914  0.2927
24200W        W40384   5.516   4.991   4.942 -0.1493  0.2916  0.4790
24201W        W40385  12.399   9.554   2.525  0.1527  0.1126  0.0232
24202W        W40386  16.865  16.623  11.789  0.0016  0.0189  0.1128
24203W        W40387  13.359  12.195   0.398 -0.1958 -0.3133  0.2706
24204W        W40388   5.665   6.535   5.732 -0.2332  0.0812  0.0202
24205W        W40389   5.160   2.353   0.768  0.0739 -0.0797  0.0119
24206W        W40390  15.322   4.182  14.170 -0.1592 -0.0061  0.2047
24207W        W40391   2.598   6.895   2.929  0.1829  0.2121  0.1455
24208W        W40392   3.864   1.827  14.553  0.0511  0.1009  0.1396
24209W        W40393   0.748  14.935   3.316  0.2017  0.0777  0.1100
24210W        W40394  10.728  13.390   0.860  0.1386  0.0151 -0.2934
24211W        W40395   3.827  11.378   3.643 -0.2631 -0.4758  0.1594
24212W        W40396  17.057  16.462  14.862 -0.2925  0.0155 -0.1366
24213W        W40397   9.855   8.595  11.845 -0.2117 -0.1168  0.3815
24214W        W40398   1.679  17.979  11.879 -0.1217  0.0285  0.1143
24215W        W40399  17.047   1.444   1.159 -0.2164 -0.2546 -0.3305
24216W        W40400   9.885  17.540  14.044  0.1184 -0.2624 -0.0560
24217W        W40401   8.259  16.424   4.386  0.2835 -0.1460 -0.0302
24218W        W40402   7.783   1.084   2.843 -0.0260  0.0319 -0.0987
24219W        W40403   2.509  13.202   3.837  0.1425  0.2117  0.0829
24220W        W40404  14.054   2.921   3.725 -0.0344  0.0080  0.1529
24221W        W40405  10.385   6.947   5.395  0.3424  0.2245 -0.0425
24222W        W40406   9.973   4.254  16.616 -0.1596  0.2721  0.1052
24223W        W40407  10.935  11.469   1.448 -0.0785  0.2809 -0.1879
24224W        W40408   8.049   1.111  14.917  0.2031 -0.1305 -0.1490
24225W        W40409  10.826   0.477   1.116  0.3596  0.1468  0.0446
24226W        W40410   9.518  12.288   2.943  0.0589 -0.2420  0.0200
24227W        W40411  12.879   5.765  12.137 -0.0578 -0.3087  0.3920
24228W        W40412  11.238   0.447   2.344 -0.1776  0.0078 -0.1828
24229W        W40413  11.653   4.327   4.167  0.1522  0.2055  0.0094
24230W        W40414   3.199   7.240  11.572 -0.1165  0.2355 -0.1647
24231W        W40415  14.405   7.052   5.195 -0.1084 -0.0489 -0.2479
24232W        W40416  16.376  17.434   3.113 -0.2633 -0.0708 -0.1049
24233W        W40417   3.550   6.051  13.453 -0.0293  0.1866  0.0723
24234W        W40418  15.013  11.690  15.554 -0.0673 -0.0773  0.2629
24235W        W40419  14.396   6.457  14.083  0.1455  0.0284  0.2844
24236W        W40420   1.873   4.898  16.107 -0.2213  0.1661  0.3175
24237W        W40421   4.947   7.396   3.599 -0.1081 -0.2105  0.0374
24238W        W40422   5.997  15.996  13.162  0.1629 -0.0431  0.2603
24239W        W40423  13.549  13.042   2.320  0.1329 -0.0986 -0.1684
24240W        W40424   7.753  13.227  15.367  0.0610 -0.1090 -0.0310
24241W        W40425   7.529  15.367  12.280  0.2176 -0.1525  0.2892
24242W        W40426  17.226   6.035  13.472 -0.2008  0.3619  0.1909
24243W        W40427   6.908   8.620  15.206 -0.0963 -0.1641  0.2217
24244W        W40428  11.602   8.438   2.565 -0.2207 -0.0058  0.0046
24245W        W40429  11.078   6.689  11.829  0.0091 -0.0482 -0.2651
24246W        W40430  14.025  17.602   4.309 -0.0312 -0.0453 -0.0046
24247W        W40431   3.198  11.915  12.987 -0.2953  0.2486  0.2673
24248W        W40432  15.591   7.221  12.197 -0.0473  0.1834 -0.0362
24249W        W40433   9.589   1.571  11.729  0.0779 -0.1750  0.1483
24250W        W40434   6.329  14.455   3.002 -0.1430 -0.1117  0.0367
24251W        W40435  11.159  14.261   0.914  0.3446 -0.1559  0.1929
24252W        W40436   6.279   1.039  13.092 -0.3277 -0.1995 -0.0236
24253W        W40437  15.923   6.804  15.918  0.4126  0.0301 -0.1265
24254W        W40438   7.178   0.572   5.017  0.0170 -0.1269  0.2446
24255W        W40439   9.634  13.674  14.928  0.1654  0.1211 -0.0774
24256W        W40440   5.807   8.316   1.530  0.1391 -0.0056  0.1809
24257W        W40441  13.997  11.038  14.972 -0.1601 -0.0784 -0.1364
24258W        W40442  17.673   6.061  14.340 -0.2595 -0.3787  0.1438
24259W        W40443  17.247   8.093   1.757  0.0778  0.0265  0.2143
24260W        W40444  11.017  14.294  13.188 -0.2378 -0.1625  0.1701
24261W        W40445   3.551   7.260   5.408  0.0827 -0.1091  0.0061
24262W        W40446  11.222  14.365  12.024 -0.1304 -0.3653 -0.1896
24263W        W40447  14.692  10.765  15.724  0.3354 -0.0790  0.2260
24264W        W40448   6.420  17.362  12.615  0.1618 -0.0796 -0.0835
24265W        W40449   1.645  14.565   1.936  0.2259 -0.0952 -0.0887
24266W        W40450  14.061  14.875   0.460 -0.1104 -0.1501 -0.0886
24267W        W40451  11.550  14.126  14.072 -0.0030 -0.0458  0.1409
24268W        W40452   6.266   7.619  16.112 -0.1757  0.1741  0.0531
24269W        W40453  17.934  14.275   0.514 -0.2036  0.0344  0.1408
24270W        W40454   0.038   8.802   0.616  0.1154  0.1832  0.2899
24271W        W40455   6.310   8.695   2.972  0.2369 -0.2686 -0.1733
24272W        W40456   8.171   9.889   0.926  0.0216 -0.0561  0.2939
24273W        W40457  14.272  11.600  12.876 -0.3206  0.0249 -0.0622
24274W        W40458  13.267   7.687   4.280 -0.1021  0.2297  0.0424
24275W        W40459  12.248   9.936  15.166  0.2337  0.0278 -0.1468
24276W        W40460  16.391  16.274   3.907 -0.1308 -0.2147 -0.0364
24277W        W40461   5.603   9.957   2.965  0.0517  0.2117 -0.0924
24278W        W40462   4.073   3.106  14.918  0.1560 -0.2935 -0.2299
24279W        W40463  15.481   1.279   3.932 -0.0473  0.1342  0.3271
24280W        W40464   6.558  15.484   5.880 -0.2006  0.0216 -0.0241
24281W        W40465  15.070   8.361   3.521  0.1714 -0.0091 -0.0045
24282W        W40466  10.070  17.555   2.746  0.1026  0.0687  0.1719
24283W        W40467   2.622  14.366   3.953 -0.1003 -0.1804  0.0424
24284W        W40468   3.097  17.460  12.601 -0.0541  0.1338 -0.2148
24285W        W40469   0.206   0.703  11.105  0.1201  0.0220  0.1082
24286W        W40470  11.980  16.006   1.956  0.1843 -0.2295  0.2836
24287W        W40471  16.389   7.969   5.316 -0.0576 -0.3376 -0.1407
24288W        W40472   9.381  10.678   4.339  0.0897 -0.1281  0.0014
24289W        W40473  13.327   0.054   6.296  0.0296  0.2609  0.2220
24290W        W40474   5.057  17.707   0.563  0.3334  0.1011 -0.0162
24291W        W40475   3.937  10.170   4.803 -0.0947 -0.0308  0.0929
24292W        W40476   4.201   9.097   3.590  0.2332  0.0749 -0.0763
24293W        W40477   0.005  12.903   3.580 -0.1642 -0.0182 -0.4529
24294W        W40478  10.151  14.058  16.144  0.3351  0.2466  0.1220
24295W        W40479  14.162   6.881  11.819  0.0792  0.2975  0.1841
24296W        W40480  13.752  11.155   3.295  0.1043 -0.0569 -0.4441
24297W        W40481   8.149  17.171  13.586  0.2482  0.0908 -0.1206
24298W        W40482  14.700   6.148  14.398 -0.0904  0.2472  0.1890
24299W        W40483  17.930  12.982   2.646  0.1115 -0.0946 -0.2846
24300W        W40484   8.146   3.355  13.388 -0.0923  0.0244 -0.0930
24301W        W40485   8.135   7.297  14.280 -0.1707  0.2181 -0.4003
24302W        W40486   1.563   8.508  13.211 -0.1620 -0.1518  0.0515
24303W        W40487  14.825   1.307   2.573 -0.0713  0.0919 -0.3005
24304W        W40488  12.895   2.017   3.660 -0.3352  0.0086 -0.0589
24305W        W40489  14.380   4.148   0.285  0.0480  0.0080  0.0063
24306W        W40490  12.984  12.447   1.177  0.2518  0.0252 -0.2807
24307W        W40491   9.915  12.127   2.205  0.2297  0.0198  0.1539
24308W        W40492   3.372   8.959   0.513  0.0672  0.0543  0.2820
24309W        W40493   6.101  17.088   4.406  0.3688  0.0205  0.1347
24310W        W40494   9.696   2.574  14.746 -0.0421 -0.1161 -0.1005
24311W        W40495   9.967  12.171  16.330 -0.1286 -0.2370 -0.1680
24312W        W40496   8.458   2.979   2.175  0.3808 -0.0259 -0.2280
24313W        W40497  17.733   3.583   6.463  0.0929 -0.0265 -0.0121
24314W        W40498  14.649   3.049  13.321 -0.0439 -0.0140 -0.1211
24315W        W40499   1.439   5.337  13.463 -0.3067  0.4318  0.1768
24316W        W40500   1.069  17.106  13.223 -0.0514 -0.0272 -0.0852
24317W        W40501  13.535  17.118  13.297 -0.0480  0.0377  0.1951
24318W        W40502   2.739   7.564   0.165 -0.1050 -0.0530  0.0866
24319W        W40503  16.071  16.890  11.187  0.3596  0.0497 -0.0748
24320W        W40504   1.968   2.995  13.788  0.3033 -0.0748 -0.0946
24321W        W40505   5.746   9.449   5.645 -0.3296  0.1451  0.1589
24322W        W40506  11.827  13.802   4.295  0.3600 -0.0024 -0.1387
24323W        W40507   0.317   4.698   2.675  0.0649 -0.1066 -0.0744
24324W        W40508   4.330   6.014   0.888  0.1220 -0.2342 -0.0399
24325W        W40509   0.616  17.586   5.745  0.2613 -0.0844  0.1703
24326W        W40510   7.858  15.848  16.209  0.2926  0.2364 -0.1484
24327W        W40511  10.512  17.329  14.877  0.0522  0.1599  0.2070
24328W        W40512   5.610   9.689  12.709 -0.1343 -0.3395  0.2537
24329W        W40513  11.697   6.859  12.819 -0.0260 -0.0425 -0.1209
24330W        W40514   1.709  11.624   3.619 -0.3487 -0.0627 -0.0436
24331W        W40515   9.307   4.475  15.569 -0.1396  0.0009 -0.0464
24332W        W40516  12.924  16.228  11.965 -0.1487  0.0001 -0.4091
24333W        W40517   9.019   5.749   1.938  0.1315  0.3239  0.1281
24334W        W40518  13.059   9.387  14.802 -0.0386  0.0573  0.2654
24335W        W40519   9.682  16.653  16.015  0.1563 -0.0100 -0.0971
24336W        W40520   1.161   0.114  15.394 -0.0484  0.2359 -0.0794
24337W        W40521  16.290  12.752   5.421  0.3239 -0.2215  0.1380
24338W        W40522   5.781   8.101  12.240 -0.2315  0.4233  0.0303
24339W        W40523  15.490  10.385  12.913 -0.2134 -0.1343 -0.1066
24340W        W40524  11.657  10.955   1.971  0.0668 -0.3561 -0.1920
24341W        W40525  11.900  15.365   2.236  0.2898  0.1396 -0.2909
24342W        W40526   5.397   1.951   3.927  0.1247 -0.1319  0.1850
24343W        W40527   4.384   4.901  13.446  0.4331 -0.2530  0.1962
24344W        W40528  16.658  14.066  14.349  0.0306  0.1046 -0.0059
24345W        W40529  11.864   8.206   5.366  0.0668  0.0577  0.1933
24346W        W40530  11.665   4.887  16.460 -0.0625 -0.1774  0.0008
24347W        W40531   0.376   9.862   0.031  0.0101  0.0058 -0.0394
24348W        W40532  14.009   2.394   6.458  0.0485 -0.0779  0.1207
24349W        W40533   8.102   6.522   0.585  0.0471 -0.0053 -0.1902
24350W        W40534   1.721   8.203  16.638  0.0701  0.1663  0.2657
24351W        W40535   2.650   3.642  14.005 -0.0394 -0.1196 -0.3081
24352W        W40536   2.552  13.078  15.877 -0.0459  0.2441 -0.2118
24353W        W40537   5.087   1.483   5.202  0.3356  0.0810 -0.0315
24354W        W40538   6.278  12.645   1.580  0.1535  0.1134  0.2199
24355W        W40539  13.387  17.730   2.149  0.0509  0.0901  0.0236
24356W        W40540  14.825   1.063  11.696 -0.0819 -0.0550  0.2290
24357W        W40541   6.689  14.909   0.776  0.0581 -0.2771  0.2341
24358W        W40542   3.580   9.651   3.849 -0.0775 -0.0193  0.2578
24359W        W40543  10.758  13.015  13.493 -0.0075  0.0760  0.0686
24360W        W40544   5.668  16.877   0.027  0.1492  0.1408 -0.0020
24361W        W40545  16.389   5.772   0.796  0.0582  0.1035  0.1381
24362W        W40546  13.811  10.679  15.533 -0.1765  0.0729  0.1315
24363W        W40547  10.269   4.250   1.262 -0.0234 -0.0374 -0.4608
24364W        W40548   1.394  12.922   3.246 -0.0812  0.0919  0.1943
24365W        W40549  14.456   1.059  14.533 -0.1114 -0.1367  0.0367
24366W        W40550  10.588   7.280  13.608  0.2857 -0.0256 -0.2091
24367W        W40551  13.225   2.208   3.978 -0.2457  0.0188  0.1339
24368W        W40552   6.529  13.562   3.074  0.1027  0.0264 -0.0488
24369W        W40553   8.084   3.114  12.067 -0.1035 -0.3301 -0.3330
24370W        W40554   1.022  10.661   3.620  0.2108 -0.0584  0.1679
24371W        W40555   3.653   7.621   5.034  0.0609  0.0508  0.0651
24372W        W40556  12.921  17.648   4.066 -0.1584 -0.0932  0.0425
24373W        W40557   6.567  14.713   0.066  0.1703 -0.0479 -0.0142
24374W        W40558  10.547   7.293  12.155  0.0514 -0.1788 -0.0987
24375W        W40559  17.810  14.095   0.081 -0.0878 -0.3445 -0.0828
24376W        W40560  13.102   1.472  14.546  0.4846  0.4336  0.1083
24377W        W40561   2.233   7.558  14.841 -0.1527  0.2382  0.3100
24378W        W40562  13.942   3.843   4.256  0.0525  0.2515 -0.0686
24379W        W40563   1.472  11.387  15.168  0.2015  0.0611 -0.3639
24380W        W40564   1.536  14.140   6.021 -0.1061 -0.1340 -0.4139
24381W        W40565   4.921   5.970  12.593 -0.1025 -0.3898  0.3025
24382W        W40566  17.254  10.637  13.598  0.0520  0.1694  0.0514
24383W        W40567   4.524   0.974  16.616 -0.0279 -0.5095 -0.3267
24384W        W40568   9.203   2.635   1.582  0.0370  0.0066  0.1380
24385W        W40569  15.430  10.425   4.024 -0.0606 -0.0527 -0.2644
24386W        W40570   3.307  17.219   5.089 -0.3002  0.1017  0.0916
24387W        W40571   1.744   0.962  15.196  0.1321  0.1235 -0.3535
24388W        W40572  14.812  11.060  13.190 -0.1403  0.0562 -0.2895
24389W        W40573  15.031   2.540   3.599  0.1305 -0.0875 -0.2819
24390W        W40574   5.735  17.018   4.805  0.2834 -0.0881  0.0071
24391W        W40575   9.127   2.128   3.021  0.0857 -0.0183 -0.2955
24392W        W40576  12.768  13.542   3.825  0.2713 -0.2374  0.1736
24393W        W40577   2.936  14.800  13.451  0.4130 -0.3561 -0.1137
24394W        W40578  16.936   8.337  16.204 -0.1237  0.0422 -0.2099
24395W        W40579   9.973   4.555   0.657 -0.0287 -0.2101  0.1501
24396W        W40580   5.348  13.078  13.620  0.0856  0.0223  0.1111
24397W        W40581   0.942   2.571   5.731  0.1197  0.0873  0.0766
24398W        W40582  16.591   8.318   2.345 -0.0628 -0.2092 -0.0813
24399W        W40583   8.637  15.234   3.601 -0.1418  0.1436  0.1841
24400W        W40584   4.800   6.564  15.386 -0.0247 -0.1391  0.2227
24401W        W40585   5.969   5.398   1.558  0.0950 -0.0179  0.1381
24402W        W40586  10.593   1.204   5.364 -0.2945 -0.1055 -0.0487
24403W        W40587  10.778   8.425   0.792  0.0643 -0.0038  0.0729
24404W        W40588  17.885   2.148  12.825 -0.0648  0.1122 -0.1829
24405W        W40589   7.298  11.290   5.140  0.0228 -0.3112 -0.0068
24406W        W40590   4.413  12.506   1.348 -0.0742 -0.3559 -0.0452
24407W        W40591  16.732  15.010  13.151 -0.0065  0.0784  0.0920
24408W        W40592   9.013  16.316   1.936  0.2622 -0.1299 -0.0144
24409W        W40593   0.233   7.006  12.745  0.1577  0.2621  0.1482
24410W        W40594  11.555  11.935   5.475  0.0016 -0.3006  0.1494
24411W        W40595  16.205  11.100  15.895  0.1359  0.0337  0.1443
24412W        W40596   0.779   6.032  15.003  0.1423  0.0643  0.0855
24413W        W40597   2.810   2.618   1.874 -0.1376 -0.2440  0.2100
24414W        W40598   3.684   1.906  15.021 -0.1024  0.0816 -0.4410
24415W        W40599   2.815  15.159   2.645  0.2005 -0.0227  0.2876
24416W        W40600  13.299  15.127   5.683  0.4507  0.1229 -0.0068
24417W        W40601   3.754  12.738  13.132 -0.1297 -0.1668  0.1474
24418W        W40602   0.906   8.830  13.807 -0.1425  0.2013  0.1158
24419W        W40603   9.274  11.968  12.784 -0.2758  0.1054 -0.1467
24420W        W40604   5.116   6.951   4.501 -0.0577 -0.0646  0.0989
24421W        W40605  16.758  16.601   4.429 -0.2122 -0.0291  0.0711
24422W        W40606  17.066  16.125  11.863 -0.3512  0.0472  0.1735
24423W        W40607  10.405   7.317   3.267 -0.0256 -0.1015  0.1271
24424W        W40608   9.573   7.304  15.113 -0.0116  0.1012 -0.0629
24425W        W40609  16.331   0.729  12.386 -0.0330 -0.1406 -0.0147
24426W        W40610  14.821  11.844  12.039  0.1452  0.2285  0.3027
24427W        W40611  11.159   1.871   1.551  0.2858 -0.0923 -0.0925
24428W        W40612  14.713  10.807   4.002 -0.0118 -0.0471  0.0540
24429W        W40613  17.365   4.872   3.249  0.1918  0.0304 -0.1811
24430W        W40614  10.647   6.806   4.995  0.1490 -0.1087 -0.1217
24431W        W40615  13.622   6.781   5.532  0.1896  0.0206  0.1224
24432W        W40616   5.797   0.293  15.105  0.1990  0.0905 -0.0764
24433W        W40617  16.218   0.172  11.862 -0.3063  0.0715 -0.1354
24434W        W40618  16.433  12.783   4.119  0.0940  0.3402 -0.1072
24435W        W40619   0.344  11.166  14.864  0.1157  0.0239  0.1016
24436W        W40620  15.860  15.183   5.992  0.0059 -0.1020  0.0863
24437W        W40621   7.131   6.319   4.846  0.1711 -0.1115 -0.1702
24438W        W40622  15.912  13.126  14.441 -0.0978 -0.0656  0.2419
24439W        W40623   6.791   2.404  14.300 -0.3351 -0.2417  0.0245
24440W        W40624   7.728   7.766  12.922  0.0976 -0.4101  0.1658
24441W        W40625  14.627   6.370  12.480 -0.0667 -0.1262  0.2153
24442W        W40626  11.239  15.062  12.617  0.0348  0.0091 -0.0713
24443W        W40627   8.974   9.888  12.406 -0.0235  0.1160 -0.3748
24444W        W40628   2.464   3.570   2.061 -0.1910 -0.0473 -0.1390
24445W        W40629   3.191  14.458   2.203  0.1048  0.4470 -0.0896
24446W        W40630  14.265   8.802  13.282  0.1047 -0.0295  0.0382
24447W        W40631   2.790  14.640   2.473 -0.0781  0.2116 -0.4868
24448W        W40632   9.954   2.944  15.051  0.1856  0.0427 -0.2543
24449W        W40633  12.765  11.029  12.978  0.1720 -0.1606  0.0192
24450W        W40634  16.383  12.257   4.338 -0.2777 -0.1404  0.1031
24451W        W40635   4.226   5.079   3.695  0.0992  0.1347 -0.2780
24452W        W40636   2.552   6.135   4.188  0.2928 -0.2654  0.0570
24453W        W40637   5.410   5.394   3.208 -0.1445  0.0499  0.0632
24454W        W40638   6.019  15.808  11.560 -0.1390 -0.0472  0.0292
24455W        W40639  10.905  12.088   2.060  0.3412 -0.0790 -0.1813
24456W        W40640  14.523  10.988  14.973 -0.0027 -0.2195 -0.1487
24457W        W40641  14.327  10.738  14.476  0.2693  0.0709  0.0017
24458W        W40642   7.534   0.741   0.239  0.2024 -0.0795 -0.0714
24459W        W40643   0.538  11.939   3.213 -0.0513 -0.0227  0.1838
24460W        W40644   9.662  14.034  16.294 -0.1008 -0.0968  0.1669
24461W        W40645   2.430  11.682   4.183 -0.1294 -0.1537  0.1314
24462W        W40646   1.138   7.924   4.781 -0.2123 -0.4406  0.3575
24463W        W40647   6.682   0.455   5.167  0.3037 -0.0011 -0.0062
24464W        W40648   2.252   6.116  14.136  0.1222  0.2105 -0.0606
24465W        W40649   1.273  10.267   2.783 -0.0800  0.0794 -0.0355
24466W        W40650  16.450   2.088  15.758  0.0374  0.1277  0.3432
24467W        W40651   9.086   1.179   1.887  0.0423  0.0713 -0.1698
24468W        W40652   4.492   1.932  15.597  0.1061 -0.2029  0.3672
24469W        W40653  12.679  12.393  14.292 -0.5383  0.0009 -0.0791
24470W        W40654   0.967   8.924  14.281 -0.1064  0.2142  0.0661
24471W        W40655  15.956  16.434   4.102 -0.0381  0.1410  0.2044
24472W        W40656   3.268  15.788  13.847  0.2369  0.0426 -0.1405
24473W        W40657   8.464  12.627  11.989 -0.0023  0.2824  0.1885
24474W        W40658  13.439  15.658  16.564 -0.0521 -0.0769  0.1871
24475W        W40659   4.228   3.781   4.978 -0.2962 -0.0438  0.0752
24476W        W40660   4.315   8.610   5.039 -0.1093 -0.0593 -0.1419
24477W        W40661  13.001  14.026   4.481 -0.1111  0.1101 -0.1964
24478W        W40662  12.829   8.196  14.112 -0.3032 -0.0053  0.0011
24479W        W40663   4.766   5.903  13.467  0.0870 -0.2099  0.2288
24480W        W40664   5.371   1.946   2.512 -0.0162 -0.1873 -0.1319
24481W        W40665   6.335   5.129   4.118 -0.4804 -0.0222 -0.0702
24482W        W40666  17.694   6.750   0.106  0.1638 -0.1054  0.2442
24483W        W40667   4.548   7.358  13.594 -0.1011 -0.0224  0.0676
24484W        W40668  10.134   2.726   0.111  0.0186  0.3616  0.1708
24485W        W40669   9.590   0.818   2.932 -0.0648  0.0990 -0.1072
24486W        W40670  12.629  17.851   5.495  0.0097 -0.0592 -0.1364
24487W        W40671  17.594   8.896  14.952 -0.0961  0.0133 -0.1926
24488W        W40672   5.636   9.242  13.001 -0.0820  0.1259  0.2453
24489W        W40673  11.309  12.609  13.843  0.0438  0.0985 -0.1576
24490W        W40674  14.734   0.193  14.481  0.1146  0.1876  0.2829
24491W        W40675   0.402   6.389  14.024 -0.0073  0.2978 -0.0269
24492W        W40676   4.807   4.540  12.473  0.1696  0.0111 -0.0113
24493W        W40677  14.099   2.516  11.187 -0.0267  0.0981 -0.2363
24494W        W40678  15.399  16.945   1.564  0.0960 -0.1457 -0.0723
24495W        W40679   9.898  15.597   0.941  0.0636 -0.0385 -0.0757
24496W        W40680  10.584   4.729   1.261 -0.2497  0.2145 -0.3010
24497W        W40681   3.081  11.492  11.954  0.1140  0.2421 -0.0214
24498W        W40682   7.137   7.889  16.368 -0.0154 -0.2455 -0.1314
24499W        W40683  17.707  11.337   3.072  0.2346 -0.3238  0.3968
24500W        W40684  10.422   8.772   3.683 -0.0073 -0.0821 -0.0988
24501W        W40685  15.267   0.636  15.805  0.1554 -0.1741 -0.1506
24502W        W40686   9.909   2.239  12.528 -0.1972 -0.3881  0.3067
24503W        W40687  13.297  14.159   5.980 -0.1208 -0.0879  0.0500
24504W        W40688   0.170   1.802  12.027  0.0206 -0.0377 -0.1967
24505W        W40689   6.335  12.684   5.067 -0.3259 -0.1896  0.1728
24506W        W40690   4.579  13.134   5.903  0.3894 -0.1384 -0.0747
24507W        W40691   7.073  10.376  16.379 -0.0040 -0.1035 -0.1839
24508W        W40692  12.721   6.205  15.108 -0.2819  0.2125  0.0104
24509W        W40693  14.270  16.437   1.091 -0.5354 -0.0010 -0.1029
24510W        W40694   9.715   9.556  15.743  0.1680 -0.4248 -0.0322
24511W        W40695  17.196   8.187  11.923 -0.0650 -0.1239 -0.1506
24512W        W40696  12.058  10.056   4.436  0.1983  0.2794 -0.4289
24513W        W40697  15.530   8.508  15.838  0.1087 -0.0132 -0.0024
24514W        W40698   3.898   0.188   5.406  0.0895 -0.0083 -0.2220
24515W        W40699   5.913   9.364   4.848  0.0762 -0.0829  0.0424
24516W        W40700   4.597  13.701  15.364 -0.0261 -0.0580 -0.1795
24517W        W40701   0.843  13.950  14.566  0.1258 -0.0041  0.1663
24518W        W40702  13.102  13.818  15.088 -0.3033 -0.1396  0.0364
24519W        W40703  10.070  17.132  14.720 -0.2084  0.0284  0.0781
24520W        W40704  17.283  15.147  12.851  0.2255 -0.0880  0.0907
24521W        W40705  16.696  16.298   4.800 -0.0999 -0.1567 -0.0237
24522W        W40706  13.137   6.829  12.897 -0.2681 -0.1397 -0.1134
24523W        W40707  13.446  15.853   4.128 -0.1227  0.0677  0.0318
24524W        W40708  15.564  14.776   2.896  0.0075  0.2114  0.0577
24525W        W40709   5.353   7.105  14.714 -0.0302 -0.5496  0.1367
24526W        W40710  13.798   6.487  14.536 -0.0168  0.3766  0.2095
24527W        W40711   6.017   9.705   1.323  0.0647  0.1947 -0.2870
24528W        W40712   9.987  12.588   4.692 -0.3503 -0.0829 -0.1818
24529W        W40713   4.165  10.148   2.148  0.0716 -0.1087  0.1900
24530W        W40714   2.288   4.423   0.655  0.3473 -0.2825  0.1597
24531W        W40715  11.330   6.856  13.839 -0.0719 -0.2374 -0.2008
24532W        W40716   7.349  13.766  14.037  0.1514 -0.2200  0.0074
24533W        W40717  14.668   9.045  16.040  0.2024  0.2001  0.2938
24534W        W40718   0.062   2.674   2.786  0.0159  0.1620  0.0250
24535W        W40719  16.706   0.282  16.210  0.1570  0.2129  0.0613
24536W        W40720  11.133   5.357  15.599  0.3643 -0.1421 -0.1905
24537W        W40721  10.754   4.849  11.977  0.0237  0.0583 -0.4935
24538W        W40722  16.758  15.269  14.137 -0.2113  0.1436  0.2489
24539W        W40723  16.066   5.988   1.721  0.0461  0.0621 -0.1561
24540W        W40724   6.814   9.694   1.864 -0.5085  0.0048  0.0370
24541W        W40725   0.882   6.025   3.117 -0.2083 -0.1155  0.1729
24542W        W40726  13.128  16.936  16.206 -0.1312  0.0254 -0.1646
24543W        W40727   6.462   2.547  11.756  0.3100 -0.1595 -0.1925
24544W        W40728   9.747   2.008   0.040  0.0354 -0.1042  0.1905
24545W        W40729   1.656   6.897  14.561 -0.2000 -0.0332 -0.0615
24546W        W40730   4.377  15.874  12.247  0.1489  0.0611 -0.0472
24547W        W40731  13.979   4.245  16.092  0.2118  0.0029 -0.0335
24548W        W40732  12.584  15.690   3.104 -0.0703 -0.0252 -0.2188
24549W        W40733   5.744  17.945   2.628  0.1505  0.0867 -0.2230
24550W        W40734  17.753  17.054   1.901  0.0974 -0.3769 -0.0073
24551W        W40735  16.309  16.381   2.234 -0.2259  0.0969 -0.1680
24552W        W40736  15.571   8.793  15.092  0.0850  0.0569 -0.0928
24553W        W40737   4.893  16.632   4.696  0.0802 -0.0832 -0.2251
24554W        W40738   9.096  13.033   5.018  0.4805 -0.1070  0.1737
24555W        W40739   4.121   0.449  12.762 -0.0254 -0.0993 -0.3022
24556W        W40740  16.600   7.330   2.851  0.1340  0.0487  0.0556
24557W        W40741   9.157   8.922  14.474  0.0175 -0.0247 -0.3358
24558W        W40742   0.096   5.400  15.441 -0.0805 -0.1661  0.2598
24559W        W40743   7.719   8.122  15.609 -0.1847  0.0762 -0.0170
24560W        W40744   8.411  13.546  11.613  0.1378 -0.2579 -0.1244
24561W        W40745   1.732   8.917  15.313  0.0213  0.1358 -0.0654
24562W        W40746  11.469  12.909  12.269  0.1691 -0.1349 -0.0486
24563W        W40747   0.553   9.524  14.186 -0.0000  0.1330 -0.1282
24564W        W40748   8.526  11.629   0.240  0.0677 -0.0571  0.1040
24565W        W40749   1.859  15.906  14.207 -0.1140 -0.2433  0.0465
24566W        W40750   4.714   8.338  16.082 -0.1182  0.0907 -0.0556
24567W        W40751  14.280   2.938   4.156  0.3375 -0.0731 -0.2556
24568W        W40752   4.381   9.232  15.321 -0.0171  0.1919 -0.0609
24569W        W40753   8.589  13.515  12.102 -0.3436 -0.1234  0.2305
24570W        W40754  11.975  10.740   2.748 -0.0928  0.1191  0.1690
24571W        W40755  10.363  14.040  13.904 -0.0235 -0.1474  0.1477
24572W        W40756  11.469  13.084  13.927 -0.0859 -0.0994 -0.0441
24573W        W40757   5.647  17.714   5.135 -0.0584  0.1271 -0.1441
24574W        W40758   2.362   6.763   0.815  0.0026 -0.1091 -0.1767
24575W        W40759   3.286   3.853  13.401 -0.1666 -0.4763  0.1419
24576W        W40760  16.979  10.301  13.196 -0.0714  0.2881 -0.1425
24577W        W40761   2.972  15.205  15.419  0.2461  0.2118  0.0224
24578W        W40762   4.431  15.485   3.904 -0.3537 -0.2196  0.1628
24579W        W40763  15.567   3.332   1.444  0.0182  0.1479 -0.0608
24580W        W40764  13.597   7.937   0.633  0.0700 -0.0091  0.1590
24581W        W40765   0.632  14.129  12.295 -0.0665 -0.0608 -0.1356
24582W        W40766  11.081   2.431   5.567 -0.2260  0.0958  0.1381
24583W        W40767   9.208  14.811  12.861 -0.0721  0.1224 -0.1749
24584W        W40768  10.015   8.049  14.075 -0.0393 -0.5129  0.1102
24585W        W40769   2.786  15.292   4.742 -0.2049 -0.0607 -0.2191
24586W        W40770  11.173   5.241   0.664  0.1174  0.1414  0.0862
24587W        W40771  11.767  14.718  15.277  0.0802  0.0316 -0.1326
24588W        W40772  12.439   8.438   2.018 -0.1718 -0.3210  0.0914
24589W        W40773  13.211   9.253   4.636 -0.3507 -0.0019 -0.1691
24590W        W40774   4.278   9.762  13.930  0.0992  0.2351  0.1224
24591W        W40775   4.180   2.018  14.919  0.1583 -0.0293 -0.1120
24592W        W40776   4.556  14.039  16.334 -0.0692 -0.0125 -0.0506
24593W        W40777   7.117  17.252   1.002 -0.0829  0.0721 -0.0768
24594W        W40778   7.413  12.726   2.575  0.2398  0.0264 -0.0209
24595W        W40779  12.681  13.242  14.355  0.1722 -0.3370  0.1165
24596W        W40780   5.780  12.008   5.545  0.1485  0.3057  0.2932
24597W        W40781  12.251   1.925  14.579  0.0264 -0.1862  0.1295
24598W        W40782   3.052   4.477  12.763  0.0712  0.0994 -0.0631
24599W        W40783   9.940  16.228   2.076 -0.2829 -0.3993 -0.0067
24600W        W40784   6.295  13.345  12.618 -0.0494  0.0609  0.0711
24601W        W40785  12.476  13.772   1.132 -0.0287  0.1360 -0.1185
24602W        W40786  13.245   7.478   4.759  0.1156 -0.2900  0.1910
24603W        W40787   1.923   5.015  11.476  0.0539  0.0617 -0.2409
24604W        W40788   3.619   5.918   2.442  0.1364 -0.0556  0.0497
24605W        W40789   0.962  15.670   0.798 -0.0906  0.0015  0.0746
24606W        W40790  15.696  13.995  13.290 -0.0172 -0.1060 -0.1701
24607W        W40791   1.331   5.825   4.480 -0.0234  0.2428 -0.0085
24608W        W40792   6.012   7.388   1.436  0.2115 -0.0793  0.2790
24609W        W40793   7.852   0.063  13.427  0.0129  0.0260 -0.0425
24610W        W40794   3.168  12.858  13.257  0.0053  0.0220 -0.0049
24611W        W40795   1.817   0.915  12.043 -0.1253 -0.1000  0.0716
24612W        W40796   8.819  17.503   3.070 -0.0213  0.2388  0.2211
24613W        W40797  13.570   8.221  15.678 -0.1464  0.0794  0.2672
24614W        W40798   8.528   0.733   1.287 -0.1532  0.0127 -0.4165
24615W        W40799  10.832  13.631  15.222 -0.0733 -0.1150  0.0762
24616W        W40800  12.168  16.982  16.692 -0.0960  0.0901 -0.2570
24617W        W40801   8.958  10.335  13.539 -0.1411  0.1153  0.1337
24618W        W40802   8.905   4.093   0.224 -0.0838  0.0220  0.1604
24619W        W40803   4.273  15.472   5.284  0.0064 -0.0789  0.1455
24620W        W40804   9.278  13.054  12.021 -0.1121  0.0212  0.1813
24621W        W40805   3.784   4.094   0.059  0.1803  0.1236  0.0806
24622W        W40806  13.695   8.420  12.538 -0.1459  0.0266  0.1963
24623W        W40807  15.136  11.732   2.213 -0.1359  0.0139 -0.0983
24624W        W40808   0.504   7.212  11.637 -0.5482 -0.0311 -0.0360
24625W        W40809   9.573  12.638  14.089 -0.1424 -0.1189 -0.2479
24626W        W40810   3.692   2.366  13.756 -0.0874  0.2108  0.0774
24627W        W40811  11.168  11.809  14.334  0.0484  0.0083  0.0424
24628W        W40812  16.666   4.890   4.001 -0.0525 -0.1330 -0.1269
24629W        W40813  13.315   7.214  13.229  0.1840 -0.2498 -0.1870
24630W        W40814  11.587   8.386   4.746 -0.0784 -0.2114  0.1320
24631W        W40815  14.737   8.180   0.447 -0.1655 -0.1883 -0.0418
24632W        W40816   3.798  14.243   0.859 -0.0632 -0.1503  0.2176
24633W        W40817  13.825  16.602   1.305  0.1479  0.0643  0.1723
24634W        W40818  13.485   6.727  15.810  0.1400 -0.1036 -0.3591
24635W        W40819  16.063  13.092   2.711  0.2098 -0.1990  0.1314
24636W        W40820  16.656  12.599   0.387  0.1353  0.1583  0.1564
24637W        W40821   7.371  11.718  16.517  0.0816 -0.0213  0.2366
24638W        W40822   3.540  12.049  14.215 -0.0379  0.2831  0.1921
24639W        W40823   2.947  10.706  14.384  0.0135 -0.1302  0.0278
24640W        W40824   8.350   5.302  13.122 -0.3519 -0.1096 -0.3539
24641W        W40825   7.778   1.420  13.914 -0.0249  0.1016  0.0565
24642W        W40826   8.312   9.422   2.967 -0.0270  0.3683 -0.2600
24643W        W40827   3.644  14.491  13.852  0.1148  0.1225  0.2027
24644W        W40828  12.472   7.372   4.995  0.2868 -0.2575  0.1774
24645W        W40829  16.238  12.121  12.526  0.2426 -0.0991 -0.1180
24646W        W40830   2.926   0.456   4.575 -0.2284 -0.0316  0.2894
24647W        W40831  17.084  10.825  12.045 -0.1355 -0.1936  0.1362
24648W        W40832  13.326   2.559  12.654 -0.2609 -0.1017 -0.1433
24649W        W40833   1.368   4.898   0.851  0.1701 -0.0046 -0.2870
24650W        W40834   6.102  12.130  16.029  0.0385  0.1583  0.0598
24651W        W40835  11.424   3.131   2.860 -0.1375 -0.3440 -0.0652
24652W        W40836  17.108  12.925   0.108  0.1742  0.1608 -0.4107
24653W        W40837   9.070   2.825  16.464 -0.0294 -0.2378 -0.1232
24654W        W40838  16.724   6.624   3.459 -0.0833 -0.2399 -0.0273
24655W        W40839   7.937   3.469  11.747  0.0619 -0.5656 -0.4789
24656W        W40840   8.256  11.062  11.461  0.1399 -0.1529 -0.1694
24657W        W40841  12.184   6.674  11.997 -0.1478  0.1303 -0.2742
24658W        W40842   5.420   0.951  16.677  0.2310  0.2175 -0.1392
24659W        W40843  10.478  17.459   4.081 -0.1280  0.1625 -0.1055
24660W        W40844   2.125   5.123   2.124 -0.0221 -0.2182  0.1283
24661W        W40845  10.883   7.971  15.326 -0.0322  0.1510 -0.7083
24662W        W40846  16.826  16.636   6.422 -0.1091  0.3291 -0.0552
24663W        W40847   0.590  11.911   0.888  0.2233  0.0858  0.1704
24664W        W40848  15.486  13.149  15.308  0.0599 -0.2009 -0.1788
24665W        W40849   8.904   8.064   5.192 -0.0107  0.2312 -0.0107
24666W        W40850  10.533  11.318  15.288  0.1834  0.0975  0.1758
24667W        W40851   1.746  17.067   3.862  0.2056 -0.0347  0.1828
24668W        W40852  11.507   1.050   4.994 -0.1585 -0.2945  0.2300
24669W        W40853  12.967   1.918   2.322 -0.0098  0.0850 -0.0074
24670W        W40854  12.890  11.178   3.886 -0.0746 -0.2610 -0.3816
24671W        W40855  12.094  15.993  13.655  0.2365  0.3451  0.1755
24672W        W40856  13.384  14.287   0.471 -0.0667  0.0759 -0.2667
24673W        W40857  11.591   1.877  15.434  0.1062 -0.2812  0.1972
24674W        W40858  16.545   8.853  12.215 -0.3074  0.0449  0.0430
24675W        W40859  11.855  15.052   4.799 -0.2566  0.0102  0.2378
24676W        W40860   1.944   5.949   3.788 -0.3028 -0.0717 -0.2275
24677W        W40861   1.554   3.983   0.935  0.0742 -0.0639 -0.0293
24678W        W40862   0.378  16.657  11.779 -0.0413  0.0087  0.1361
24679W        W40863   8.609   4.566  14.614  0.1253  0.0246 -0.1101
24680W        W40864  17.186   6.644   0.002  0.3483 -0.0671  0.0662
24681W        W40865   5.252  10.038   2.161  0.1780  0.2211 -0.0514
24682W        W40866  10.918  12.842  16.584  0.0943  0.1484 -0.3349
24683W        W40867   3.146  17.568  15.454 -0.2087  0.2416  0.4101
24684W        W40868   1.222  12.501   4.886  0.1633  0.1816 -0.0525
24685W        W40869  16.389   2.777   2.642  0.2137  0.2632 -0.0930
24686W        W40870   2.190  13.930   2.344 -0.1020 -0.0368  0.0057
24687W        W40871   4.406   5.799   0.139  0.2350  0.1026  0.0112
24688W        W40872   5.697  12.558  16.700 -0.1430 -0.1919 -0.2818
24689W        W40873   2.728   9.490   0.194  0.2528 -0.3700 -0.0171
24690W        W40874   3.792   9.176   3.942  0.2214 -0.2146  0.3890
24691W        W40875   1.351   6.755   3.534  0.0627 -0.1180  0.1282
24692W        W40876  15.166   1.908   1.262 -0.1350 -0.2358  0.0111
24693W        W40877  15.436  14.592  16.199 -0.2100 -0.0560 -0.1300
24694W        W40878   5.689   3.769   2.259  0.1613  0.0432  0.0437
24695W        W40879  11.724  14.217   3.522 -0.1915  0.0816  0.0432
24696W        W40880  15.995  14.885   3.971  0.3965 -0.1640 -0.0241
24697W        W40881   4.087   2.552  12.379  0.2608  0.1275 -0.0604
24698W        W40882   1.339   7.852  13.535 -0.1185  0.1495 -0.0588
24699W        W40883  17.004  11.037  12.483 -0.0722 -0.0287 -0.0680
24700W        W40884  17.122  15.956  14.669  0.0216 -0.1187  0.0953
24701W        W40885   4.302  14.317   1.053 -0.1606 -0.0436  0.1280
24702W        W40886   5.507   7.405   3.932 -0.0522 -0.1963 -0.4877
24703W        W40887  13.873   1.103   5.234  0.0932 -0.2578 -0.1142
24704W        W40888   6.635  15.447   5.387 -0.1178  0.0177  0.0499
24705W        W40889  13.845  15.233   3.491 -0.0068  0.3335 -0.1666
24706W        W40890   7.883   4.692   2.936 -0.1125 -0.1696 -0.1842
24707W        W40891   7.395   1.901   1.927 -0.1884  0.0628  0.0316
24708W        W40892  15.302   6.652  12.948 -0.0022  0.0821 -0.1865
24709W        W40893   1.998  10.527  12.772  0.1059  0.1323  0.0889
24710W        W40894  12.742  15.954   5.330  0.0414  0.0332 -0.0117
24711W        W40895  12.988   0.965   0.514 -0.0396  0.1719 -0.0522
24712W        W40896   1.591  14.503   4.680 -0.2647  0.2038  0.2826
24713W        W40897  12.814   2.809   2.376  0.0241  0.0597 -0.1959
24714W        W40898   6.241   2.395  13.086 -0.2905 -0.0473 -0.1894
24715W        W40899   1.008   0.102   2.684  0.0098  0.2581 -0.1553
24716W        W40900  17.202   1.912   2.579 -0.1379 -0.2765  0.0378
24717W        W40901  15.851   3.717  10.708  0.0675  0.2368  0.0574
24718W        W40902  12.726  13.526  16.509  0.0693 -0.2976 -0.0811
24719W        W40903   2.510  10.712   0.658  0.0953 -0.0644 -0.0132
24720W        W40904   2.317   3.799  11.813  0.2035 -0.0924  0.1069
24721W        W40905  11.104   5.450   4.962  0.2120  0.1472 -0.0009
24722W        W40906  17.923   2.479   4.578  0.2346 -0.2875 -0.1562
24723W        W40907   7.277   2.160  15.630  0.2134  0.1948 -0.1266
24724W        W40908  13.246   8.532   6.195  0.1218  0.1110  0.1173
24725W        W40909   4.562   2.958   0.612 -0.1661 -0.1705  0.0464
24726W        W40910  17.780   2.342   4.044  0.0736  0.1058  0.2104
24727W        W40911   1.296  10.735   2.641 -0.3034  0.1459  0.2559
24728W        W40912   7.634  14.684   3.576 -0.2618  0.2520  0.2057
24729W        W40913   5.897   3.626  15.179 -0.0323 -0.1840 -0.3338
24730W        W40914   2.094   7.259  15.689 -0.0397 -0.2366  0.0924
24731W        W40915   0.942   0.315   4.670 -0.0259 -0.1456  0.1046
24732W        W40916   2.954   7.324  12.680 -0.2023  0.0286 -0.0308
24733W        W40917   0.089   2.327  11.955 -0.4181  0.1944 -0.1805
24734W        W40918  14.145   9.549  14.580  0.1616 -0.0324  0.0557
24735W        W40919   9.857  14.682   2.797 -0.1071 -0.1172  0.1586
24736W        W40920   4.106  14.541  13.680  0.0977  0.1434 -0.0461
24737W        W40921  11.590   2.735  11.704 -0.2668  0.0632  0.0311
24738W        W40922  11.161   6.299  11.571 -0.0599 -0.1199 -0.1818
24739W        W40923   8.658   7.762   3.126 -0.4776 -0.0696 -0.0640
24740W        W40924   2.974   3.961  14.979 -0.0837 -0.3958  0.1515
24741W        W40925  13.765   0.091  13.734  0.1446  0.0940  0.4786
24742W        W40926  13.861  14.964   2.328  0.1548 -0.1078 -0.3780
24743W        W40927  13.257  10.175   5.898  0.5772  0.0011  0.3034
24744W        W40928   6.221  14.203   5.219  0.0606  0.0961  0.0918
24745W        W40929  15.176  16.019  16.167 -0.5292 -0.1826 -0.0605
24746W        W40930  12.007   6.063  14.648 -0.0199 -0.3006  0.3185
24747W        W40931  17.977   2.917  11.970 -0.2239  0.1752  0.0701
24748W        W40932   5.066   9.949   3.079  0.2159  0.1399  0.1242
24749W        W40933  15.824   5.141  14.011  0.1102  0.2752 -0.1051
24750W        W40934  12.806   2.518  16.300  0.0308 -0.2469  0.1711
24751W        W40935   1.934  14.513  16.446  0.0736  0.0194  0.0129
24752W        W40936   2.784  11.452  15.021 -0.1649  0.2868  0.0950
24753W        W40937  15.617  12.757   2.586 -0.1635  0.1398  0.3003
24754W        W40938  13.405   6.552  12.407  0.4230  0.0276 -0.0580
24755W        W40939  15.482  13.233   3.816  0.0157  0.3796  0.1226
24756W        W40940  11.031   6.840   2.969  0.0812 -0.0795  0.0056
24757W        W40941   6.812  17.321   5.083 -0.0229 -0.0909  0.0659
24758W        W40942  17.646  15.257   3.409 -0.0569  0.0735 -0.1408
24759W        W40943  15.207   9.652  16.452 -0.1578  0.1369  0.0877
24760W        W40944   8.818  17.413  15.603  0.0409  0.2830  0.1005
24761W        W40945  15.004   0.297   2.154  0.1417 -0.2720  0.2351
24762W        W40946  11.787  17.472  16.547  0.1326  0.1415 -0.0889
24763W        W40947  13.579   1.734  12.101  0.1853  0.2825 -0.0901
24764W        W40948  15.671  11.358  12.743  0.2172  0.1897 -0.3703
24765W        W40949   4.604  13.706  14.816 -0.1133 -0.0009 -0.1972
24766W        W40950   8.742  16.706   2.007  0.0817  0.1509  0.0569
24767W        W40951  15.360   8.023  13.536  0.1927 -0.0155  0.1838
24768W        W40952   4.737  11.858   4.468 -0.1881  0.0843 -0.2142
24769W        W40953  12.460   8.299   1.101  0.0985 -0.0684 -0.0969
24770W        W40954   0.452  10.991   2.524  0.0355 -0.0308  0.1861
24771W        W40955   2.027   4.985  13.326 -0.1931  0.1906 -0.1100
24772W        W40956  11.130   5.854  15.601 -0.1588 -0.1181  0.2400
24773W        W40957   1.062  12.863  16.032  0.0590  0.1559  0.1170
24774W        W40958  10.547   3.928  13.395  0.1234 -0.0645 -0.1155
24775W        W40959   8.331   5.318  15.962 -0.1737 -0.2437  0.2004
24776W        W40960   0.735  11.547   3.013 -0.0706 -0.1096  0.1720
24777W        W40961   8.852   5.055  14.731 -0.2850 -0.0473 -0.0719
24778W        W40962   1.277   9.508  11.861 -0.1895 -0.1337  0.0430
24779W        W40963   8.421  12.408   4.438 -0.0792  0.0473 -0.0065
24780W        W40964   0.028   8.830  16.327  0.2168 -0.3049 -0.0671
24781W        W40965  12.557   7.162  16.059 -0.1037 -0.3549 -0.2044
24782W        W40966  12.418  17.257  14.176  0.0706 -0.3038  0.0049
24783W        W40967   1.907   8.751   3.564  0.0345  0.1629 -0.3857
24784W        W40968  14.957   8.670  16.188  0.1280  0.1577 -0.1870
24785W        W40969   8.299   9.920  13.647 -0.2497 -0.0869  0.2898
24786W        W40970  14.036   4.125  12.729 -0.0331  0.0009  0.1564
24787W        W40971   6.145   0.562   5.102  0.3051 -0.1333  0.2747
24788W        W40972   0.922   0.991   1.128 -0.1934 -0.2594 -0.2885
24789W        W40973  12.217   1.840   1.642 -0.0513  0.1195 -0.1068
24790W        W40974   2.942  10.834  16.136 -0.0446  0.0670  0.0302
24791W        W40975   5.689  14.471   2.334 -0.0001  0.1953 -0.2464
24792W        W40976  11.863   1.783   3.805  0.3153  0.0641 -0.0482
24793W        W40977   3.648   9.894   3.207  0.2628 -0.2726 -0.0180
24794W        W40978   3.619   6.568  12.244  0.0944  0.1536  0.0879
24795W        W40979   9.183  14.087   1.543  0.2738  0.1083  0.3654
24796W        W40980  10.293  12.914  11.944  0.2624  0.1366  0.1851
24797W        W40981  17.056   0.242  11.780 -0.2734  0.3784  0.1311
24798W        W40982  15.778  15.205   1.991 -0.0254  0.1272 -0.3222
24799W        W40983   8.616  11.207  16.073 -0.2451  0.1993 -0.1243
24800W        W40984  16.343   2.520  11.956  0.1105 -0.0036 -0.0056
24801W        W40985  13.686  16.448  12.888  0.0730 -0.1297  0.3759
24802W        W40986   0.449   0.496   1.975 -0.0341  0.0072  0.0366
24803W        W40987   5.228  15.460  12.037  0.0552 -0.1478 -0.1409
24804W        W40988  12.088  14.995   0.408  0.0999  0.1313  0.0343
24805W        W40989  13.433   6.629   1.695  0.1560  0.4500  0.3176
24806W        W40990   6.134   5.340   0.254  0.0417 -0.3066  0.1131
24807W        W40991  11.915   7.756   4.982 -0.2429 -0.1301 -0.0820
24808W        W40992   6.508   8.091   2.352  0.5334  0.0165 -0.3514
24809W        W40993   4.321  11.145  14.231 -0.2091  0.1558  0.0729
24810W        W40994   9.205  10.538   0.492 -0.0266  0.0812 -0.0322
24811W        W40995   6.930   6.698  14.703  0.4201 -0.1853  0.5440
24812W        W40996   0.651   3.002   1.772 -0.4124 -0.0971 -0.0564
24813W        W40997   0.669  13.900   4.739 -0.0291  0.3344  0.0481
24814W        W40998  12.478   6.925   2.938 -0.0647  0.1068  0.0066
24815W        W40999   8.630   4.910   0.685  0.1683 -0.0200  0.0785
24816W        W41000  10.085   5.671   2.972 -0.1897  0.0023  0.0602
24817W        W41001  11.195   8.749  13.405  0.0884 -0.0881 -0.1541
24818W        W41002  11.135   8.092   0.846  0.3337  0.0012  0.1934
24819W        W41003  10.630   7.920  14.322 -0.1052  0.0886 -0.0670
24820W        W41004  17.201  10.603  16.594 -0.0747 -0.2749  0.2317
24821W        W41005   6.025   7.524  14.452  0.0883 -0.1808 -0.0584
24822W        W41006  15.708   2.922   4.280  0.0125 -0.0754 -0.0824
24823W        W41007   0.275  11.478   3.861  0.3682  0.2266 -0.2730
24824W        W41008  13.362   0.266   2.256  0.0037  0.3060  0.4705
24825W        W41009  15.710  10.190   0.645 -0.1850  0.0130  0.1516
24826W        W41010  10.991  12.012   2.853  0.0305  0.0159 -0.1158
24827W        W41011  11.076  13.820  14.406  0.4008  0.0810 -0.3446
24828W        W41012   6.001   5.008  12.451  0.1517 -0.0696  0.2733
24829W        W41013   3.948   3.752   2.608 -0.0681 -0.2268  0.0686
24830W        W41014  10.996   1.738   6.152  0.0182  0.1084 -0.1088
24831W        W41015   8.625  14.491  15.519  0.1383 -0.1375  0.0003
24832W        W41016  15.608   6.269  12.649 -0.1496 -0.0822  0.2022
24833W        W41017   8.698   4.955  12.369 -0.0835 -0.3286  0.2327
24834W        W41018   8.199  17.650   1.987 -0.2212 -0.1193  0.0241
24835W        W41019   7.275   7.172  13.824 -0.0348  0.0231  0.1527
24836W        W41020   0.239  15.785  13.073 -0.3962 -0.0352  0.1170
24837W        W41021  15.511   7.867  14.475  0.2030  0.0527  0.0100
24838W        W41022  17.564   7.061   3.489  0.0666  0.0624 -0.0243
24839W        W41023  16.603  13.750  14.994  0.0629  0.4210 -0.1133
24840W        W41024  17.595  13.232  13.989 -0.1445 -0.1623 -0.0527
24841W        W41025   2.888   9.544   2.543  0.0146  0.2121 -0.0632
24842W        W41026  14.140   6.774   0.824 -0.2925 -0.3842 -0.0876
24843W        W41027   2.530   8.791   5.756  0.0836 -0.1927 -0.0530
24844W        W41028   4.715   7.207  12.222 -0.0896  0.5349 -0.0018
24845W        W41029  17.811  11.609  12.658 -0.3994  0.2001  0.2235
24846W        W41030  17.266   2.572   1.663  0.0423  0.0234 -0.3161
24847W        W41031   0.834   8.792   1.029  0.1946  0.1285  0.0291
24848W        W41032   5.382   6.071   3.884  0.0512  0.2987  0.0334
24849W        W41033  12.932   4.860  12.526  0.1060 -0.0049  0.0510
24850W        W41034   2.738  15.396  15.020 -0.3205 -0.2267  0.0533
24851W        W41035  15.654   2.643   3.201 -0.0800  0.1668  0.0944
24852W        W41036   3.665   0.121  15.864  0.1790  0.0709 -0.0874
24853W        W41037   0.113  17.147   3.319 -0.2712 -0.3129  0.1323
24854W        W41038  10.525   3.300  12.166  0.0564 -0.0856  0.1697
24855W        W41039  16.736   2.349   2.456 -0.1008  0.0604 -0.0945
24856W        W41040   3.607   3.176  15.110 -0.1147 -0.1674 -0.2277
24857W        W41041   6.831   1.083   3.033  0.2353  0.1724  0.2610
24858W        W41042   9.018   9.570   1.808 -0.0777 -0.1101  0.3164
24859W        W41043   7.322  15.037   6.399  0.0561  0.0831 -0.0311
24860W        W41044   8.762   0.149   0.329 -0.0269  0.2778  0.0164
24861W        W41045  10.898   4.267   0.613 -0.1068  0.2246 -0.2719
24862W        W41046   6.864   1.706   3.114  0.5822 -0.0968 -0.1620
24863W        W41047  13.585  14.504  16.321  0.0826 -0.2279  0.0971
24864W        W41048  13.143  17.821   5.450  0.1865  0.1100  0.3210
24865W        W41049   4.396   2.998  13.401 -0.0203 -0.3275  0.1449
24866W        W41050  15.836  15.872   0.134 -0.0046  0.3131  0.0325
24867W        W41051  12.293   8.148  14.638  0.1631 -0.2060 -0.0709
24868W        W41052  10.571   3.461  13.135  0.0051  0.1689  0.0550
24869W        W41053   4.402  14.859  13.940  0.1092  0.6733 -0.3159
24870W        W41054  14.292   2.385   4.794 -0.2925  0.1916  0.0083
24871W        W41055  11.635   7.688   3.802 -0.0066 -0.0155 -0.1091
24872W        W41056   9.753   2.426   0.343  0.1947 -0.0545  0.2151
24873W        W41057   9.350  12.138  14.924  0.2204  0.1881 -0.0850
24874W        W41058   8.564   3.669  13.310 -0.0217  0.1352  0.1099
24875W        W41059  12.993   3.759   2.095  0.0802 -0.4289 -0.0912
24876W        W41060  15.154  15.105   3.828 -0.1539 -0.2517 -0.0799
24877W        W41061   3.808  13.075  12.540 -0.0487 -0.0339  0.0198
24878W        W41062   8.187   2.430   4.326  0.2091 -0.3053  0.0572
24879W        W41063  11.488  17.820   4.521 -0.1397  0.1360 -0.0913
24880W        W41064  10.279  16.692   6.173 -0.0075 -0.2730 -0.1250
24881W        W41065   7.805   2.639  15.843  0.1034  0.0069  0.0740
24882W        W41066   4.953   9.131  11.911 -0.2275  0.0154 -0.0889
24883W        W41067   5.194   2.808  13.104 -0.2274  0.2223 -0.0945
24884W        W41068  11.704  11.270  13.722 -0.2517 -0.2094  0.2240
24885W        W41069   4.463  16.884  12.920  0.0894 -0.1347  0.2161
24886W        W41070  14.953   0.933   1.414 -0.1302 -0.2357 -0.1132
24887W        W41071   5.618  13.914   6.481  0.0174 -0.1590 -0.2596
24888W        W41072   8.808   7.539  15.539 -0.1424 -0.1183  0.1169
24889W        W41073  16.221  11.993   2.863  0.0580 -0.2607 -0.0441
24890W        W41074   5.919   6.615  14.791  0.2467  0.1387 -0.3922
24891W        W41075  16.162  16.200  14.606  0.0163 -0.0861 -0.1022
24892W        W41076   6.369  16.950  16.159  0.2036 -0.0007  0.3174
24893W        W41077   1.092   7.295  11.530 -0.0616 -0.2426  0.1833
24894W        W41078   6.320  17.030  15.216 -0.0270  0.2637  0.1817
24895W        W41079  17.395   1.822   1.325  0.1615 -0.1234  0.2501
24896W        W41080   4.930   6.877  14.540  0.0825 -0.2294 -0.2827
24897W        W41081  13.176   9.925   4.552  0.1405 -0.1686 -0.0549
24898W        W41082   7.018  14.622  12.454 -0.0256 -0.2664 -0.1385
24899W        W41083   6.030  13.488   5.017  0.2042 -0.1782  0.1179
24900W        W41084   3.493   8.133  13.012  0.2544  0.0498  0.0622
24901W        W41085   9.350  13.926   5.590 -0.0733  0.3269  0.1207
24902W        W41086   7.853   9.556   3.736  0.0061  0.2471  0.0394
24903W        W41087   8.806  16.803   4.420  0.0641 -0.0313  0.2571
24904W        W41088   1.486   4.896  15.425 -0.1011  0.0172 -0.1755
24905W        W41089  17.330  14.749  13.217  0.0711 -0.2628 -0.1076
24906W        W41090  11.573   9.525   5.167  0.1110 -0.0751 -0.2214
24907W        W41091  14.490  16.768   0.740  0.0564  0.1427  0.1515
24908W        W41092   6.993  14.635  16.012  0.1992 -0.0407  0.0398
24909W        W41093   5.987   2.461  15.549 -0.0073  0.2817  0.2938
24910W        W41094   4.591  10.320  11.831 -0.1141 -0.1138 -0.1345
24911W        W41095   3.522   1.945   2.446 -0.1417 -0.2135  0.0834
24912W        W41096   2.129   6.886   0.307  0.3675  0.1909  0.1614
24913W        W41097   3.625   7.959   2.323 -0.1796 -0.1373 -0.4175
24914W        W41098  17.234   2.371   2.797  0.0323 -0.2694  0.1222
24915W        W41099  16.800   4.077   3.556 -0.0907 -0.2570 -0.1039
24916W        W41100   4.257   6.316   0.111  0.1263 -0.1830 -0.0167
24917W        W41101   5.034   4.109  13.642 -0.0709 -0.1470 -0.0499
24918W        W41102  17.190   0.165   2.157 -0.0442 -0.1598  0.0692
24919W        W41103   0.826  17.203   0.233 -0.0568  0.5571 -0.3337
24920W        W41104  16.356   4.433   2.464 -0.0085 -0.1019  0.4403
24921W        W41105  17.225   6.253  12.577 -0.1944 -0.3868  0.1568
24922W        W41106  15.933  13.885  15.500  0.0945 -0.0880  0.1536
24923W        W41107  12.582   0.014  12.114 -0.4555  0.0882 -0.0543
24924W        W41108  10.142  11.149   0.250 -0.1559 -0.0933  0.1787
24925W        W41109  13.829   5.288   2.000 -0.1123 -0.2421  0.0351
24926W        W41110   4.391  16.504  15.999 -0.0907  0.4938 -0.3724
24927W        W41111   7.204  16.102   0.143 -0.2900  0.0580  0.2479
24928W        W41112  14.219   3.041   2.164 -0.2672 -0.0956 -0.0726
24929W        W41113   3.777  14.499   2.172 -0.0747  0.3648 -0.2963
24930W        W41114  15.787  12.032  12.290  0.1602  0.0384 -0.2287
24931W        W41115  12.612   4.685   0.779  0.1283 -0.0788  0.1486
24932W        W41116  15.284   8.661   4.948 -0.1510  0.2208  0.1613
24933W        W41117   2.920  11.870   4.155 -0.1071  0.0704  0.1209
24934W        W41118   8.163  13.898   2.600  0.1425 -0.1691  0.2647
24935W        W41119   1.588  13.836   5.080 -0.1680  0.2120  0.0676
24936W        W41120   9.408   9.357  12.920  0.2348  0.0597  0.0895
24937W        W41121  10.628  12.638  14.808 -0.3156 -0.2369 -0.0893
24938W        W41122  12.264  15.712   2.758 -0.0339  0.3319  0.0756
24939W        W41123   5.097   7.663   0.078  0.2516  0.4495 -0.0124
24940W        W41124   1.635  14.335  16.095 -0.2330  0.1483  0.1562
24941W        W41125  17.774   1.244  13.239  0.4350  0.1233 -0.0438
24942W        W41126  14.998  17.331  16.215 -0.2020 -0.2852  0.1077
24943W        W41127  12.167   5.512  12.952 -0.0348  0.0940  0.0955
24944W        W41128  13.427   2.277  15.123 -0.2468 -0.0151 -0.2843
24945W        W41129   5.982   3.605  13.642 -0.2214  0.2427  0.3852
24946W        W41130   0.322   0.943   5.142 -0.0265  0.1153 -0.0296
24947W        W41131  17.890   4.344  12.948  0.2060  0.0099 -0.2273
24948W        W41132  13.212   9.261   2.942  0.0116  0.1605  0.1667
24949W        W41133   6.982  12.210   6.314 -0.0317 -0.1086 -0.1280
24950W        W41134   0.576  14.334   1.059 -0.1366  0.0224  0.0176
24951W        W41135  16.639   7.780  13.993  0.5721 -0.0791 -0.1293
24952W        W41136   6.835   9.865   5.592  0.0781  0.1449  0.2137
24953W        W41137  17.259   2.817  11.676  0.0336  0.0404 -0.0976
24954W        W41138   2.328  10.079  15.978 -0.1000  0.1222  0.0294
24955W        W41139   6.142   3.815  14.026  0.3059 -0.2002 -0.2369
24956W        W41140   4.899  16.698  12.898 -0.0382 -0.2702 -0.0238
24957W        W41141  11.924  11.645  12.949  0.1999 -0.1504  0.1294
24958W        W41142   5.497   6.895  15.120  0.0558  0.1352  0.2163
24959W        W41143   1.121   8.032   3.486 -0.0559 -0.0616  0.0790
24960W        W41144  17.074   4.990   0.141 -0.0253 -0.2014  0.1939
24961W        W41145   3.366   9.439   2.248  0.1514 -0.0122  0.0117
24962W        W41146  16.502   3.795   0.296  0.1132  0.0976  0.1513
24963W        W41147   0.041   1.689   5.728 -0.1223  0.0333 -0.0119
24964W        W41148  10.969   3.222  14.823 -0.2183  0.0640 -0.0873
24965W        W41149   5.663  11.083   0.908  0.1476  0.0494  0.0073
24966W        W41150  12.365  12.633  13.964  0.5194 -0.1978 -0.0262
24967W        W41151   5.563   5.719   1.847  0.0058  0.0931 -0.2972
24968W        W41152   2.986   2.409  11.733  0.1257 -0.1115  0.2040
24969W        W41153  13.129  13.533  16.194  0.2669  0.2291 -0.2116
24970W        W41154  16.177   8.765   0.600 -0.0623  0.0627 -0.0187
24971W        W41155  16.275  16.719   1.773  0.2407 -0.1649 -0.1826
24972W        W41156   0.601   0.308  13.786 -0.1573 -0.1758  0.0602
24973W        W41157   5.795   9.952   2.491  0.0951 -0.1283  0.0681
24974W        W41158  12.682  15.186  15.007 -0.2866 -0.2493 -0.2011
24975W        W41159   9.630   2.753  16.564 -0.1838  0.0669 -0.2502
24976W        W41160   5.174   7.482   6.045  0.3881  0.0752  0.0205
24977W        W41161  17.412  13.183   2.171 -0.2148  0.0247 -0.1989
24978W        W41162  17.338  10.965   5.066  0.0356  0.1571 -0.0343
24979W        W41163  10.657   1.846  12.868 -0.0860  0.2205 -0.0168
24980W        W41164   5.519   5.619  12.920 -0.1532 -0.0875 -0.3717
24981W        W41165  12.353   9.270  14.036  0.0895 -0.0729  0.0172
24982W        W41166  12.707   8.925   1.856  0.2217  0.2656  0.0256
24983W        W41167   9.922   2.216  13.494 -0.3169  0.0686 -0.1281
24984W        W41168   9.595  17.722  15.382  0.3516  0.1654 -0.0532
24985W        W41169   3.411   3.665   0.808  0.2623  0.1869  0.0209
24986W        W41170   1.114  10.128  14.851 -0.1250  0.1942 -0.1477
24987W        W41171   8.767  13.887   3.261 -0.0444 -0.0971  0.0097
24988W        W41172   0.971   9.178  15.069 -0.0502 -0.0800  0.0503
24989W        W41173   9.502   5.303  15.211 -0.0104  0.2312 -0.0360
24990W        W41174   6.128   3.045  11.859 -0.0972  0.1244  0.2731
24991W        W41175   5.903   5.236   2.038  0.3899  0.0816  0.0850
24992W        W41176  17.700   1.478  15.185 -0.0352  0.5739 -0.4012
24993W        W41177   8.190  15.375  12.632  0.1499  0.0538  0.1268
24994W        W41178   4.197   5.463   1.822  0.1497  0.0694 -0.4431
24995W        W41179  13.020  11.950   3.602  0.0870  0.0646 -0.4166
24996W        W41180   4.627   3.896   3.283  0.3786 -0.0393  0.0440
24997W        W41181  14.394   9.004   5.253 -0.1286  0.0209  0.0255
24998W        W41182  13.747   5.257  12.240 -0.3218  0.1134 -0.2979
24999W        W41183   8.683   0.813  14.047  0.2708  0.1847 -0.0172
25000W        W41184   8.175  10.982  16.308 -0.1092 -0.1876 -0.0975
25001W        W41185  10.410  10.581   2.122  0.0097 -0.4714 -0.1517
25002W        W41186   4.149  12.166   0.961 -0.0752 -0.2464 -0.1492
25003W        W41187  14.682   3.146  14.366 -0.0631 -0.3589 -0.2300
25004W        W41188   6.108  10.984  15.124 -0.1842  0.0442 -0.1274
25005W        W41189  14.493   6.411   5.986 -0.2334 -0.0950  0.0830
25006W        W41190  14.596   9.953   0.256 -0.0338 -0.0109  0.0488
25007W        W41191   1.834  11.014   5.810 -0.1786  0.0955  0.0424
25008W        W41192   8.871  14.629   6.050  0.0514 -0.1440 -0.1165
25009W        W41193  17.763   5.951  13.281  0.3896  0.2091 -0.0978
25010W        W41194  10.553   6.098  13.010  0.3700  0.1142 -0.0816
25011W        W41195   2.187   2.823  11.802  0.1573  0.1063  0.0691
25012W        W41196  17.310  13.339  12.487 -0.1468 -0.0841  0.2887
25013W        W41197  16.144   6.546   2.343 -0.0710 -0.1836 -0.1799
25014W        W41198   2.788  17.606   0.572 -0.2853  0.2407  0.2875
25015W        W41199  17.019  13.867  15.646 -0.0461 -0.1085 -0.0378
25016W        W41200  15.182  10.798  12.894  0.0951 -0.0653 -0.1881
25017W        W41201   5.393   4.051   3.871  0.3436 -0.0961  0.1712
25018W        W41202   0.166   4.426   3.514 -0.1157 -0.4067 -0.1569
25019W        W41203   2.805   2.030  16.288 -0.2477 -0.1102  0.0078
25020W        W41204  17.968   8.195   1.183  0.1175 -0.1508  0.0343
25021W        W41205  13.283   9.138  15.505 -0.0858  0.0180  0.2019
25022W        W41206  16.935  11.444   5.315  0.2382  0.0622 -0.3058
25023W        W41207  11.878  12.666  12.236  0.0090  0.2104 -0.2635
25024W        W41208  14.937  12.093   2.505 -0.1494  0.2216 -0.0281
25025W        W41209   2.136  10.377   0.621 -0.1991  0.1413  0.0492
25026W        W41210   3.609   8.067   5.234 -0.2991 -0.0105 -0.0448
25027W        W41211  14.601  12.705  14.510 -0.2742 -0.0317 -0.0159
25028W        W41212  17.304   3.240   4.328 -0.0393  0.0368 -0.0218
25029W        W41213  14.839   6.652  14.288  0.0658 -0.1077 -0.1133
25030W        W41214   2.667  15.777  15.523 -0.2520  0.1042 -0.3974
25031W        W41215  17.808   7.321   1.431  0.0361 -0.0278  0.2638
25032W        W41216  12.500  12.554   1.246 -0.5194 -0.0734  0.3053
25033W        W41217   6.168   9.615   0.833 -0.0601 -0.0012  0.2115
25034W        W41218   1.608  13.359   5.222  0.0382 -0.0536  0.1178
25035W        W41219   1.350   4.066   1.407 -0.0812  0.0652 -0.2189
25036W        W41220  16.465  10.770   5.020 -0.2537  0.0153 -0.4397
25037W        W41221  12.221  12.251  16.291  0.0161 -0.2366 -0.3023
25038W        W41222  10.825  12.346   2.541  0.3746  0.0900  0.4619
25039W        W41223  11.165  12.214  15.443  0.0608  0.1872  0.0273
25040W        W41224   1.739  10.466  11.935 -0.1186 -0.3285  0.1218
25041W        W41225  11.049  16.274   3.933  0.1678 -0.1567  0.1662
25042W        W41226  15.202   2.886  12.151  0.0207  0.0319 -0.4291
25043W        W41227  15.503   2.299   5.358  0.0030  0.4500  0.2613
25044W        W41228   1.832   4.322   2.824 -0.2615 -0.1834 -0.1190
25045W        W41229   7.985  16.486   0.537 -0.1517 -0.0825  0.0449
25046W        W41230  12.017   3.337   1.415  0.0129 -0.0521 -0.1112
25047W        W41231   1.484   7.551  11.789  0.1131  0.1675 -0.2439
25048W        W41232  17.451   0.739  14.443  0.1120  0.0785 -0.0173
25049W        W41233   8.249  15.917  12.722 -0.0432  0.6802  0.1629
25050W        W41234   1.749   7.406  12.342 -0.1031  0.2755  0.2053
25051W        W41235   9.979  12.102   2.820  0.1833 -0.0209 -0.1904
25052W        W41236  12.292   4.227  13.379 -0.1550 -0.1452  0.1907
25053W        W41237   1.777  12.601   4.916  0.0497  0.1845  0.2159
25054W        W41238   3.900  14.221  16.474 -0.1045 -0.1127 -0.0618
25055W        W41239   3.164  15.591   3.993 -0.3897  0.0609 -0.2238
25056W        W41240  17.243   7.509   0.349 -0.1741  0.1313 -0.0410
25057W        W41241   6.690  10.579  14.755 -0.0307  0.0876  0.0212
25058W        W41242   6.355  10.587  13.887  0.2129  0.0386  0.1290
25059W        W41243  10.514   4.683   0.690  0.0356  0.0062 -0.3121
25060W        W41244  15.816  10.775  16.390  0.0012  0.2761 -0.2899
25061W        W41245   3.646  11.223   2.230 -0.0802 -0.0019 -0.1529
25062W        W41246   5.038   0.009  13.997  0.1250  0.1240 -0.2826
25063W        W41247  11.488   4.014  16.111  0.1011 -0.0649  0.1701
25064W        W41248  13.374   7.879   1.986  0.0777  0.1194  0.1550
25065W        W41249  14.204   5.954  11.826 -0.1316  0.1554 -0.0643
25066W        W41250   6.006   6.346  13.797  0.1564 -0.0736  0.1724
25067W        W41251   1.599   5.031   4.958 -0.1225  0.0587  0.2458
25068W        W41252   1.393  17.352   5.333 -0.0459  0.0426  0.3714
25069W        W41253   1.353  11.954   3.500  0.1678 -0.1506 -0.2950
25070W        W41254   2.715  13.729   1.638  0.0248  0.0026  0.2977
25071W        W41255   5.207  13.452   3.707 -0.2100  0.0398  0.0574
25072W        W41256   9.183   9.330   2.648 -0.1227 -0.0072 -0.1527
25073W        W41257  10.872  13.172   4.300 -0.1004  0.3745  0.0284
25074W        W41258   7.206   2.104  15.050  0.0423 -0.0023  0.2543
25075W        W41259   9.846   3.111   5.879  0.3234  0.1325  0.1757
25076W        W41260  12.598  13.883  13.196  0.1172 -0.1281  0.3066
25077W        W41261  13.077  15.699  15.802 -0.0875 -0.3458 -0.0696
25078W        W41262  12.786   7.130   5.712 -0.0926  0.0889  0.0531
25079W        W41263   6.879  16.514  14.229 -0.0981 -0.0354 -0.1439
25080W        W41264   8.321   7.492   5.327 -0.1932  0.0100 -0.1181
25081W        W41265  14.182  14.045   5.201 -0.0262 -0.3633  0.2788
25082W        W41266  12.609   4.566   3.809  0.1855  0.2395 -0.0146
25083W        W41267   8.562   5.281   4.463  0.3681 -0.0369  0.3286
25084W        W41268   2.317  12.500  13.714 -0.3033 -0.3057  0.0080
25085W        W41269  14.577   0.305  15.078  0.0674 -0.1436 -0.0324
25086W        W41270  15.518  10.652   1.555  0.0927  0.2884  0.3392
25087W        W41271  12.948   4.373   4.976 -0.0101 -0.2387  0.0514
25088W        W41272  14.042  15.145   4.369  0.1748 -0.0704 -0.2531
25089W        W41273   2.738   7.678   0.681  0.0937 -0.0017 -0.0065
25090W        W41274   8.220  17.692  12.332 -0.0851 -0.2197  0.0963
25091W        W41275   9.178  10.520  12.265 -0.0171 -0.0809  0.0019
25092W        W41276   9.692   9.227   5.674  0.2753  0.1119 -0.2227
25093W        W41277   2.582  13.178  14.362 -0.1119 -0.0078  0.0992
25094W        W41278  11.014  12.297   0.542  0.1060  0.0494 -0.1015
25095W        W41279   9.696   0.514   4.916  0.2423  0.2151  0.1649
25096W        W41280  15.773   4.485  13.375 -0.2188  0.3309  0.0160
25097W        W41281   7.582  16.661   0.828  0.0407  0.0681 -0.3568
25098W        W41282  14.367  16.346  15.681 -0.0088 -0.4974 -0.1593
25099W        W41283  16.120   0.045  14.347  0.1039  0.3013  0.1776
25100W        W41284   3.837   8.673   3.745  0.2052 -0.1091  0.3356
25101W        W41285   5.034  12.307   4.890 -0.2650  0.1291  0.2643
25102W        W41286  13.813   8.707  15.057 -0.1944  0.2255 -0.2785
25103W        W41287  17.528   4.112  14.028 -0.0041 -0.0665 -0.2702
25104W        W41288  14.271  17.963   3.993 -0.1279  0.4105 -0.0152
25105W        W41289  14.398  16.810   3.618 -0.4005 -0.2914 -0.1229
25106W        W41290  16.676   4.811   1.163  0.0103  0.0230  0.2862
25107W        W41291  12.848   2.408   2.072  0.1913  0.0142 -0.0517
25108W        W41292   5.600   1.906   5.330 -0.0569 -0.1660 -0.0682
25109W        W41293  12.208   1.566   2.466  0.3059  0.0887  0.1977
25110W        W41294   0.761   7.958  15.395  0.0595  0.0017  0.1350
25111W        W41295   2.151   4.382  14.093  0.2082  0.1334 -0.1414
25112W        W41296   3.002  10.006   1.156 -0.1188 -0.1394  0.0646
25113W        W41297  16.509  16.710   2.625 -0.1322 -0.0545  0.1746
25114W        W41298   8.382   7.833  11.805  0.3607 -0.1991  0.0461
25115W        W41299  12.642  12.705  13.514  0.2762  0.0124 -0.2293
25116W        W41300   5.027   9.063   4.920  0.0467  0.0874  0.3566
25117W        W41301  16.540   8.557   3.676 -0.1662 -0.1521 -0.2854
25118W        W41302  15.076   3.849   4.883  0.0920 -0.1042  0.0570
25119W        W41303   7.271   1.043  16.686  0.0595 -0.0613 -0.1951
25120W        W41304   5.196   8.650  15.258  0.1991 -0.0949 -0.1355
25121W        W41305  16.148   6.531  14.009 -0.1379 -0.3866 -0.1185
25122W        W41306  16.561   8.671  14.153 -0.0104  0.0562 -0.1747
25123W        W41307   1.559   3.325  12.123  0.2074  0.0320  0.0555
25124W        W41308  14.848  10.143   5.656  0.1547  0.1124  0.0719
25125W        W41309   1.392   3.350  12.803  0.2513 -0.2287 -0.0189
25126W        W41310   2.490  16.478   1.405 -0.0581 -0.3054  0.4383
25127W        W41311  17.520   9.523   4.339 -0.1845 -0.1551 -0.2272
25128W        W41312   5.426   2.474   1.722  0.2999  0.4655 -0.2013
25129W        W41313  15.909  13.672   3.132 -0.2517  0.1086 -0.1426
25130W        W41314  12.418   2.262   1.843  0.2527  0.4859 -0.3309
25131W        W41315  12.661  16.582  13.029 -0.0465 -0.1621  0.1078
25132W        W41316   1.566   7.295  15.791  0.2772 -0.0547  0.0214
25133W        W41317   7.446  11.601   3.904 -0.1288 -0.2098  0.0236
25134W        W41318   8.157   2.240   1.178  0.2940  0.0029 -0.2946
25135W        W41319   5.741  12.204  15.140  0.1466  0.1766  0.2223
25136W        W41320  11.342  13.980   4.057  0.1379 -0.0495  0.0317
25137W        W41321   4.592  17.120  11.759 -0.2198 -0.2276  0.1924
25138W        W41322   7.088   2.406   3.815 -0.2639 -0.1244  0.2408
25139W        W41323   5.689   1.934   0.950  0.0688 -0.2216 -0.1761
25140W        W41324   0.312   6.026   2.292 -0.2462  0.0260 -0.0823
25141W        W41325  15.556   0.316   2.736  0.0793 -0.1817  0.2701
25142W        W41326   1.850  13.922  14.437 -0.1986  0.0889  0.1133
25143W        W41327  16.195  17.054   4.468  0.2681 -0.1735 -0.4385
25144W        W41328   0.100  17.573  13.300 -0.1460  0.1270  0.0442
25145W        W41329  12.228   8.680  16.484  0.2659  0.0109  0.1322
25146W        W41330  11.377  13.212   2.434 -0.2288 -0.1449 -0.1013
25147W        W41331  17.600  17.561   4.916  0.0628  0.1545 -0.3384
25148W        W41332   7.513   7.604  11.924 -0.2125 -0.1478  0.2586
25149W        W41333  11.033  13.125   5.229  0.0057 -0.1226  0.0942
25150W        W41334   1.860  13.538   1.530 -0.0893 -0.0835 -0.0559
25151W        W41335  13.071   1.781   2.801  0.1757 -0.0398  0.0269
25152W        W41336  15.191  11.247   3.473  0.0226 -0.0074  0.1127
25153W        W41337  15.365   3.827  15.738  0.3175  0.1820  0.1591
25154W        W41338  12.839  10.614  11.786  0.0086 -0.1715 -0.2265
25155W        W41339   4.170   7.714  12.267  0.1924 -0.1712  0.0933
25156W        W41340   9.033  16.581  15.516  0.0832  0.2791  0.0261
25157W        W41341   6.060   8.798  11.815 -0.0726 -0.0526 -0.1669
25158W        W41342   2.277  13.688  13.404  0.0307  0.0198  0.0743
25159W        W41343  17.689   6.854  13.812  0.1877  0.1741  0.1047
25160W        W41344   3.959   0.198   2.489  0.0403 -0.3068 -0.1061
25161W        W41345  10.078  17.968  16.220  0.0665  0.2859 -0.0756
25162W        W41346  15.133   7.615   4.053 -0.0497 -0.1481  0.0110
25163W        W41347  13.750  12.996   3.776 -0.1490 -0.1472 -0.0840
25164W        W41348  10.443   1.285  12.093 -0.0648 -0.0275 -0.1427
25165W        W41349   5.629  11.385  13.154 -0.3026  0.3193 -0.1955
25166W        W41350   4.012  14.427   1.484 -0.0650  0.2094 -0.0146
25167W        W41351   7.902   7.129   0.542 -0.0424  0.1405 -0.0272
25168W        W41352   3.467   1.567  14.731 -0.1689  0.1992 -0.1112
25169W        W41353   1.918  16.274   3.279 -0.2379 -0.3049 -0.2892
25170W        W41354  13.542   9.060   5.999  0.0862 -0.1328 -0.2305
25171W        W41355   7.043   1.517   1.895 -0.0469  0.1555  0.1648
25172W        W41356  13.122   3.935  12.866 -0.0676  0.0183  0.0278
25173W        W41357   3.738  15.435  12.209  0.0891  0.1452  0.0751
25174W        W41358  15.072   0.473   5.375 -0.4176 -0.0687 -0.1263
25175W        W41359  17.900  14.836  14.758 -0.0707 -0.0389 -0.0696
25176W        W41360   3.327  16.063   2.653  0.0151  0.1406 -0.0702
25177W        W41361   5.170  12.685  13.020  0.0443  0.4706  0.0722
25178W        W41362   8.528  14.001  11.927  0.2296 -0.1127  0.1261
25179W        W41363   9.830   2.081  15.412  0.0242  0.0967 -0.1074
25180W        W41364   6.724  13.167  14.614  0.0652 -0.0531 -0.2192
25181W        W41365  11.647   3.011  16.641 -0.0210 -0.0244 -0.0058
25182W        W41366   0.781  11.242  15.809 -0.0797 -0.2425 -0.0295
25183W        W41367   4.280   0.934   3.286  0.0935  0.2129 -0.3386
25184W        W41368  16.693  14.478   3.110  0.0864  0.2555 -0.2518
25185W        W41369  15.961  16.938   1.471 -0.2333  0.0777 -0.1995
25186W        W41370   9.192   8.696   4.461  0.2526 -0.1752 -0.0220
25187W        W41371  18.001   9.273  16.162 -0.2666 -0.0886 -0.0294
25188W        W41372   7.521   5.455  13.286 -0.1124  0.1335  0.0162
25189W        W41373   1.514  10.712   2.164  0.0005  0.2428 -0.0417
25190W        W41374   9.778   0.975   2.467 -0.0074  0.2013 -0.4835
25191W        W41375   1.579  16.623  15.246 -0.0384  0.1132  0.0191
25192W        W41376   7.452  10.673   5.455  0.1461  0.1972 -0.0012
25193W        W41377  15.022   6.359  11.782  0.0359  0.3782  0.0729
25194W        W41378   6.197   5.634  11.789  0.3466  0.0081  0.0631
25195W        W41379   0.039   1.996  16.013 -0.0900 -0.1476 -0.1591
25196W        W41380  13.901   4.141  15.174  0.0385 -0.4205 -0.0063
25197W        W41381   3.131   7.169   2.132  0.0147  0.1642  0.1129
25198W        W41382   9.809  14.328   2.019 -0.0820  0.0419 -0.0037
25199W        W41383  14.093  14.193   1.542  0.1925 -0.0775  0.3359
25200W        W41384  12.045  14.114   3.942 -0.0171 -0.1319 -0.0428
25201W        W41385  17.967  15.271  13.451  0.1688 -0.0818  0.0220
25202W        W41386  17.030   6.005  15.261  0.2299 -0.1352  0.1956
25203W        W41387  15.851  16.585  14.774 -0.0820 -0.2313 -0.0866
25204W        W41388   0.729   1.189  12.338  0.2724  0.1464  0.0078
25205W        W41389  17.554  17.201   4.320 -0.1051  0.0948 -0.0148
25206W        W41390   4.548  12.668   6.331  0.2612 -0.0043 -0.0785
25207W        W41391   2.732   9.139   2.924 -0.0695  0.0190 -0.1462
25208W        W41392  15.996  12.461   1.284 -0.2932  0.3429 -0.1757
25209W        W41393   7.607   2.555  13.166 -0.3491  0.0773 -0.2172
25210W        W41394  13.408   7.178   1.527 -0.2283 -0.1318  0.0445
25211W        W41395   6.914   4.549  13.021 -0.1643 -0.1275  0.1367
25212W        W41396   9.689   2.366   3.481 -0.0417 -0.0609  0.0095
25213W        W41397  13.976  12.632  16.494 -0.2027  0.0666  0.0191
25214W        W41398  15.528   2.472   0.795 -0.0594  0.1488 -0.0261
25215W        W41399  17.128   0.548   1.043  0.0241  0.4499  0.2531
25216W        W41400   3.250  10.365  16.075  0.0080 -0.2924 -0.0565
25217W        W41401   1.366   1.723  12.375 -0.0546 -0.3002  0.2038
25218W        W41402  13.076  10.582   1.559  0.0139 -0.3441 -0.0837
25219W        W41403  10.542  15.013   3.490  0.0033  0.2645 -0.1182
25220W        W41404  15.060   6.063   5.632 -0.4564  0.3736  0.1290
25221W        W41405   2.662   9.921   3.989  0.2575  0.3443  0.0810
25222W        W41406  15.791  16.230   3.564  0.0557 -0.1427  0.0804
25223W        W41407  17.922  10.149   0.725  0.0709  0.0712  0.4910
25224W        W41408  15.029   2.004   4.121  0.3903 -0.2126 -0.0724
25225W        W41409   9.018   8.552  14.966  0.3742 -0.2500 -0.0384
25226W        W41410  15.788   7.703  12.194  0.0434  0.3051 -0.0599
25227W        W41411   5.175  10.419   4.563  0.0780 -0.0707  0.2565
25228W        W41412   8.968  10.803   5.776  0.1789  0.0375  0.0541
25229W        W41413   7.058  10.030   2.152  0.1370  0.1004  0.1426
25230W        W41414   6.896   2.885   1.163 -0.0112  0.1638  0.1351
25231W        W41415   0.365  14.312  13.882  0.0302 -0.1879 -0.1777
25232W        W41416   9.564  10.354  14.707 -0.1344  0.5189  0.2437
25233W        W41417   7.501   6.906   1.321 -0.2246 -0.1075 -0.1779
25234W        W41418  11.818   3.345  13.797 -0.2792 -0.0399  0.0984
25235W        W41419   3.307  15.198   2.659  0.1095  0.0108 -0.1314
25236W        W41420   2.338   9.227  12.424 -0.2937 -0.1087 -0.1025
25237W        W41421  14.454  10.251  16.463 -0.1009  0.1710  0.0212
25238W        W41422   6.821  12.990   2.445  0.1140 -0.0845 -0.1808
25239W        W41423  10.395   6.539  15.840 -0.0203 -0.0417  0.0252
25240W        W41424   6.066   8.507  14.669 -0.1812 -0.0992 -0.0427
25241W        W41425  12.231   1.292  11.977  0.0269  0.0247  0.0308
25242W        W41426   5.243   0.564   3.108 -0.1144  0.1423 -0.1245
25243W        W41427  11.774   0.487  15.889  0.0614  0.0840  0.1324
25244W        W41428   3.463  11.953   3.482 -0.1549  0.1566  0.2024
25245W        W41429  15.013   7.895  16.395  0.0848  0.0077 -0.1300
25246W        W41430   3.045   5.664   1.280 -0.0185 -0.2303  0.1567
25247W        W41431  17.338   3.273  10.896  0.2531  0.0741 -0.2174
25248W        W41432   8.043   0.676  14.688  0.1189 -0.1606 -0.1142
25249W        W41433   5.300  13.032   3.373  0.1613  0.0571  0.0178
25250W        W41434  13.500   4.935   1.074 -0.2170  0.3235 -0.0238
25251W        W41435  13.883  10.027  11.696 -0.1020  0.3083  0.3219
25252W        W41436   3.818   5.003   3.323 -0.4017 -0.1879  0.0728
25253W        W41437  12.072  12.776  16.397 -0.1454  0.1920 -0.1132
25254W        W41438   6.684  10.379  13.252 -0.2052  0.0756  0.0724
25255W        W41439   3.853   1.241  14.028  0.2071 -0.0171 -0.0764
25256W        W41440  11.867  14.901  14.370 -0.0126  0.0573  0.0150
25257W        W41441  17.545   2.799   2.662 -0.0595 -0.0391 -0.2068
25258W        W41442   1.070   0.373   4.136  0.0082 -0.1393  0.1720
25259W        W41443   0.294  17.406   2.394 -0.0768 -0.3442 -0.1181
25260W        W41444   3.004  13.329   1.731  0.2225 -0.0382  0.1714
25261W        W41445   0.384   7.274   5.129 -0.1087  0.3639 -0.1964
25262W        W41446   7.120   5.084   5.757 -0.3823 -0.1587 -0.2291
25263W        W41447   6.614   6.347  14.567  0.3142 -0.2892 -0.1232
25264W        W41448  12.867  14.897   4.717 -0.1106 -0.3615 -0.3761
25265W        W41449   1.910   1.401  16.065 -0.0420  0.1715  0.1491
25266W        W41450   5.759   1.064   5.468 -0.2648  0.0998  0.0775
25267W        W41451  15.979   5.147  11.734 -0.2689 -0.4036  0.0176
25268W        W41452  14.995   8.839   3.234  0.1954  0.3804 -0.0859
25269W        W41453  12.839   1.791  15.550  0.0213  0.0391 -0.0789
25270W        W41454   1.589   2.333  14.145 -0.3635  0.2201  0.0523
25271W        W41455  16.956   5.463   1.445  0.2260  0.2293 -0.3462
25272W        W41456  10.437  16.957  16.432 -0.0524 -0.0631  0.2674
25273W        W41457   4.753   4.167   1.860 -0.0397 -0.0879  0.0175
25274W        W41458   5.022  14.591  15.354 -0.1083 -0.0223 -0.0672
25275W        W41459   5.534  14.514  10.939  0.0883 -0.3782  0.0792
25276W        W41460   6.889   0.272   1.393  0.1559 -0.1777  0.2189
25277W        W41461  15.164  13.350   4.267 -0.5168 -0.4277 -0.0733
25278W        W41462  17.913  10.959  15.750  0.0517 -0.0644 -0.1615
25279W        W41463   8.141   6.500  12.154 -0.0192 -0.1087  0.0247
25280W        W41464   3.726   0.241   1.804 -0.1226 -0.5747 -0.0241
25281W        W41465   4.440   0.217   5.344 -0.0853 -0.1328 -0.2184
25282W        W41466   0.683   0.098   4.306  0.0941  0.2314 -0.0562
25283W        W41467  16.296   0.832   0.707 -0.0830  0.0765  0.1216
25284W        W41468   8.478   1.456   4.273  0.3200  0.0027  0.2508
25285W        W41469   2.101  13.566  12.310 -0.1932  0.1777 -0.0775
25286W        W41470  10.398  12.358  12.673 -0.1420 -0.2253  0.0618
25287W        W41471   0.546  12.885   3.863 -0.0154  0.1207 -0.0504
25288W        W41472  15.658   1.767   1.359 -0.2267 -0.0426  0.0593
25289W        W41473   8.167  15.471   4.521 -0.0349  0.3909 -0.0087
25290W        W41474   0.045   5.449   1.398 -0.1325  0.1584  0.2187
25291W        W41475  14.759  14.383   2.199  0.0311  0.1844 -0.3573
25292W        W41476  10.778   5.693  13.195 -0.0742 -0.1583  0.2446
25293W        W41477   2.791   3.262  11.281 -0.0162 -0.0954 -0.2400
25294W        W41478  13.085   0.135  12.227  0.2457  0.3165  0.2017
25295W        W41479  11.939  17.045   2.964  0.0236 -0.1186  0.0312
25296W        W41480   9.157   9.690   3.011 -0.0617  0.2918 -0.1191
25297W        W41481  10.452   6.943   6.007 -0.2876 -0.0939 -0.0158
25298W        W41482   5.682  15.930  14.386  0.0287  0.3573 -0.0395
25299W        W41483  14.424   1.862  11.617  0.0566  0.1935  0.1254
25300W        W41484  13.423   3.709  14.896 -0.1920  0.1553  0.3472
25301W        W41485  17.229   3.210  16.283  0.1225  0.0637  0.0298
25302W        W41486   2.206   6.410   4.645  0.0891  0.0188  0.1473
25303W        W41487   9.265   6.429   3.277  0.2163  0.0803 -0.0183
25304W        W41488   3.571  14.470   4.059  0.2623  0.0068  0.2418
25305W        W41489  15.077   6.506   0.800  0.2639 -0.4410  0.0545
25306W        W41490   7.431   8.792   5.396  0.2055 -0.2963 -0.1956
25307W        W41491   4.939   5.622  13.019  0.0309  0.5454 -0.2030
25308W        W41492  10.343  15.897  13.999 -0.0636 -0.0306 -0.2512
25309W        W41493   1.365  17.571   1.635 -0.0367 -0.0060  0.2878
25310W        W41494   1.515   4.747   3.273  0.1674 -0.1251 -0.0419
25311W        W41495  16.697  15.862   1.485 -0.0410  0.0607  0.3007
25312W        W41496  10.573   1.314   4.642  0.1792 -0.2596  0.3234
25313W        W41497   8.018  11.703   6.192 -0.2089  0.2844  0.2609
25314W        W41498   6.239  15.957  13.701  0.1316  0.2249  0.0405
25315W        W41499   4.192  12.679   1.757  0.0374 -0.2458 -0.1251
25316W        W41500   6.276   7.261   2.390 -0.0228 -0.0364 -0.1935
25317W        W41501   5.525   7.820   5.821 -0.1556 -0.2530  0.1091
25318W        W41502  10.907  14.233  15.321  0.4139  0.0684  0.0755
25319W        W41503   1.174  16.490  10.850 -0.0722  0.1459 -0.0020
25320W        W41504  10.005   3.892   3.211  0.1769 -0.2777 -0.1185
25321W        W41505  12.920  11.332   2.400  0.0503 -0.0396  0.0833
25322W        W41506  15.567  16.063   4.054  0.0586 -0.1245 -0.1168
25323W        W41507  11.039   6.071   5.983  0.1081  0.3282 -0.2690
25324W        W41508  10.929   3.413   5.701  0.0884  0.0457  0.0128
25325W        W41509   3.812   2.931  12.666 -0.1404  0.1148  0.3694
25326W        W41510   6.613   8.152  12.831  0.2846  0.2823 -0.0609
25327W        W41511   4.995  17.629  12.857 -0.1570  0.0724  0.1062
25328W        W41512  15.121  12.486  12.752 -0.0427  0.0891 -0.1611
25329W        W41513  12.596   8.559   3.968  0.1407  0.1328  0.1089
25330W        W41514   8.271   1.436  14.653  0.2409  0.2040 -0.2836
25331W        W41515   0.432  13.933  15.433  0.1037  0.1433 -0.1137
25332W        W41516  11.562  10.181  16.273  0.0480 -0.2988 -0.1329
25333W        W41517  14.366  15.349   3.297  0.2635 -0.1345  0.1946
25334W        W41518   8.708  12.120  12.228 -0.1329  0.1937 -0.1876
25335W        W41519  12.539   4.331   1.115  0.1072 -0.0547 -0.0959
25336W        W41520  10.888   6.633   0.353  0.1817 -0.0029  0.0734
25337W        W41521  17.536   9.178  16.027 -0.3238  0.2858  0.3397
25338W        W41522   7.777  11.140   0.586 -0.1538 -0.0451  0.1982
25339W        W41523  16.453   9.352  12.955 -0.2640 -0.1017 -0.1394
25340W        W41524  14.167   7.516   3.368  0.2782  0.1346 -0.1975
25341W        W41525  14.036  12.084  12.832 -0.0710 -0.1222  0.0715
25342W        W41526   3.933   5.583  14.625 -0.0759 -0.1715  0.0629
25343W        W41527  13.089   8.519   4.424  0.0799  0.0522 -0.1111
25344W        W41528  10.150  13.098  12.484 -0.0528 -0.0881 -0.0141
25345W        W41529   4.127   0.760  15.371 -0.2839  0.0962 -0.2421
25346W        W41530   9.342  15.408   2.995 -0.1199  0.1411 -0.1038
25347W        W41531   9.592  15.032   5.669 -0.0887 -0.1229 -0.3430
25348W        W41532  10.155  11.504   5.664  0.0264  0.0275  0.2730
25349W        W41533   2.621   3.217  16.126  0.0592  0.0068  0.0872
25350W        W41534   7.984   8.691   1.597 -0.0802  0.0724 -0.2589
25351W        W41535  10.005  13.150   1.938  0.0204  0.1784 -0.1487
25352W        W41536  10.259  14.968  12.313  0.1152 -0.2396  0.1623
25353W        W41537   4.201   9.523   4.095  0.1906 -0.3898 -0.3057
25354W        W41538   5.990  15.738   3.015 -0.1996  0.1454  0.1260
25355W        W41539   6.791   7.904   1.666  0.2071  0.2464 -0.0038
25356W        W41540   2.587  14.665   1.393 -0.3063  0.1402  0.0262
25357W        W41541  13.998  15.328  16.408 -0.1867  0.0514  0.1997
25358W        W41542  13.780   1.793   4.317  0.0397  0.0097  0.0311
25359W        W41543   3.645   1.502   5.219 -0.1218 -0.1123  0.0759
25360W        W41544  10.990   3.628  13.492  0.3189 -0.1853  0.2075
25361W        W41545   1.560  11.484  15.740 -0.3218  0.0329  0.3627
25362W        W41546  15.658  17.917  14.345  0.1903  0.3219  0.2730
25363W        W41547   5.600   6.696  12.303  0.0475 -0.0827  0.0523
25364W        W41548   9.240   6.186  12.754 -0.1254 -0.1588 -0.3464
25365W        W41549   1.159   4.487  15.220  0.2052  0.3153 -0.1689
25366W        W41550  13.801   3.606  10.989  0.2628  0.0510 -0.1814
25367W        W41551  10.422   1.801   5.435 -0.2000  0.1184  0.1589
25368W        W41552   0.176  11.957  12.722  0.1035  0.3667  0.1273
25369W        W41553   5.363   0.628   1.971  0.0264 -0.2619 -0.0190
25370W        W41554  12.163   3.826  15.182  0.0147 -0.3477 -0.0048
25371W        W41555  12.335   4.300  11.927  0.1323 -0.0606 -0.1009
25372W        W41556   8.226   4.107  15.909 -0.2273  0.3054  0.0463
25373W        W41557  14.511  14.407  13.471 -0.0407 -0.0197  0.0605
25374W        W41558   3.298  17.889   3.586 -0.2665  0.0878 -0.3558
25375W        W41559  10.460   4.273  16.531  0.1573  0.0740  0.0834
25376W        W41560   9.984  16.048  12.674 -0.1089 -0.0374 -0.2725
25377W        W41561  15.504   7.958   2.237 -0.0840 -0.1224 -0.2247
25378W        W41562   2.641   6.962  13.163  0.1224  0.1069  0.2688
25379W        W41563   5.109   7.464  12.048 -0.1806 -0.1833  0.2138
25380W        W41564   9.635  11.755   2.893 -0.1096  0.2131 -0.2603
25381W        W41565  17.136  12.119   4.169 -0.1344 -0.1329  0.1401
25382W        W41566  15.970  16.401  14.207  0.4034  0.0753 -0.0641
25383W        W41567   1.910  17.432  11.685  0.0760 -0.0500 -0.0012
25384W        W41568   2.294  10.349   1.646 -0.8290 -0.0120 -0.1104
25385W        W41569   8.223  11.677  15.213  0.3261 -0.3104 -0.0519
25386W        W41570  14.037   1.978   1.853 -0.0449  0.1725  0.2438
25387W        W41571   7.173  13.386  15.175 -0.0877  0.1589 -0.2705
25388W        W41572  14.903   9.923   1.056 -0.0714  0.0851  0.2035
25389W        W41573   9.935   6.696   2.063 -0.1805  0.2031 -0.4141
25390W        W41574  11.041  17.904   4.912 -0.0633  0.0395  0.1764
25391W        W41575   4.397   8.425   2.068  0.1320  0.0943 -0.2925
25392W        W41576   1.548   4.072   5.522 -0.0545 -0.2318  0.1586
25393W        W41577   6.107  16.651   1.519 -0.1978 -0.0217  0.0826
25394W        W41578   5.457  11.237   3.488  0.0721  0.0033  0.1237
25395W        W41579  15.760   5.005  13.491  0.0958  0.2571 -0.1008
25396W        W41580  17.188   5.340  12.907 -0.2907 -0.1517 -0.0903
25397W        W41581   9.190   7.118   2.801  0.0876 -0.1979  0.0098
25398W        W41582  12.815   8.371  14.634  0.0610 -0.2474  0.0256
25399W        W41583   3.605  17.212   3.309  0.1204  0.0334 -0.0933
25400W        W41584  10.871   3.171   4.211 -0.0413 -0.2412  0.1280
25401W        W41585  11.220  13.805   2.764  0.0490  0.0084  0.0668
25402W        W41586  10.713   0.761  12.869  0.0026 -0.2202 -0.0350
25403W        W41587   2.114   8.220  12.426 -0.0851  0.0150 -0.0578
25404W        W41588  15.152  16.195   2.283  0.2692 -0.0429 -0.1161
25405W        W41589   4.735  16.035  15.353  0.0274 -0.1114 -0.2749
25406W        W41590  17.648  11.852  16.175  0.1906  0.2564  0.1390
25407W        W41591  15.256   0.427   3.615  0.1271 -0.0695 -0.0639
25408W        W41592   6.833   7.873  14.643 -0.2469 -0.2061  0.1606
25409W        W41593  15.883   9.220   2.180  0.0040 -0.0934  0.2367
25410W        W41594  11.462  10.642   1.112  0.0169 -0.2383  0.0858
25411W        W41595   5.229  12.316  16.017  0.0449 -0.1221 -0.1644
25412W        W41596   4.749  12.948   0.209  0.1590  0.1934 -0.5023
25413W        W41597   9.769  16.705  13.247 -0.0212  0.1141 -0.0178
25414W        W41598  15.495   4.853   0.364  0.2150 -0.0607 -0.1355
25415W        W41599   0.704  12.529  13.066  0.0614  0.3426 -0.0287
25416W        W41600   4.040  15.178  13.024 -0.1935 -0.0797  0.0394
25417W        W41601  11.802  16.299   4.587  0.1100 -0.1911 -0.0080
25418W        W41602  17.445  11.242  15.603 -0.4033  0.0731 -0.0894
25419W        W41603   2.468   6.210  12.814  0.4029  0.3024 -0.1376
25420W        W41604   7.407  13.039  12.595 -0.2886  0.0830 -0.1628
25421W        W41605  15.609   4.256  15.614 -0.0459 -0.3052 -0.3062
25422W        W41606   2.662  11.788  14.086 -0.1672 -0.2283  0.0413
25423W        W41607   8.662  13.088   5.223  0.0399 -0.2586  0.0799
25424W        W41608  12.891   2.760  14.500  0.0409 -0.2413 -0.3952
25425W        W41609  11.466  15.624   4.062 -0.0432  0.0750 -0.1832
25426W        W41610   8.476   4.448   4.408  0.0487 -0.2510 -0.0965
25427W        W41611  13.589   0.795   2.322  0.0711 -0.1148  0.2289
25428W        W41612  13.858  13.359   0.501 -0.0481 -0.0741  0.0192
25429W        W41613   4.697  13.829   0.468  0.2648 -0.0878 -0.0151
25430W        W41614   1.360   8.135  11.882  0.1751 -0.1451  0.0990
25431W        W41615  13.792  12.113  11.740  0.2507 -0.1511  0.2717
25432W        W41616  17.107  15.803   1.758 -0.0745 -0.0517 -0.0952
25433W        W41617   2.808   4.068  13.589 -0.0303 -0.2748  0.2507
25434W        W41618  11.748  17.003  15.305 -0.2878 -0.1711 -0.1900
25435W        W41619  12.318   2.961   1.262  0.3442 -0.1392 -0.1233
25436W        W41620   6.361   2.569  16.586 -0.0958 -0.3141 -0.3348
25437W        W41621   5.810   6.843  14.286  0.0988 -0.5462 -0.3879
25438W        W41622   1.538   9.556  12.247  0.0345 -0.0847  0.0157
25439W        W41623  11.987   3.070   0.857 -0.0745 -0.0033  0.3328
25440W        W41624  16.471  16.231   2.827 -0.1520  0.1995 -0.2073
25441W        W41625   3.874   9.599  14.315  0.0952 -0.1498  0.4220
25442W        W41626   0.922   2.225  10.826  0.1811  0.0934 -0.0757
25443W        W41627  10.769  15.748  16.265 -0.1473  0.0775  0.3981
25444W        W41628  17.229  13.874  12.265 -0.0897 -0.2677 -0.1923
25445W        W41629   9.709   2.261   5.249 -0.0226 -0.1345  0.0178
25446W        W41630   7.408  14.803   4.215  0.1442  0.2370 -0.1965
25447W        W41631   5.153  13.880   3.951 -0.1942 -0.1058  0.1534
25448W        W41632  17.795  16.848   3.556  0.0773  0.0207 -0.2969
25449W        W41633   5.328   6.840   5.469 -0.1215 -0.1069 -0.1729
25450W        W41634  15.276  17.267  15.148  0.3974 -0.0037 -0.1737
25451W        W41635   6.403   6.749   2.169 -0.0096 -0.1351  0.0215
25452W        W41636  16.281   8.560   1.527  0.0692  0.1580  0.0550
25453W        W41637  12.449  17.615  13.727 -0.1996 -0.0688 -0.1328
25454W        W41638  10.508  13.189   5.308 -0.1195 -0.1375  0.1032
25455W        W41639   1.467  11.572   1.227  0.2269  0.1338  0.0800
25456W        W41640  16.981   6.409  13.976  0.2433  0.2212 -0.1318
25457W        W41641   6.912   5.356   4.423 -0.1349 -0.3148  0.2719
25458W        W41642  14.200  16.204   1.574  0.1892 -0.1593 -0.0981
25459W        W41643   3.698   0.744   1.290  0.1751 -0.0217  0.1573
25460W        W41644  11.657  12.163   1.414  0.0701  0.1367  0.0344
25461W        W41645  14.145   3.680  16.324  0.1351 -0.1521  0.2027
25462W        W41646   2.879   3.784   1.079 -0.0633 -0.2432 -0.1933
25463W        W41647   0.984  15.266   3.030 -0.3399 -0.2282  0.0333
25464W        W41648   5.618  14.634   4.571 -0.1043 -0.1387 -0.1616
25465W        W41649   4.767   5.070  14.413  0.4322 -0.0242  0.2496
25466W        W41650   0.367  17.796  12.885  0.1193 -0.0181 -0.1961
25467W        W41651  13.054   6.798   5.149  0.1373 -0.0518  0.1864
25468W        W41652  15.054   2.536   2.504 -0.1488  0.1459 -0.3336
25469W        W41653   9.018   9.092   5.932 -0.0325 -0.4532 -0.2087
25470W        W41654   9.964   0.422  16.063 -0.0602 -0.1363 -0.1736
25471W        W41655  15.928  15.024  12.468 -0.0569  0.1773 -0.0721
25472W        W41656   9.401  10.060   3.590  0.0514 -0.2023  0.1233
25473W        W41657  11.018  11.334   4.492 -0.1753  0.0442 -0.0249
25474W        W41658  15.737   3.746   1.198  0.1376  0.0445 -0.0904
25475W        W41659  10.737   2.241   5.238  0.3190  0.0218 -0.1185
25476W        W41660   1.786   7.789  14.982 -0.0883 -0.1064 -0.1608
25477W        W41661   7.108  12.136  15.487 -0.1259  0.2203 -0.0181
25478W        W41662   5.342   6.266   0.805 -0.1232 -0.2686  0.0919
25479W        W41663   4.853   0.130   2.431  0.0417 -0.1898  0.2138
25480W        W41664   3.268  15.779   1.941 -0.0012  0.0752  0.0317
25481W        W41665   6.199  15.688  12.449 -0.1471  0.0337 -0.2243
25482W        W41666   4.967   5.105  16.359  0.1659 -0.0244 -0.0509
25483W        W41667   9.580  10.393  12.852 -0.1131  0.1525 -0.2175
25484W        W41668   0.232  13.179  14.604  0.1194  0.0451  0.0939
25485W        W41669   8.017  17.784   1.462  0.0502  0.4380  0.0521
25486W        W41670   2.486  15.566   2.581  0.0150  0.1381 -0.0306
25487W        W41671   1.175   7.532  16.570 -0.1540 -0.0993 -0.1667
25488W        W41672  10.801  10.641  13.045  0.2803 -0.0804  0.0945
25489W        W41673   2.543   7.801  12.628 -0.1722  0.2590 -0.2469
25490W        W41674   3.986   8.290   4.108  0.5176 -0.0635 -0.2408
25491W        W41675   2.838   0.974   2.813  0.3589  0.0963 -0.0033
25492W        W41676   5.091  14.000  15.460  0.0931  0.2029  0.1330
25493W        W41677   9.202   1.577   3.616  0.1120  0.3248 -0.2752
25494W        W41678   4.869   3.299   2.102 -0.2191 -0.1213  0.0581
25495W        W41679  16.318  15.728  15.348  0.2096 -0.0580  0.2939
25496W        W41680   1.539  15.268   6.117 -0.2222 -0.0237 -0.0784
25497W        W41681   1.332   7.672  12.236  0.2781  0.3780  0.3697
25498W        W41682   6.749  15.309   3.481 -0.2085  0.2192  0.1361
25499W        W41683  14.116   0.410  10.835 -0.2461 -0.2695  0.0462
25500W        W41684   4.202   3.090  12.949  0.0566 -0.1107 -0.1900
25501W        W41685  16.661  16.190  10.443 -0.3813  0.3621  0.0160
25502W        W41686   3.541  15.036   0.381  0.0811  0.0181  0.0975
25503W        W41687  17.425   0.970  13.014 -0.3240  0.0091 -0.1432
25504W        W41688   9.175  15.036   0.096 -0.0638 -0.0518  0.0366
25505W        W41689  10.857  17.005  14.326  0.1081 -0.0253  0.1167
25506W        W41690   9.015  17.074   6.029  0.0428  0.0522 -0.1382
25507W        W41691   1.214  17.115   2.348  0.0002  0.1280 -0.1165
25508W        W41692   3.332   3.983   5.574  0.0502 -0.3351 -0.0559
25509W        W41693   3.248   7.816   0.879 -0.1873 -0.0983  0.2601
25510W        W41694   2.315  10.024   5.363  0.0185 -0.0085  0.1186
25511W        W41695   4.071   8.671  13.259 -0.2176  0.3248 -0.0224
25512W        W41696   5.528  13.429  13.937 -0.2054 -0.0908  0.3823
25513W        W41697  17.095  13.393  11.418  0.0011  0.0080 -0.1191
25514W        W41698  17.286   2.941  13.458  0.1602 -0.0693  0.2787
25515W        W41699  10.669  14.050   1.597  0.1309 -0.0940 -0.0304
25516W        W41700  11.099   2.405  14.564 -0.0414 -0.1292  0.1913
25517W        W41701   1.955   3.990   0.671  0.2543 -0.0379 -0.1870
25518W        W41702  17.581  11.616   0.757 -0.2013 -0.1321  0.0798
25519W        W41703   6.141  17.552   4.201 -0.1220 -0.1440  0.1261
25520W        W41704  10.175  14.042   2.609  0.1824 -0.1079 -0.0336
25521W        W41705   6.409  12.342  16.388 -0.0957 -0.0700  0.0907
25522W        W41706   2.257   0.307   0.264 -0.1935 -0.2208  0.0175
25523W        W41707  15.109   2.918   4.596 -0.4310 -0.1151  0.1678
25524W        W41708   9.041  14.495  13.725 -0.1918 -0.0352 -0.2353
25525W        W41709   0.431  12.772   3.291  0.2515  0.0296  0.2148
25526W        W41710  14.346   6.485   4.503  0.3232 -0.3060  0.1456
25527W        W41711   8.891  17.511   5.594  0.1635 -0.2480  0.2182
25528W        W41712   7.480   2.044  13.368  0.0919 -0.2291 -0.1945
25529W        W41713  13.502  10.755  14.013 -0.4112  0.0888  0.0485
25530W        W41714   7.972  15.505  16.615 -0.0607  0.1930  0.0555
25531W        W41715  15.620   0.201  11.853 -0.0340 -0.1239 -0.1212
25532W        W41716   5.702  10.253   5.264 -0.0070 -0.3575  0.4387
25533W        W41717   3.925  17.487  11.397 -0.0048  0.2169  0.1219
25534W        W41718   7.406   4.070  12.921 -0.0373  0.1512  0.0575
25535W        W41719  15.893   9.497   3.004  0.0687  0.3056  0.0547
25536W        W41720   4.307   3.904  12.517  0.3247  0.0031 -0.0279
25537W        W41721   5.898   3.220   5.509  0.2395  0.0573 -0.0093
25538W        W41722   2.976  11.202  15.843 -0.1387  0.3492  0.1088
25539W        W41723   4.815   6.557  14.897  0.0003 -0.1009  0.0842
25540W        W41724   0.295   1.884  13.245 -0.0391 -0.1094  0.0264
25541W        W41725  15.106  13.941  13.879 -0.1322 -0.0161  0.2474
25542W        W41726   3.780   6.423  15.156 -0.1328  0.2132  0.0001
25543W        W41727  12.168   1.107   2.577  0.0144  0.0157 -0.0035
25544W        W41728   2.409   9.889  13.546  0.0582 -0.0314 -0.0145
25545W        W41729   5.779   8.958   4.223 -0.2965 -0.2869 -0.4651
25546W        W41730   8.638   0.678  12.379  0.1516  0.1941 -0.0215
25547W        W41731  16.977   5.771  12.700 -0.0920 -0.0867 -0.2496
25548W        W41732  13.091  13.668   1.147  0.0989 -0.0122  0.2552
25549W        W41733  12.806   6.813  16.471  0.1504 -0.0401 -0.2228
25550W        W41734  16.575  11.218  15.503 -0.0639  0.1156 -0.0056
25551W        W41735  16.931  11.761   0.046 -0.0260 -0.4093  0.3527
25552W        W41736  17.119  12.254   3.132 -0.1294  0.0771  0.0786
25553W        W41737   7.314   5.672   5.715 -0.0616 -0.3101 -0.0104
25554W        W41738   1.581  11.257  11.494 -0.1205  0.1873  0.2805
25555W        W41739   8.272   6.900  11.933 -0.2201 -0.0347 -0.0848
25556W        W41740  11.089   9.676   0.022 -0.0473 -0.1463  0.1899
25557W        W41741  15.443  12.148   3.289  0.2587 -0.2133 -0.0103
25558W        W41742   1.249  10.905  11.387  0.0210  0.0871 -0.4581
25559W        W41743  11.116  12.006  13.159 -0.3888 -0.4409 -0.0587
25560W        W41744   0.954   8.463  15.572 -0.3521 -0.1243 -0.1585
25561W        W41745   0.702  10.136   3.002 -0.0293  0.0535  0.2792
25562W        W41746   6.886   9.629   1.345  0.0646  0.0479 -0.2250
25563W        W41747  10.170   9.579   3.931 -0.2806  0.1894 -0.0079
25564W        W41748   2.093   6.337   2.475  0.0237 -0.1861 -0.1437
25565W        W41749  17.092  17.289   4.746  0.1788 -0.0757  0.1934
25566W        W41750  16.832   0.748   5.232 -0.0232 -0.0179  0.0795
25567W        W41751   8.760   1.282  14.258 -0.0142  0.3687  0.1342
25568W        W41752   6.216  13.176  14.841  0.2127  0.1526  0.1819
25569W        W41753   5.343  11.251   0.036  0.1328 -0.1140 -0.3937
25570W        W41754   7.634  11.475   4.866 -0.1703 -0.1747  0.4798
25571W        W41755  12.506  17.376  14.695 -0.1575 -0.0091 -0.4368
25572W        W41756   2.593  11.600  11.940  0.2040 -0.2488 -0.0786
25573W        W41757   2.660   2.538  15.308 -0.1714  0.0466  0.2020
25574W        W41758   8.431  10.284   4.152  0.1510 -0.1750  0.0994
25575W        W41759   1.189  16.703   1.853  0.0389  0.1101  0.0315
25576W        W41760  16.140   9.239   0.682 -0.2291 -0.3538 -0.0127
25577W        W41761  10.255  10.534  13.054 -0.0226 -0.0492 -0.2832
25578W        W41762  15.030   2.324   5.211 -0.1717 -0.2286 -0.0854
25579W        W41763   7.620   9.555  11.990  0.2320 -0.0350 -0.1597
25580W        W41764  17.244   6.386  15.019  0.0550  0.0051  0.2098
25581W        W41765   8.642  13.276  12.575  0.1993  0.0042 -0.1815
25582W        W41766  15.551   3.154   3.102  0.2256 -0.0652 -0.1463
25583W        W41767  17.240   9.842  13.171  0.3707  0.0756  0.0471
25584W        W41768  16.475   4.155   4.540  0.0903  0.0992 -0.0759
25585W        W41769   6.355   8.784  14.300 -0.0597  0.0652  0.3702
25586W        W41770   5.613   1.585   3.162  0.3255  0.0332  0.0469
25587W        W41771   8.097  13.090  16.505 -0.0186 -0.1460  0.0770
25588W        W41772  16.572  15.445  14.635 -0.3163 -0.2006 -0.1758
25589W        W41773   6.603   5.430   2.917 -0.0886  0.0578  0.0237
25590W        W41774  10.889  13.468  14.698 -0.0173  0.2557  0.1272
25591W        W41775   1.407  14.079  12.957  0.0356  0.0298  0.1062
25592W        W41776  11.350  13.876   3.565  0.2150  0.1740 -0.1129
25593W        W41777  16.630   2.494   5.597 -0.0128 -0.2870  0.3527
25594W        W41778   5.208   6.137  13.034  0.0182  0.3199  0.1211
25595W        W41779   2.171  16.472  13.471 -0.1098 -0.3592  0.0747
25596W        W41780  13.660   4.999   0.617  0.3315 -0.2522  0.1791
25597W        W41781   5.868  13.446   1.688 -0.0821  0.0546  0.1672
25598W        W41782   5.688  11.137  13.640 -0.0582 -0.0550  0.0714
25599W        W41783   2.873   9.403   2.040 -0.0172  0.0718  0.0703
25600W        W41784   5.931  14.077  13.700  0.0081 -0.0717 -0.1473
25601W        W41785   9.603  16.054  12.367 -0.2275  0.3617  0.2059
25602W        W41786  15.401  17.422   0.939  0.0294 -0.2272 -0.2539
25603W        W41787  17.189  13.662  16.163 -0.0696 -0.0125 -0.0923
25604W        W41788   7.102   5.175   3.039  0.0808 -0.0121  0.0945
25605W        W41789  16.201   2.088   3.205 -0.2490 -0.1442  0.0395
25606W        W41790  13.332  10.352   4.246 -0.1001  0.3706 -0.0814
25607W        W41791   3.822  11.546   4.987  0.0143  0.1112  0.0248
25608W        W41792   4.848   8.824   0.498 -0.1472 -0.1986 -0.2152
25609W        W41793  11.572  12.470  13.393  0.1791  0.0487  0.1594
25610W        W41794  17.432  15.173  14.836 -0.1357  0.1085  0.3214
25611W        W41795  12.573  12.963  16.659  0.0601  0.0428 -0.4921
25612W        W41796   8.089  10.689   0.711  0.2676 -0.1574 -0.4378
25613W        W41797  16.294   4.029   2.782 -0.0619 -0.1380  0.1104
25614W        W41798  12.598   6.612   0.972 -0.0635 -0.0575  0.3171
25615W        W41799  12.916   7.199   3.011  0.1873 -0.0411  0.0877
25616W        W41800   1.811  14.853   6.116  0.0520  0.1799 -0.2015
25617W        W41801  11.027  11.443   3.851  0.2338  0.4364  0.0266
25618W        W41802   0.911   6.398  14.108 -0.0727  0.0407  0.1040
25619W        W41803   3.841   8.848   4.334  0.0058  0.0679  0.1104
25620W        W41804   9.075   4.062  13.887 -0.0194 -0.2173 -0.0268
25621W        W41805   9.050  11.177  16.383  0.2916 -0.1906  0.1079
25622W        W41806   1.805   3.697  15.299  0.1623  0.1824 -0.2571
25623W        W41807   5.798   9.362   0.611  0.0328 -0.0292  0.0834
25624W        W41808   9.937   4.480  11.034 -0.4657  0.0951 -0.2507
25625W        W41809   7.608   9.924  15.592 -0.2706 -0.1643  0.0677
25626W        W41810  15.514  14.615   3.962  0.1798 -0.0510  0.2208
25627W        W41811   5.966   9.662  12.319 -0.1024 -0.0840 -0.0082
25628W        W41812  15.466  14.287   5.873  0.2026 -0.1926  0.1019
25629W        W41813   6.512   7.113   4.389  0.2393  0.1063 -0.2007
25630W        W41814   4.631   2.561  13.180  0.0859 -0.1403  0.0940
25631W        W41815   9.643  11.021   0.441 -0.0461 -0.1068 -0.1126
25632W        W41816   9.413  12.679   5.757  0.1298 -0.3008 -0.1728
25633W        W41817  12.788   2.749  15.862  0.1494  0.0394  0.0683
25634W        W41818   8.709   8.173  13.289 -0.1931  0.1826 -0.0588
25635W        W41819  17.397   6.789   2.034  0.0498  0.3535 -0.0511
25636W        W41820   4.975  17.215   4.390  0.0914 -0.0477  0.2071
25637W        W41821   7.757   2.824  14.984 -0.0912 -0.0313 -0.0838
25638W        W41822  11.235   5.890  13.939 -0.1009  0.1368 -0.0356
25639W        W41823  17.243   9.491  13.727 -0.0374  0.4243 -0.0079
25640W        W41824   7.492  10.426  15.728  0.1463  0.0917 -0.2765
25641W        W41825   6.498   8.244  16.490 -0.1856  0.0267  0.2267
25642W        W41826  12.937  13.268  11.837 -0.2662  0.2541  0.3850
25643W        W41827   1.896   2.754   3.127  0.1631  0.1230  0.2208
25644W        W41828   3.270  11.870  13.468 -0.0447  0.1590 -0.1426
25645W        W41829   9.262  16.754   2.776 -0.2774  0.1476 -0.1429
25646W        W41830  10.400  12.221   0.717 -0.0909 -0.3322 -0.0372
25647W        W41831   5.816   5.988   4.243 -0.3451 -0.0164  0.1413
25648W        W41832   9.731  14.069  11.741 -0.0119 -0.0204  0.2743
25649W        W41833  12.776   6.307  13.008 -0.0245 -0.2136 -0.2475
25650W        W41834  10.219  14.801   3.911 -0.2124  0.0966  0.0074
25651W        W41835  14.554  15.904   3.863  0.0583 -0.1351 -0.2468
25652W        W41836   1.785  14.450   1.413 -0.2395  0.1205  0.1231
25653W        W41837  11.594   4.592   5.263  0.0221 -0.2691 -0.0170
25654W        W41838   2.377   1.482   0.300  0.0421 -0.0640 -0.0636
25655W        W41839  12.011   2.018   1.146 -0.2076  0.2313 -0.1277
25656W        W41840   5.684   2.700  13.366  0.0836 -0.1206  0.1118
25657W        W41841  14.737   4.285  14.267  0.0712  0.0719  0.1798
25658W        W41842   5.887  10.525   1.734  0.0604 -0.1852  0.0255
25659W        W41843   2.701   8.482  12.030  0.0115  0.0310  0.0393
25660W        W41844   9.636   8.890   5.130  0.0830  0.1032  0.1064
25661W        W41845   1.886   3.026  13.059  0.3291  0.1784 -0.1238
25662W        W41846   2.618  15.542   1.661  0.1442  0.1272 -0.0705
25663W        W41847  11.846   2.259  15.187 -0.2579 -0.0285 -0.0555
25664W        W41848   8.348   2.389   2.385 -0.0895 -0.0888 -0.1735
25665W        W41849  16.198  12.900   0.819 -0.0373  0.0559  0.1181
25666W        W41850  13.199   5.316   3.933 -0.2117 -0.2886 -0.4139
25667W        W41851  11.749   1.204  12.728 -0.0100 -0.0468 -0.2150
25668W        W41852  16.013  13.947  16.604 -0.0354  0.1856 -0.1393
25669W        W41853   2.650  13.538  14.749 -0.0490  0.3316 -0.3564
25670W        W41854   5.347  16.011   1.192 -0.0310  0.1985 -0.2342
25671W        W41855   1.774  11.990   2.096 -0.0072 -0.1221  0.0825
25672W        W41856   0.473  12.381   3.599  0.3926 -0.2195 -0.0458
25673W        W41857   0.811   1.093  11.827 -0.2077 -0.1465  0.1309
25674W        W41858   3.463   3.094   2.498 -0.3474 -0.2508 -0.0213
25675W        W41859   4.010   8.314   3.368 -0.4517  0.1623 -0.1834
25676W        W41860  17.925  15.931   0.572  0.0092  0.1575  0.2099
25677W        W41861   7.406   9.617  14.189 -0.0469 -0.0159  0.1231
25678W        W41862   2.309   3.501   1.486 -0.0218  0.1568  0.2464
25679W        W41863  12.047   1.049   2.019  0.2706 -0.0493  0.0491
25680W        W41864   0.876   6.969  11.922  0.1610 -0.0447 -0.1319
25681W        W41865  13.677  16.791   2.251  0.1549 -0.1646 -0.1486
25682W        W41866  15.528  15.708   2.413 -0.2610 -0.1636  0.0033
25683W        W41867   9.738   3.724   4.144  0.1272  0.1580  0.0852
25684W        W41868  12.895   4.793   6.438 -0.4280 -0.0451 -0.0420
25685W        W41869   4.281  14.848   1.419 -0.4381  0.2188 -0.0001
25686W        W41870   5.861   4.575  15.237 -0.0834  0.3417 -0.2305
25687W        W41871   7.973  17.031   2.036  0.1410 -0.0111  0.4393
25688W        W41872   3.433  12.466   2.363 -0.2636 -0.2739  0.1495
25689W        W41873  16.085   6.895  13.435  0.4983 -0.4095 -0.4455
25690W        W41874  15.347  16.492  16.244  0.1596 -0.3126  0.2121
25691W        W41875  11.328   9.508  14.171 -0.0310 -0.1130 -0.0664
25692W        W41876  17.059   7.880  13.730 -0.0463  0.3191  0.0537
25693W        W41877  10.482  10.269  13.946  0.0781  0.1030 -0.1156
25694W        W41878   4.800  11.942  12.419  0.0999  0.0633 -0.0259
25695W        W41879  17.088   1.901  11.971  0.1077 -0.2705 -0.0580
25696W        W41880   8.855   5.521  15.890  0.0409  0.2064 -0.3595
25697W        W41881   6.238  10.762  14.700  0.0580 -0.2251  0.0611
25698W        W41882  16.688  17.906   5.293  0.1088  0.2287 -0.1961
25699W        W41883  11.500   4.663   3.820 -0.1478  0.0892  0.0479
25700W        W41884   3.836   5.098  14.813  0.1530 -0.2506  0.3860
25701W        W41885   7.008   5.715   0.104 -0.1192  0.0686  0.2097
25702W        W41886  16.955   3.103  14.934 -0.1690  0.0757 -0.2155
25703W        W41887   3.503  14.247   0.086  0.0961 -0.0961  0.1830
25704W        W41888  15.494   6.359  11.767  0.0933 -0.2466  0.1455
25705W        W41889   9.586  11.944  13.440 -0.0971  0.0058 -0.0107
25706W        W41890  12.854  17.853   1.556 -0.3306  0.2659 -0.0220
25707W        W41891   9.533  11.338   2.546  0.2649 -0.3980  0.3756
25708W        W41892  17.702   0.308  14.497  0.0200  0.1715 -0.4142
25709W        W41893  10.867  11.737   2.407  0.0682 -0.1819 -0.3388
25710W        W41894  11.786   8.583  10.673 -0.1353 -0.1141  0.0159
25711W        W41895   5.653  13.147   1.331 -0.1126  0.0765 -0.0611
25712W        W41896   2.778  15.841   2.046  0.1899 -0.3951  0.0513
25713W        W41897   1.844  12.018  13.874  0.2076  0.1534  0.1291
25714W        W41898  17.349  15.802  11.551 -0.1127  0.1849 -0.2478
25715W        W41899  15.554   9.294   2.631  0.1064  0.1149  0.0795
25716W        W41900  14.489   4.186   2.428 -0.4481 -0.0825  0.1613
25717W        W41901   8.035   3.255  10.748  0.1250 -0.0567 -0.1067
25718W        W41902   0.616  17.445  15.883 -0.0831 -0.1879  0.0989
25719W        W41903  16.685   2.241  13.158 -0.0108 -0.0480  0.1488
25720W        W41904  13.869  13.027   0.093 -0.3396  0.2864 -0.0035
25721W        W41905   5.859  15.162  13.008  0.2865  0.1426 -0.0785
25722W        W41906  15.032  17.918  11.759  0.0233  0.1687  0.0962
25723W        W41907   7.247   7.880  13.804  0.0603  0.1657 -0.1371
25724W        W41908  11.573  16.093  15.199 -0.0190  0.0408 -0.0942
25725W        W41909   6.685   9.271   1.620 -0.3085 -0.0023  0.2655
25726W        W41910   5.440   7.858   2.936  0.3387  0.3594  0.3780
25727W        W41911   9.204  17.092   3.204 -0.0549  0.0538 -0.0966
25728W        W41912   9.653   9.664   2.738 -0.1321 -0.0879 -0.1394
25729W        W41913   6.170   0.115   2.369  0.3055  0.0885  0.0758
25730W        W41914   9.481  15.461   1.210 -0.0650  0.2245 -0.1184
25731W        W41915  17.992   4.234   1.368  0.2536  0.1962  0.0422
25732W        W41916   7.496  12.858  15.014  0.0520  0.1968  0.1315
25733W        W41917   9.135   5.552   3.006 -0.0859 -0.0764 -0.0900
25734W        W41918   5.250   9.323   5.648 -0.2079  0.0924  0.0601
25735W        W41919  11.139  13.365   2.901  0.1656  0.0193 -0.2012
25736W        W41920  11.727  15.741  13.866  0.0458  0.0100 -0.0478
25737W        W41921   9.098   5.286  11.949 -0.2032  0.0986 -0.1201
25738W        W41922   3.209  11.252   0.153 -0.1891 -0.1689  0.1764
25739W        W41923   1.370   4.633   5.656 -0.3321  0.1975  0.1070
25740W        W41924   3.826  10.712  11.787 -0.0594 -0.0094 -0.1211
25741W        W41925  15.202  11.977   5.490 -0.1154  0.2985 -0.2112
25742W        W41926  11.073  15.083   3.357  0.0708  0.4408 -0.1385
25743W        W41927  14.103   9.908   3.613 -0.4455 -0.1983  0.5483
25744W        W41928   9.937  11.475  15.459  0.0987 -0.0977 -0.3426
25745W        W41929  13.253   3.442   1.837 -0.2625 -0.0959 -0.2071
25746W        W41930   2.513  14.553  15.544  0.0358 -0.4879  0.2942
25747W        W41931   4.520  15.560  15.346 -0.0483  0.1118  0.0738
25748W        W41932  11.851  16.028  11.650  0.3525 -0.0717 -0.0258
25749W        W41933  11.721   9.792   2.182  0.2912  0.1128  0.0099
25750W        W41934   2.207  16.695  14.909  0.3091 -0.4336  0.0143
25751W        W41935   5.427  12.395   4.130  0.3177  0.1469  0.1125
25752W        W41936  10.849   1.959   1.174  0.0393 -0.0417  0.3468
25753W        W41937   7.737   7.035   5.750  0.1456 -0.1094 -0.0060
25754W        W41938  14.680  13.332   2.250  0.2689 -0.1065  0.0321
25755W        W41939  14.276  17.925  16.477 -0.2647 -0.0174  0.5299
25756W        W41940   3.842   3.326   4.724 -0.2585  0.1001 -0.4758
25757W        W41941   3.942  17.072   4.332 -0.2369 -0.1287  0.1157
25758W        W41942   5.248  16.349   4.414  0.0835  0.1303 -0.1862
25759W        W41943   7.760   2.153   3.255  0.2091  0.1992 -0.0897
25760W        W41944   0.783  10.600   2.633 -0.0993  0.2055  0.1752
25761W        W41945   0.933   8.131  12.690 -0.0275 -0.1803  0.1812
25762W        W41946  16.511   4.548  13.837  0.1632  0.0300  0.0053
25763W        W41947  11.890  11.785   6.303  0.1119  0.0848 -0.2295
25764W        W41948  15.321   7.407   5.749 -0.0869  0.1208 -0.2288
25765W        W41949   6.636   1.004   2.596  0.0958  0.3092 -0.0630
25766W        W41950  12.788   8.763  16.601 -0.0227 -0.4536  0.1744
25767W        W41951  16.141  12.556  11.165  0.1559 -0.2260  0.2291
25768W        W41952   8.516   8.746  15.845  0.0802 -0.3779  0.4478
25769W        W41953  11.076   7.054  13.309  0.0414  0.0656 -0.3787
25770W        W41954  17.303   9.449  15.371  0.0776 -0.3247 -0.1785
25771W        W41955   9.245   5.082  12.509  0.3352  0.1253  0.1689
25772W        W41956  17.800  11.522   3.546 -0.0253  0.1215  0.0337
25773W        W41957   4.155   3.664   2.132 -0.0261  0.2625  0.1079
25774W        W41958   4.806   7.274   4.760 -0.2285 -0.0423  0.1299
25775W        W41959   0.924   2.677  12.820 -0.1288  0.1123 -0.0533
25776W        W41960   6.665   9.229  16.500 -0.0711  0.0885 -0.1546
25777W        W41961  11.073  10.288  15.553 -0.1055 -0.3380 -0.0131
25778W        W41962   6.011   3.230   4.076 -0.0272  0.0724  0.0123
25779W        W41963  12.903  14.473   4.440 -0.0071  0.0349 -0.0170
25780W        W41964  14.960  11.293  14.866 -0.0988  0.1523 -0.0298
25781W        W41965  17.792   6.782  16.037  0.1410 -0.1515 -0.2494
25782W        W41966   6.548   7.689   5.836 -0.2019 -0.1359  0.1520
25783W        W41967   6.920  12.950  15.059 -0.0111  0.1020 -0.3017
25784W        W41968  13.404  12.087   2.820 -0.2515  0.1528 -0.1851
25785W        W41969   6.137   6.009  16.617 -0.1899  0.1321  0.2700
25786W        W41970  16.284   1.294  14.457 -0.1029  0.1724  0.2631
25787W        W41971  11.992   6.127  14.066  0.3949 -0.2628 -0.0437
25788W        W41972   2.786   9.476  13.132  0.1366 -0.3692 -0.0408
25789W        W41973   9.258   2.319   2.598 -0.2121  0.3314 -0.1494
25790W        W41974  16.446  15.699  11.567  0.0519 -0.2134 -0.0569
25791W        W41975  10.927   5.425   3.505  0.1589  0.2014  0.3285
25792W        W41976  13.628   3.684  16.429 -0.2283 -0.0559 -0.0951
25793W        W41977   9.537  11.000   3.341  0.3256  0.2638 -0.1899
25794W        W41978  16.467   4.649   0.406 -0.1311  0.0051  0.4152
25795W        W41979  11.464  12.954   3.959 -0.0923  0.0358 -0.1440
25796W        W41980  11.782   0.475   1.375 -0.2710  0.0018  0.1375
25797W        W41981   9.571   5.122   0.359  0.0929  0.2057 -0.0605
25798W        W41982  16.354   3.863   1.855 -0.1163  0.2976 -0.1446
25799W        W41983   7.470   9.604   4.145 -0.2680  0.0245  0.0167
25800W        W41984   3.774   5.372   5.670 -0.3525 -0.2637  0.1835
25801W        W41985   9.265   9.592  12.025 -0.0433  0.1816 -0.1363
25802W        W41986   9.475  12.439  14.582  0.1943 -0.1992  0.0035
25803W        W41987  10.156   0.427  13.967  0.1642  0.0549  0.2745
25804W        W41988  12.924  17.260   6.196  0.0935 -0.0226  0.0805
25805W        W41989   4.842   0.517  13.732 -0.0847 -0.0848 -0.2173
25806W        W41990  16.558  12.903   2.236 -0.2072 -0.2158 -0.1910
25807W        W41991  12.502  10.904   4.183 -0.0957 -0.0564 -0.0178
25808W        W41992  16.564   8.078   3.664  0.1276 -0.1195 -0.0062
25809W        W41993   4.230   7.264   2.776  0.2409  0.3159  0.0267
25810W        W41994  11.991  13.160   0.434  0.0699  0.1999  0.0048
25811W        W41995   1.102   4.390  10.342 -0.1575 -0.0506  0.0789
25812W        W41996   8.926  13.326   0.211  0.1325 -0.4082 -0.0934
25813W        W41997   1.056   9.756  15.216 -0.3759  0.3004  0.3012
25814W        W41998   2.608   7.204   2.342  0.5142  0.2356 -0.0387
25815W        W41999   1.860  16.654  16.143 -0.0170  0.4755  0.0450
25816W        W42000   6.466   2.955   5.635  0.0014  0.2373  0.1291
25817W        W42001   9.594   9.743   1.375  0.0243 -0.0609 -0.2567
25818W        W42002   8.144  13.162   4.992 -0.0918 -0.0681 -0.3404
25819W        W42003   7.867  10.393  12.759 -0.1023 -0.1566  0.1388
25820W        W42004   4.905   5.337   2.891  0.0866  0.1760  0.1024
25821W        W42005  12.728  16.554   1.972 -0.1664 -0.2648  0.2662
25822W        W42006   4.314  16.261   3.432 -0.1403  0.1499  0.0060
25823W        W42007  17.938  17.848   5.045  0.1055  0.2036  0.1324
25824W        W42008  14.235  12.282   0.205 -0.1721 -0.1856  0.0487
25825W        W42009   9.605   2.802  11.221 -0.0224  0.3559  0.0204
25826W        W42010   1.152  16.886  15.003 -0.3352  0.0179  0.0006
25827W        W42011   4.381   1.018   1.764  0.1800  0.2865 -0.0858
25828W        W42012   8.372   9.294   2.109 -0.0420 -0.0022  0.0382
25829W        W42013   0.699   6.171   5.040 -0.1584  0.1526  0.0595
25830W        W42014   9.872   8.014  16.511  0.0300 -0.0659  0.0722
25831W        W42015   7.346   1.187  13.873 -0.0040 -0.0664 -0.3036
25832W        W42016  16.272   4.637   4.241  0.0811 -0.2155  0.2090
25833W        W42017   6.733  11.509  15.307  0.0078  0.1420  0.1301
25834W        W42018   1.450  17.678   1.133 -0.0298 -0.2498 -0.1113
25835W        W42019   1.024  10.821  15.577  0.1605 -0.2053 -0.1949
25836W        W42020  12.648  16.134  11.171 -0.1885 -0.3279  0.1015
25837W        W42021   0.880  12.113   3.557 -0.4173 -0.2348  0.2183
25838W        W42022   4.211   9.758   2.975  0.1666 -0.1506 -0.2413
25839W        W42023   0.561  16.786   3.972 -0.3006  0.2438  0.0237
25840W        W42024  13.475   9.722  13.186  0.2132  0.0919  0.2077
25841W        W42025  10.038  17.930   1.303 -0.1690 -0.1784  0.3836
25842W        W42026  11.495   3.600  12.259 -0.0110  0.2948 -0.0810
25843W        W42027  15.916  16.149   5.556 -0.2764  0.0418  0.2399
25844W        W42028   6.031   2.618   0.248 -0.2162 -0.3208 -0.0732
25845W        W42029  12.083   7.792  13.072 -0.0427  0.3230 -0.2148
25846W        W42030   2.020   0.128   3.514 -0.0824 -0.2604 -0.4146
25847W        W42031  17.229   9.840  16.383 -0.2221 -0.1326  0.2064
25848W        W42032   0.488  17.694  11.494  0.1280 -0.0697  0.1367
25849W        W42033   6.463   7.715   5.341 -0.0430  0.0807 -0.1770
25850W        W42034  11.819   4.129  15.107 -0.0159 -0.1763 -0.0662
25851W        W42035   5.580   3.369   3.337 -0.0821 -0.0174 -0.1856
25852W        W42036  14.698   6.754   1.398  0.0179 -0.0548  0.0992
25853W        W42037  10.096   7.031  12.100 -0.0693  0.0383 -0.3130
25854W        W42038   7.129  17.449   4.013  0.0093  0.4901 -0.3388
25855W        W42039   0.817   4.499  14.344  0.0366 -0.1244 -0.0939
25856W        W42040  10.951  14.751   0.877 -0.0098  0.0469  0.1839
25857W        W42041   9.450   7.696   2.696 -0.1031 -0.0232 -0.1827
25858W        W42042   4.938   3.950   2.877 -0.3110 -0.1374 -0.1438
25859W        W42043   8.914   2.471  14.323  0.1492  0.1021  0.2517
25860W        W42044  12.518   0.593  14.113 -0.1142  0.1164 -0.0749
25861W        W42045   3.223  10.752  12.531 -0.0844  0.0772 -0.3272
25862W        W42046   5.403  17.069  13.931  0.1465 -0.0956  0.1132
25863W        W42047   0.726   2.240   1.686  0.0690 -0.4422  0.4165
25864W        W42048  12.363  10.238   0.538 -0.3121 -0.0490 -0.2763
25865W        W42049  15.854   4.658   4.691 -0.0545  0.2285 -0.0617
25866W        W42050   2.685  17.591  11.803  0.2490  0.3493  0.0933
25867W        W42051  17.997   7.537   5.351  0.0027  0.3595 -0.1900
25868W        W42052   9.448   1.390   0.015  0.1676  0.1268 -0.2674
25869W        W42053   6.146  16.693   4.069  0.1710 -0.0631 -0.2905
25870W        W42054   5.293   7.185  15.533 -0.0789  0.1542 -0.0845
25871W        W42055   0.934   3.935  14.503 -0.0061  0.1939 -0.1812
25872W        W42056  16.461  14.670   1.861  0.0171  0.0043 -0.4367
25873W        W42057  13.499   4.565  16.161  0.0433  0.1930  0.1607
25874W        W42058   2.594   9.346  15.253  0.1012  0.1620 -0.0726
25875W        W42059   2.052  12.283   4.612 -0.2209  0.2245 -0.0235
25876W        W42060  10.990  11.067  16.355 -0.1803  0.0984  0.0661
25877W        W42061   7.970  17.960  14.164  0.3799  0.0951  0.0708
25878W        W42062  12.255   8.887   3.756  0.0361  0.0759  0.2150
25879W        W42063   5.696   2.048  15.652 -0.1334 -0.0204 -0.5201
25880W        W42064  17.057  16.790  16.518 -0.2279  0.0600 -0.1657
25881W        W42065  11.502   8.222   3.771  0.2234  0.2592  0.0461
25882W        W42066   9.663   7.255   1.158 -0.1639 -0.0901  0.0742
25883W        W42067  17.958   5.607  14.461 -0.1566 -0.0888 -0.2582
25884W        W42068   7.985  12.762  11.890 -0.1790  0.1351  0.1123
25885W        W42069   1.890  10.818   0.423  0.3011  0.1691 -0.3191
25886W        W42070   7.121   9.080  15.210 -0.1152 -0.1862 -0.0911
25887W        W42071   7.669   3.913   1.886  0.2131 -0.3226 -0.0988
25888W        W42072   1.669  11.535   0.242 -0.1855  0.4442  0.0639
25889W        W42073   0.056   1.336   4.858  0.0143  0.0417  0.0261
25890W        W42074  17.734   9.821  13.204  0.0766 -0.3783  0.1519
25891W        W42075  17.824   8.945   3.502 -0.0106 -0.2679 -0.2601
25892W        W42076  15.800   4.455   0.668  0.1736 -0.1623 -0.0701
25893W        W42077  10.411  10.599   5.421  0.1440 -0.1207 -0.2213
25894W        W42078  13.516  15.382  14.677  0.1676  0.1323  0.0241
25895W        W42079   5.733  15.297   0.611  0.0132  0.0574  0.1555
25896W        W42080   5.687  16.361  12.305 -0.0287  0.0021 -0.1591
25897W        W42081   1.782  12.421  12.091  0.1019  0.0405  0.3141
25898W        W42082  17.899   5.889  12.663 -0.0799  0.1653 -0.0481
25899W        W42083  14.746   4.521   1.432 -0.3920 -0.4566 -0.0944
25900W        W42084  10.578  12.691   4.037  0.1781 -0.0557  0.1698
25901W        W42085   6.875   2.579   1.614  0.0254  0.0707  0.0054
25902W        W42086   5.880  13.788   5.830 -0.1621  0.1958 -0.3827
25903W        W42087   0.166  10.805   5.246 -0.2271 -0.1201 -0.2645
25904W        W42088  13.469   2.556   1.745  0.0014 -0.0090 -0.1875
25905W        W42089   9.387   4.680   6.304 -0.0877 -0.0804  0.0454
25906W        W42090   1.814  17.510  16.510  0.0369  0.0136 -0.0448
25907W        W42091   7.221  11.680  15.216 -0.2031  0.1700 -0.2230
25908W        W42092   7.098  11.706   4.296 -0.1544 -0.0529 -0.0804
25909W        W42093  16.443  10.990   4.572 -0.0879 -0.1526 -0.0151
25910W        W42094  16.901   8.511  15.690  0.1033  0.0894 -0.2936
25911W        W42095   0.122   8.950  13.431 -0.1596  0.0828 -0.1280
25912W        W42096   8.398   4.916  12.801  0.2455 -0.4121  0.0759
25913W        W42097  15.125  15.462   5.009  0.0868 -0.0700  0.1562
25914W        W42098  10.203   2.042  12.120 -0.0424  0.1553  0.0166
25915W        W42099  17.643  11.987  15.243  0.0315 -0.2592 -0.1319
25916W        W42100  16.853   5.826  13.769 -0.0843  0.0086 -0.3545
25917W        W42101   2.529   8.168  16.031 -0.1709 -0.0886  0.0411
25918W        W42102  12.560  14.428   1.705 -0.1736 -0.1616 -0.0951
25919W        W42103  17.934   8.351   4.921 -0.0371  0.1602 -0.0966
25920W        W42104  13.563   0.273  11.982 -0.0183 -0.0005 -0.2762
25921W        W42105   4.432   3.714   3.895  0.0080 -0.4294 -0.0257
25922W        W42106   5.843   2.313   3.964  0.0259 -0.0528  0.0630
25923W        W42107   0.443   1.112   4.246  0.1083 -0.2633 -0.1563
25924W        W42108  15.591   1.457   3.453  0.1471 -0.0875 -0.0191
25925W        W42109   4.052  13.748  16.216  0.0622  0.1343  0.3164
25926W        W42110   2.422  17.062  12.740  0.1147  0.3055 -0.0471
25927W        W42111  15.099  10.676   4.791  0.1114 -0.0529 -0.2491
25928W        W42112   2.014   2.626  14.719  0.1064  0.0756  0.0839
25929W        W42113   6.012   4.481   1.939 -0.1069  0.2099  0.3512
25930W        W42114   8.658   1.862  13.607  0.0619  0.1404  0.0057
25931W        W42115   6.979   9.020   4.732  0.0487 -0.2910 -0.0069
25932W        W42116   3.224  12.210  12.605  0.2022 -0.0919  0.2962
25933W        W42117   2.587   6.503   5.855  0.1386  0.2357  0.0752
25934W        W42118  12.701  15.549  14.586 -0.0027  0.1589 -0.2313
25935W        W42119   5.783   6.606  13.381  0.1772  0.1133  0.1879
25936W        W42120   6.132   3.521  12.008 -0.0668 -0.1643  0.2226
25937W        W42121  10.712  14.989   3.998 -0.0587  0.2532 -0.0338
25938W        W42122   0.517   4.094   5.427  0.2405  0.0019 -0.0406
25939W        W42123   9.063   4.125   4.087  0.1939  0.1691 -0.1798
25940W        W42124   9.846   4.746  11.758 -0.0854  0.0089  0.3876
25941W        W42125  16.900  11.089  13.776  0.2907 -0.0685 -0.0515
25942W        W42126  17.313  15.904  14.195 -0.0659 -0.0112 -0.0467
25943W        W42127   6.305   9.639   4.873 -0.2253 -0.1118  0.0400
25944W        W42128  13.789   8.836  13.130  0.1819 -0.0040 -0.1858
25945W        W42129   9.232   7.717  15.160 -0.0982  0.0405  0.0008
25946W        W42130   2.736  17.899  15.941  0.1631  0.0484 -0.0715
25947W        W42131  10.307  16.405  12.753  0.0557  0.2882  0.4430
25948W        W42132  10.215   5.923   4.457 -0.0572 -0.1309  0.1366
25949W        W42133  15.360   0.899   2.539 -0.0561  0.0503 -0.1336
25950W        W42134  16.156  15.394   3.114 -0.0640  0.0856  0.1166
25951W        W42135   9.495   4.386   2.637  0.0882 -0.1781  0.3727
25952W        W42136  15.321   2.961  15.977  0.0420  0.2679 -0.2893
25953W        W42137   1.942   9.726   6.473 -0.1245  0.1245  0.1086
25954W        W42138   8.559   1.993   2.119  0.3122 -0.2650  0.2218
25955W        W42139   4.900  11.229  13.488 -0.2169 -0.2117 -0.0828
25956W        W42140   3.316  10.733  15.659 -0.3300  0.2053 -0.0119
25957W        W42141   9.614  14.200   5.250 -0.1746  0.1596  0.1140
25958W        W42142   0.766   0.890   5.557 -0.2757  0.0510  0.2331
25959W        W42143  14.834  12.347  13.173  0.5643  0.1582 -0.0316
25960W        W42144  12.828   0.018  12.632  0.0609  0.2115 -0.0510
25961W        W42145  12.273  14.131   4.411 -0.0316 -0.2391 -0.2518
25962W        W42146   2.674   5.484   6.188  0.1215  0.0741 -0.0257
25963W        W42147  11.637  12.931  16.241 -0.0483 -0.0944  0.1521
25964W        W42148  11.332  13.820  12.778 -0.1092  0.0928 -0.1457
25965W        W42149  12.147   3.580   0.689  0.1405 -0.2755 -0.1764
25966W        W42150   6.970  10.403   3.192 -0.5193  0.4002  0.0903
25967W        W42151  16.454  13.563  12.712 -0.0251 -0.2976  0.2431
25968W        W42152   1.593   1.157  11.129 -0.0455 -0.1606  0.2283
25969W        W42153  11.264  16.092   0.277  0.1196  0.2323  0.1974
25970W        W42154  17.019  14.054  15.160  0.0128  0.2012 -0.0887
25971W        W42155  16.399  17.830  16.065  0.1911 -0.1520  0.1490
25972W        W42156  16.776  11.493   5.811  0.1134  0.2790 -0.3662
25973W        W42157  10.482  14.553  13.353 -0.0825  0.1212 -0.0377
25974W        W42158   9.448   0.934   0.909 -0.3109  0.0453 -0.4526
25975W        W42159   8.590   6.322  13.970  0.1082  0.0774 -0.1999
25976W        W42160   3.323   7.781   1.989  0.0881 -0.0654 -0.1687
25977W        W42161   4.517   8.498   1.576 -0.0176  0.0273 -0.4074
25978W        W42162  15.186   4.241  15.934 -0.0703  0.0625  0.0201
25979W        W42163   6.115  16.210   4.370 -0.1838 -0.2118 -0.3951
25980W        W42164  17.081  17.094   2.893 -0.2861 -0.2582 -0.2012
25981W        W42165  10.020   6.899  12.866  0.0147 -0.1261  0.0548
25982W        W42166  11.633  15.282   5.263 -0.2827 -0.0876  0.1795
25983W        W42167  12.461   7.858  13.917 -0.2171 -0.2564  0.1039
25984W        W42168  12.615  11.155   0.786  0.0710 -0.0059  0.1000
25985W        W42169   5.541  14.343   0.540  0.1099 -0.2103 -0.4757
25986W        W42170  13.772   6.051  14.255 -0.3411  0.1359  0.0651
25987W        W42171   5.297   2.372  15.587  0.2400  0.0233 -0.1276
25988W        W42172  12.541  11.888  14.115 -0.0825 -0.0181  0.3607
25989W        W42173   4.777   6.055   3.138  0.0755 -0.0573 -0.0231
25990W        W42174  14.300  15.660  16.202 -0.2150 -0.0909  0.2400
25991W        W42175   5.308  16.063  12.389  0.2456  0.0130  0.0268
25992W        W42176   5.700  13.522   3.732  0.2817 -0.5228 -0.2369
25993W        W42177  15.589  11.269  11.160 -0.0094 -0.4105 -0.2108
25994W        W42178   0.975  10.734  16.588 -0.2623 -0.1213  0.1700
25995W        W42179  14.951  16.913   4.640 -0.1979 -0.1199  0.0444
25996W        W42180   4.296   5.537   4.796 -0.2746  0.3043 -0.1761
25997W        W42181   5.737   6.459   3.942  0.0052  0.1341  0.2881
25998W        W42182  11.815   2.902   1.335 -0.2445 -0.2107  0.3810
25999W        W42183  16.321  11.957  13.727  0.0162 -0.2305  0.1261
26000W        W42184   4.839  16.069  12.714 -0.2829 -0.3431 -0.1723
26001W        W42185   2.988  17.260   5.475 -0.0692 -0.2568 -0.1879
26002W        W42186   5.813  11.774   2.033 -0.1017 -0.2359 -0.0662
26003W        W42187   6.644   9.122  14.521 -0.1118 -0.2134  0.2812
26004W        W42188  17.736   0.848  11.296  0.1954  0.1101 -0.2231
26005W        W42189   2.640   0.835  14.496  0.1245  0.0973  0.3789
26006W        W42190   0.356  13.278  11.680 -0.0147 -0.1185  0.1123
26007W        W42191   4.723  14.808   0.725  0.0373 -0.2039  0.0143
26008W        W42192   1.624  10.220   3.268  0.0741 -0.1748 -0.2147
26009W        W42193  14.064   9.760   4.395  0.0459  0.0768  0.1249
26010W        W42194  10.961  13.527  12.047  0.1846  0.0755 -0.2073
26011W        W42195  14.271   5.743  15.818 -0.1601 -0.1839 -0.0050
26012W        W42196  12.253   5.200  15.634  0.0464  0.0622  0.0046
26013W        W42197  11.322   1.681  14.082 -0.1787 -0.2725 -0.1073
26014W        W42198  13.427   8.975  14.534  0.0179 -0.1940 -0.0095
26015W        W42199   6.153   9.274   4.255 -0.0980  0.1608  0.1468
26016W        W42200   3.795   8.853   5.377  0.2528  0.2589 -0.0261
26017W        W42201  12.773   7.404  15.270 -0.0782 -0.1241 -0.0412
26018W        W42202   9.608   0.671   5.954 -0.1520 -0.0534 -0.2295
26019W        W42203   4.952   1.018   4.280  0.0662  0.0747  0.0523
26020W        W42204   6.447   4.109   4.111  0.2197  0.2121  0.0971
26021W        W42205  16.153  14.115  14.452 -0.0542  0.0072  0.0559
26022W        W42206  16.792  10.018   3.986  0.0690 -0.1390  0.3912
26023W        W42207   5.553  15.743  15.922 -0.0791 -0.0475 -0.2635
26024W        W42208   8.183  15.210   2.344  0.2763 -0.1064  0.0298
26025W        W42209  12.061   4.086   4.358 -0.1736 -0.1668 -0.0348
26026W        W42210   2.790   2.747   5.578  0.0490 -0.3458 -0.3846
26027W        W42211   1.884   7.791   1.941  0.0043  0.1029 -0.0773
26028W        W42212  14.375   7.138  15.848  0.0102 -0.5401  0.2298
26029W        W42213   0.013  10.514   3.598  0.2724 -0.1224  0.1138
26030W        W42214   3.631  15.732   3.512 -0.1014  0.3015 -0.2666
26031W        W42215   9.807   4.752   3.941  0.0278  0.1562 -0.0344
26032W        W42216  16.951   7.107   0.877  0.1855 -0.1401  0.1265
26033W        W42217   0.490   7.948  11.887 -0.0949 -0.0501  0.1620
26034W        W42218   8.142   9.821   4.548  0.0199  0.1184 -0.0364
26035W        W42219   2.320  14.586  14.960 -0.0328  0.2752  0.2632
26036W        W42220   3.410  11.918  14.714 -0.1878 -0.0001  0.1532
26037W        W42221  11.918   7.610  16.301 -0.0336  0.1873 -0.2363
26038W        W42222   8.678  11.943   2.682 -0.0517  0.1839  0.0649
26039W        W42223   8.696   0.992  16.471 -0.2613  0.0586  0.0400
26040W        W42224   7.391  15.906  10.632 -0.1051 -0.0970  0.1845
26041W        W42225  11.934   3.509  12.125  0.1459 -0.1278  0.1024
26042W        W42226   7.562   9.973  15.093 -0.1123  0.0435 -0.0000
26043W        W42227   2.815  16.078  13.813  0.2774  0.2847  0.2894
26044W        W42228   1.982   9.316  12.077 -0.1698 -0.0653 -0.3305
26045W        W42229   5.757   7.406   5.931 -0.1404 -0.2612  0.1887
26046W        W42230   2.019   1.909  13.511 -0.2221 -0.0312  0.0925
26047W        W42231  16.417  17.328  12.541 -0.1012 -0.0042 -0.3047
26048W        W42232  16.758  10.551  11.758 -0.1725  0.0302  0.1345
26049W        W42233   2.469  12.460  15.651 -0.1822 -0.1049 -0.2871
26050W        W42234  16.223   0.172  12.423  0.0638  0.1838  0.0302
26051W        W42235  13.196  10.293  12.870 -0.2126 -0.2701  0.3250
26052W        W42236   1.887   2.214   3.897 -0.0882  0.0776 -0.1789
26053W        W42237  14.501   1.178   2.177 -0.2053  0.0205  0.0477
26054W        W42238   3.428  15.641  14.345  0.1392  0.0332 -0.0606
26055W        W42239   1.732   6.986  15.381  0.1821 -0.2801  0.0810
26056W        W42240  10.171  10.288   1.196  0.0970  0.0157 -0.3580
26057W        W42241   0.249   2.410   4.033 -0.1965 -0.0621  0.0876
26058W        W42242  12.860  15.301   3.304  0.1861  0.0132 -0.0485
26059W        W42243   2.358   1.593   3.380  0.0281  0.0294  0.0283
26060W        W42244  17.705  10.374   4.402 -0.0291 -0.1718 -0.2362
26061W        W42245   5.694  11.449   4.105 -0.2703 -0.1009  0.0674
26062W        W42246  12.786  10.400  12.630 -0.1685 -0.0851 -0.0392
26063W        W42247  12.745   0.336  16.596 -0.0089  0.1187  0.1762
26064W        W42248  13.464   8.237  11.229  0.1024 -0.2711  0.2607
26065W        W42249  15.387   7.206  15.991  0.1543 -0.0686 -0.1798
26066W        W42250  13.746  10.511   0.292  0.1464  0.2151  0.0284
26067W        W42251   8.274   8.776   1.049 -0.0819  0.1982 -0.3222
26068W        W42252   0.022  11.893   1.427 -0.4609 -0.0318  0.2272
26069W        W42253  17.941   3.633   1.509 -0.0393  0.1356 -0.2699
26070W        W42254  16.901   8.999  12.975 -0.1388 -0.0021  0.2566
26071W        W42255  13.999   6.145   1.198 -0.1735  0.1761  0.1646
26072W        W42256  14.755  10.360   1.116  0.3658 -0.3508  0.0382
26073W        W42257  15.358   2.388   3.962 -0.1197 -0.0533  0.0007
26074W        W42258  11.543   2.938   2.412 -0.1342 -0.1163 -0.0868
26075W        W42259   6.893  15.810   3.558 -0.3209  0.1908  0.3649
26076W        W42260   2.814   0.763   0.500  0.1440  0.1720  0.0007
26077W        W42261  12.401  17.035   2.975  0.1073  0.0320  0.1000
26078W        W42262   5.665  10.490   2.738  0.0837 -0.2935 -0.2319
26079W        W42263   2.870   8.122   1.986  0.1319 -0.1154 -0.1111
26080W        W42264  16.025  11.011  14.023  0.0375  0.2101 -0.0237
26081W        W42265   2.630   7.571   4.202 -0.0392  0.0446  0.2509
26082W        W42266   8.560   0.952   4.078 -0.2052  0.3395  0.1108
26083W        W42267  11.835   3.365   3.067 -0.0966  0.0184 -0.1962
26084W        W42268  12.082   1.895  14.077 -0.1861 -0.0437  0.1618
26085W        W42269   3.008   6.313   5.080 -0.1754 -0.0682 -0.1689
26086W        W42270  17.893  11.385  14.596  0.0266  0.2316  0.1214
26087W        W42271  14.469  11.875  13.975 -0.0091 -0.3774 -0.2403
26088W        W42272   0.234   1.815  15.597  0.1092 -0.0957 -0.1909
26089W        W42273   1.990  13.074   4.917 -0.4326  0.1353 -0.3691
26090W        W42274  11.453  16.705   2.140  0.0467  0.2018  0.0138
26091W        W42275   0.273   7.884   5.650  0.0052  0.3057 -0.2602
26092W        W42276   0.744   2.489   3.876  0.2916  0.1031  0.1623
26093W        W42277  13.920   1.258  13.376 -0.2426  0.1360  0.0488
26094W        W42278  13.171  12.628   1.569 -0.1295 -0.2066  0.3586
26095W        W42279  16.881   8.901  13.522 -0.1486 -0.2127 -0.0690
26096W        W42280   6.906  10.906  16.131 -0.1887 -0.0823  0.2146
26097W        W42281  11.963   5.565   3.751  0.0009  0.1003 -0.3493
26098W        W42282   5.507   7.177  13.679  0.1706  0.2713  0.0839
26099W        W42283   7.712   9.616   0.778 -0.1741 -0.0621 -0.0080
26100W        W42284  17.785   6.399   0.928  0.1685  0.1958  0.3472
26101W        W42285  11.746  13.768  14.946  0.0632  0.0993  0.0496
26102W        W42286  13.574  13.210   4.690  0.3271 -0.3029  0.1159
26103W        W42287   7.023   4.370  13.581  0.2024  0.0696 -0.2480
26104W        W42288  16.976   9.248   5.169 -0.1472 -0.1106  0.1202
26105W        W42289   5.364   6.358   5.327 -0.3058  0.0933 -0.1340
26106W        W42290  13.061  13.617   5.408 -0.1952  0.0421 -0.2136
26107W        W42291  15.153   7.379   2.919  0.2222 -0.2115 -0.0112
26108W        W42292   2.345   3.355  14.393  0.0089 -0.1509 -0.1211
26109W        W42293  15.728   2.358  13.360 -0.1685  0.0126  0.2158
26110W        W42294  13.357  17.373  15.344 -0.0633 -0.0226  0.0384
26111W        W42295  17.849   2.382   0.933  0.1062 -0.0347  0.0817
26112W        W42296   7.102   5.335  12.395 -0.0949 -0.0189 -0.0632
26113W        W42297  16.102  15.564  12.170  0.0172  0.1852  0.1132
26114W        W42298   3.198  12.677   4.514 -0.3794  0.3357  0.0124
26115W        W42299   0.326   4.853  15.685 -0.2698 -0.1552  0.1942
26116W        W42300  10.325  17.515   2.012 -0.1974  0.2068 -0.0758
26117W        W42301   1.721  17.809  13.167 -0.3161  0.0058  0.0044
26118W        W42302  12.198  15.882   1.461  0.1117  0.1607  0.0367
26119W        W42303  16.356   0.959   4.463 -0.1608 -0.0921 -0.0927
26120W        W42304  10.563   9.204  16.199  0.0393 -0.2415 -0.2128
26121W        W42305   8.971  12.798   2.663  0.0710 -0.0868 -0.1147
26122W        W42306   3.757   5.875   4.247  0.1447  0.0250  0.1238
26123W        W42307   1.411  14.180   1.025 -0.0894  0.0589  0.2041
26124W        W42308  15.917   3.837  11.645 -0.2584 -0.0776 -0.0595
26125W        W42309   2.180   7.696  16.651 -0.0125 -0.3891 -0.4670
26126W        W42310   4.332  17.288  15.518  0.0161  0.0074  0.0292
26127W        W42311  15.694  12.303  11.797 -0.0033  0.0006 -0.0413
26128W        W42312   5.533  15.413   2.558 -0.1797 -0.0515 -0.0476
26129W        W42313  11.077   1.496   4.302  0.2660  0.3961  0.0612
26130W        W42314  12.130   1.872   4.230  0.2515  0.1574  0.3590
26131W        W42315  16.075  17.683  11.173  0.0045 -0.2292 -0.0610
26132W        W42316   8.635   7.998   4.323  0.1885 -0.0726 -0.1403
26133W        W42317   3.690   8.026  13.586 -0.0235  0.0168  0.2103
26134W        W42318  13.868  13.975  12.817  0.0902 -0.0343 -0.1431
26135W        W42319   8.095   7.026  16.388 -0.1295  0.2392 -0.1508
26136W        W42320  10.354  17.544  12.473  0.1266  0.0485 -0.2501
26137W        W42321  11.987  14.934   1.034 -0.3171  0.1643  0.1647
26138W        W42322  12.066  10.244   5.443  0.2149 -0.1008 -0.0440
26139W        W42323  16.558   1.680  12.145  0.0598  0.3469 -0.3912
26140W        W42324  14.694   5.266   5.169  0.0585 -0.1771  0.0710
26141W        W42325  14.657  16.193   1.392 -0.0030  0.4617 -0.1391
26142W        W42326   4.213   1.700  15.282  0.2153 -0.1211 -0.1917
26143W        W42327  15.015   0.828   4.976 -0.0676 -0.3065 -0.2540
26144W        W42328   8.771  11.498  15.238 -0.2725 -0.2800  0.2850
26145W        W42329   5.152   6.630   2.627 -0.1274  0.3611  0.1177
26146W        W42330   1.466   9.138   0.005 -0.2817  0.2820  0.0997
26147W        W42331   3.002   3.296   0.873 -0.0424 -0.2999 -0.1280
26148W        W42332   2.039   8.627   0.065  0.1861  0.0763 -0.1075
26149W        W42333  14.970   0.404   0.146  0.2080 -0.0918  0.2561
26150W        W42334  10.604   1.711  12.362  0.3515 -0.1650 -0.0260
26151W        W42335  11.228   7.163  15.123  0.3243 -0.1102  0.0238
26152W        W42336   8.124  14.789  11.862  0.1871  0.2374  0.1766
26153W        W42337   4.467  16.173  11.193  0.0186  0.1215  0.0660
26154W        W42338   3.321  16.582  15.439  0.3675  0.1560 -0.1087
26155W        W42339   0.553   6.702   5.046 -0.3169 -0.2669 -0.0385
26156W        W42340   0.927  17.606  14.484 -0.4050  0.0072 -0.2388
26157W        W42341   0.948  15.031   5.174 -0.1424 -0.1188 -0.1692
26158W        W42342  13.908   0.768   4.872 -0.0555  0.0749 -0.0928
26159W        W42343   1.762  14.322  11.016 -0.0239  0.1372 -0.1031
26160W        W42344   4.107  15.418  14.359 -0.1041 -0.2016  0.1057
26161W        W42345  17.453  17.799  14.721 -0.0821 -0.0082  0.0305
26162W        W42346   2.556  17.937  12.128  0.1103  0.1964 -0.1372
26163W        W42347  12.073  10.640   1.905 -0.0209 -0.0419 -0.2222
26164W        W42348   0.452   4.038  15.836 -0.0038 -0.2903  0.0416
26165W        W42349   6.040  14.594   3.987 -0.0561  0.2882  0.1670
26166W        W42350   1.025   2.260   2.926 -0.1457 -0.0279  0.0957
26167W        W42351  13.265   2.600  12.048 -0.2966 -0.0597  0.0135
26168W        W42352   2.204   1.409   1.078  0.1270 -0.1481  0.1382
26169W        W42353   2.409   9.499   2.739 -0.2036  0.0940 -0.2368
26170W        W42354   8.206   1.367  12.257 -0.0503 -0.0813 -0.2619
26171W        W42355  10.168   7.970   1.732  0.0058 -0.1247 -0.2774
26172W        W42356  15.054  16.743   0.457  0.0734 -0.2037  0.4596
26173W        W42357  13.955  15.390  11.593  0.0784 -0.1897 -0.1111
26174W        W42358   8.030  10.369   2.940  0.5350 -0.1529 -0.1419
26175W        W42359  17.674   9.073   4.503  0.3364  0.1222  0.1424
26176W        W42360  11.461   1.997   4.026 -0.1151  0.0885 -0.0042
26177W        W42361   7.764   3.379  13.753  0.3773 -0.0714  0.0500
26178W        W42362  10.453  16.940   4.429 -0.1071 -0.1605 -0.0670
26179W        W42363  12.193  12.348  12.095  0.2616  0.3220  0.1613
26180W        W42364   3.363   5.276   5.412  0.0666 -0.3569 -0.0021
26181W        W42365   7.752  14.605  14.988 -0.1539 -0.0905  0.0620
26182W        W42366  15.285  14.780  10.304  0.0816 -0.0227 -0.0334
26183W        W42367  12.189  15.772  15.879  0.5870  0.0734 -0.0455
26184W        W42368  13.826  11.718  13.095 -0.2093  0.1818  0.0346
26185W        W42369  13.158  13.829  15.626 -0.3020 -0.0911  0.0729
26186W        W42370   6.910   3.642  13.409 -0.0071  0.1247 -0.1433
26187W        W42371  10.339   3.295  14.577  0.1024 -0.1063 -0.1019
26188W        W42372  12.594   0.876  13.228  0.1275 -0.1316 -0.3273
26189W        W42373   2.749   4.152   0.703  0.2596 -0.1006  0.1723
26190W        W42374   9.546   7.814   2.182 -0.0059 -0.2281  0.0842
26191W        W42375  15.800   1.670  16.655 -0.0882  0.0239  0.1822
26192W        W42376  15.128  11.455  11.867 -0.1019  0.0432  0.1272
26193W        W42377  13.196   9.434  11.707  0.0703 -0.2372  0.0737
26194W        W42378   9.835   6.320  14.246 -0.1666  0.0304  0.0476
26195W        W42379  16.961   5.471   0.204  0.0962 -0.0695  0.1798
26196W        W42380  10.724  15.861   5.352  0.2451 -0.1514 -0.0300
26197W        W42381  10.349  13.157   0.542  0.0726  0.2134  0.0660
26198W        W42382   4.461   7.884  13.293 -0.1089  0.0247  0.0778
26199W        W42383  13.854  15.277  12.546  0.1541  0.3307 -0.0902
26200W        W42384  15.936  13.149  15.540  0.0153 -0.0106 -0.0643
26201W        W42385  16.041  10.805   1.743 -0.2113  0.2201  0.2493
26202W        W42386   8.680   0.247   1.109 -0.0181 -0.1266  0.1606
26203W        W42387   6.816   8.086   5.571 -0.1572 -0.2054 -0.1869
26204W        W42388  16.693   9.795   3.222 -0.2560  0.0080 -0.1540
26205W        W42389   5.818   6.532   0.777 -0.1463 -0.1074 -0.1879
26206W        W42390   8.923  10.312   4.345  0.0342 -0.0565  0.0447
26207W        W42391   6.468   7.440   1.558  0.1148 -0.0822 -0.1873
26208W        W42392  15.635   3.531  12.489  0.0424  0.1540  0.0070
26209W        W42393  10.657  15.050  13.898  0.2061 -0.1353  0.1645
26210W        W42394  17.601   6.324   4.165 -0.1423 -0.0719 -0.2082
26211W        W42395   0.689   5.566   0.007 -0.3526  0.1089 -0.0662
26212W        W42396   4.880   7.382   5.663  0.1065  0.3516  0.1076
26213W        W42397  14.951   8.980   1.544  0.1435 -0.1100  0.0600
26214W        W42398   0.723  16.692  13.168 -0.0190 -0.0231  0.0942
26215W        W42399   9.992   9.226   0.232 -0.0401 -0.0763  0.1021
26216W        W42400   7.837  17.926  14.747 -0.1123  0.0133  0.0388
26217W        W42401   0.981  14.602   1.262  0.1387 -0.2051  0.0875
26218W        W42402  11.679  17.027   1.185  0.2310  0.0094 -0.1210
26219W        W42403  17.841   9.336   4.967 -0.4534  0.1825  0.0225
26220W        W42404   0.127   7.989  13.849  0.0418 -0.1845 -0.0777
26221W        W42405   8.099   9.046   2.537  0.3185 -0.3260  0.0073
26222W        W42406  11.791  17.086   3.993 -0.0821  0.0513  0.0727
26223W        W42407   1.600   0.925  14.642 -0.0865 -0.2295 -0.2185
26224W        W42408   2.350   2.558   3.074  0.0928 -0.0188 -0.0516
26225W        W42409   0.784   6.647  13.166 -0.0116  0.0504 -0.0534
26226W        W42410   5.157  13.698   1.319  0.0259  0.1098 -0.0684
26227W        W42411   3.704  16.933  12.743  0.1619 -0.0738  0.1185
26228W        W42412  14.242   2.089   1.330  0.1434 -0.1454  0.1567
26229W        W42413   1.390   5.027  16.186  0.0006  0.0942 -0.0888
26230W        W42414   4.828  10.839  11.647  0.0448  0.1055  0.1593
26231W        W42415  13.459  10.606   5.029 -0.0001 -0.1478 -0.0664
26232W        W42416  15.127  11.572   4.597 -0.4044 -0.0430  0.0857
26233W        W42417  15.758   5.168   2.482  0.0466  0.1676  0.1106
26234W        W42418   6.071  16.106   2.339 -0.2410  0.0411 -0.1772
26235W        W42419  15.060   5.322  11.849 -0.0732 -0.0444  0.1056
26236W        W42420  10.811  15.904  15.798 -0.3737  0.0934 -0.0939
26237W        W42421   8.369   0.033  11.620 -0.0205  0.2015 -0.0230
26238W        W42422   1.638  13.659   0.924  0.0382 -0.0300  0.3483
26239W        W42423   5.927   7.432  13.784  0.3401  0.0720 -0.3003
26240W        W42424   0.466   4.341   0.053 -0.0347 -0.1112  0.1377
26241W        W42425   1.349  15.395  15.823  0.1246 -0.1625 -0.2751
26242W        W42426  17.538   7.490   5.321 -0.1992  0.0619  0.0145
26243W        W42427   6.122  15.118  16.471 -0.2537  0.0984  0.3550
26244W        W42428  16.288  10.595  13.946 -0.0525  0.1948  0.0975
26245W        W42429  12.669  12.436   0.622  0.0163  0.0903 -0.1310
26246W        W42430   3.311   6.509   1.130  0.0752 -0.4192  0.0209
26247W        W42431  11.356   1.581   2.309  0.0719 -0.2675 -0.1269
26248W        W42432  13.540   0.906  15.885  0.1780  0.1570 -0.2356
26249W        W42433   0.122  12.488  15.266 -0.1302 -0.0140  0.1251
26250W        W42434   2.258  16.646   1.946 -0.1415 -0.2844  0.1209
26251W        W42435   1.969   3.748   3.605 -0.0476 -0.0020  0.3099
26252W        W42436  10.346   9.980   2.542 -0.1766  0.0032 -0.0708
26253W        W42437   1.972  10.104   0.112 -0.0976  0.2479 -0.1997
26254W        W42438  17.139  17.914  10.325 -0.0148 -0.0871 -0.1212
26255W        W42439  13.768  12.879  11.981 -0.4900 -0.0130 -0.0679
26256W        W42440  14.423  17.940   5.577  0.2339 -0.0289  0.0099
26257W        W42441   2.232  12.451   2.703  0.0004  0.2351  0.1901
26258W        W42442   4.472   5.085   5.132 -0.0995  0.1421  0.0013
26259W        W42443  10.698   9.889   4.948  0.1471 -0.3930  0.0000
26260W        W42444  13.034  14.683  13.384  0.2372 -0.2132  0.5590
26261W        W42445   7.047   6.346   5.355 -0.2906  0.0293  0.1948
26262W        W42446   3.958  13.651  15.676  0.1971  0.1112 -0.2115
26263W        W42447  14.165   8.763  15.414 -0.0578  0.0160  0.1250
26264W        W42448   6.250  11.843   4.294  0.0301  0.0820  0.2141
26265W        W42449   2.030  11.258  15.759  0.2072 -0.0737 -0.1252
26266W        W42450   6.766  16.759  12.461 -0.2728 -0.0793  0.1714
26267W        W42451   1.128  14.890  13.541 -0.4563  0.3372  0.2763
26268W        W42452   0.803   6.934   5.555 -0.1451 -0.0278  0.1381
26269W        W42453  17.625   9.076  15.513  0.2711 -0.2033 -0.3751
26270W        W42454  14.224   1.919   4.736 -0.0806 -0.1229 -0.1118
26271W        W42455  16.271  14.343   2.224  0.0679  0.1078 -0.1015
26272W        W42456   0.377   9.225   0.838 -0.2224  0.2050 -0.0032
26273W        W42457  16.284  10.250   5.081 -0.2497  0.4274  0.1239
26274W        W42458   3.443  15.169  13.199  0.0285  0.3725  0.3181
26275W        W42459  12.854   9.137  15.219  0.1181 -0.0596 -0.2112
26276W        W42460  12.337  13.198   5.452 -0.2237 -0.2093  0.1196
26277W        W42461  16.557  16.175  11.855 -0.0816  0.1386 -0.1611
26278W        W42462  17.063  17.241  14.122  0.0383  0.0628  0.1906
26279W        W42463  17.640   0.797   2.317  0.3495 -0.0838 -0.0811
26280W        W42464  10.971   8.115   5.548 -0.2125  0.0724 -0.1505
26281W        W42465   4.393  15.109  12.545  0.0168 -0.0163 -0.1883
26282W        W42466   1.168   8.398  16.592 -0.2440  0.1977  0.1182
26283W        W42467  16.585   3.376  11.340  0.2260  0.1243  0.0927
26284W        W42468  10.472   0.772   2.846  0.2330 -0.2083  0.1418
26285W        W42469   3.737   9.477  15.912  0.0550  0.2789 -0.2581
26286W        W42470   5.575   9.540   2.248  0.1353 -0.2586  0.0291
26287W        W42471  17.873  11.023   4.838 -0.2406 -0.2854 -0.0191
26288W        W42472  14.807   2.679   4.246 -0.1332 -0.1056 -0.1210
26289W        W42473  16.838   6.438   1.717 -0.1931 -0.1915  0.0002
26290W        W42474   4.565   9.091   0.790  0.0708 -0.0939 -0.0345
26291W        W42475   1.931   4.879   5.325 -0.0566  0.3880 -0.0404
26292W        W42476  17.659  12.491  14.989 -0.0074  0.1252  0.1433
26293W        W42477   8.033   2.754  12.970 -0.0891  0.1356 -0.1122
26294W        W42478   9.694   3.086  12.960  0.0035 -0.0573 -0.1408
26295W        W42479   7.361   4.639  12.776  0.0339 -0.2062 -0.3294
26296W        W42480   2.632   4.455  16.508 -0.3441 -0.0521 -0.1301
26297W        W42481   1.826  10.379   1.566 -0.0692  0.1003 -0.0525
26298W        W42482  17.316   7.884  13.134 -0.2277 -0.3288 -0.2522
26299W        W42483  11.400  16.643  16.351  0.4706 -0.0835 -0.1940
26300W        W42484   7.736   7.688   3.585 -0.3100 -0.1535  0.1630
26301W        W42485   6.398  10.563  15.241 -0.1156  0.2537 -0.1355
26302W        W42486  11.825   2.273  16.095  0.3495 -0.0318  0.0544
26303W        W42487   4.260   2.151   2.751 -0.0092 -0.0918 -0.2130
26304W        W42488  17.561  16.842   0.794 -0.2151 -0.0610 -0.0621
26305W        W42489  16.012   2.166  15.504  0.0084  0.1043  0.0561
26306W        W42490  16.293   4.193   3.257 -0.2555 -0.3196 -0.0750
26307W        W42491   7.481  15.301  14.382 -0.1370  0.3020 -0.0887
26308W        W42492   9.966  11.012   3.775 -0.1381  0.0298  0.2123
26309W        W42493   9.534   6.870  12.854 -0.1194 -0.0552  0.4545
26310W        W42494  14.874  16.252  11.433 -0.0703 -0.1648  0.0712
26311W        W42495  17.915   7.450   3.537 -0.3828  0.0142  0.1395
26312W        W42496   6.663   1.583   4.327 -0.0133  0.0828  0.1904
26313W        W42497  16.623   5.377  12.968  0.1496 -0.4153  0.0009
26314W        W42498  16.875  16.206   0.399 -0.1362  0.0013 -0.1634
26315W        W42499  15.221   7.730   0.617 -0.2656 -0.2614  0.0189
26316W        W42500   1.847   8.221   2.353  0.0591  0.0115 -0.1457
26317W        W42501   1.833  16.432  14.108 -0.1262  0.2526  0.1081
26318W        W42502   0.111  15.452   0.669 -0.3247 -0.0265 -0.1048
26319W        W42503  17.118  11.973  15.420  0.0636  0.1172 -0.1008
26320W        W42504   8.003  16.930  16.306 -0.1418 -0.1304  0.0925
26321W        W42505   2.046  13.670   3.690 -0.0237 -0.1262 -0.0004
26322W        W42506  14.967  15.889   5.456 -0.0098 -0.0678  0.0016
26323W        W42507   9.157  16.069  15.723 -0.0700 -0.1237 -0.0483
26324W        W42508  15.316   2.399   1.262 -0.0897 -0.1027 -0.0031
26325W        W42509   8.824   0.542   4.236  0.1013 -0.1420  0.1538
26326W        W42510   2.016   8.701   1.898  0.0336  0.2064 -0.3278
26327W        W42511   6.914  11.646  12.809 -0.2194 -0.0812  0.2466
26328W        W42512   3.734   9.505  12.842 -0.0974  0.0566 -0.0482
26329W        W42513   8.697   5.924   2.285  0.0921 -0.2948 -0.0749
26330W        W42514   4.222   5.646   5.931  0.2935  0.1313 -0.1869
26331W        W42515  13.961   0.590  12.410  0.1271 -0.0607  0.0911
26332W        W42516   2.026  16.279  15.168 -0.0594 -0.0217  0.2068
26333W        W42517   3.419   3.817  12.339  0.0029 -0.2293  0.0423
26334W        W42518  13.800   6.367  11.170  0.0725 -0.0718 -0.1954
26335W        W42519  14.488  10.540   1.964 -0.0610  0.3053 -0.0994
26336W        W42520   6.233  16.435  13.521 -0.0783  0.4145  0.0504
26337W        W42521  14.185  11.170   5.173 -0.1452  0.1565  0.0246
26338W        W42522  13.427   3.105   4.125 -0.0699 -0.0224  0.0585
26339W        W42523  13.391   4.046   4.982 -0.2814  0.0661  0.3406
26340W        W42524   4.961   4.582   5.462 -0.1353 -0.1144  0.2718
26341W        W42525  10.888   5.520  14.034  0.1092  0.3527 -0.3072
26342W        W42526  15.512   8.149   0.452 -0.0950  0.1047  0.2386
26343W        W42527   2.338   9.010  13.827  0.0153  0.0138 -0.0461
26344W        W42528   4.809  15.907   4.148  0.2278  0.1049  0.1057
26345W        W42529   1.499   5.508   2.951  0.0624 -0.1589 -0.0564
26346W        W42530   6.157  13.079   1.371 -0.1224  0.0678 -0.0973
26347W        W42531   2.637   8.077  13.321 -0.1251 -0.0812 -0.1795
26348W        W42532  14.295   4.163  16.456  0.2690 -0.0537  0.1283
26349W        W42533   9.197  15.001   2.170  0.0662  0.0727  0.3745
26350W        W42534   8.472  10.220  15.663  0.0320 -0.1195  0.0016
26351W        W42535   8.600   7.855  12.631  0.1620  0.0916 -0.0870
26352W        W42536  16.030   3.121   3.960  0.0413 -0.1735  0.0389
26353W        W42537  10.453  17.808  14.341 -0.1833  0.0178  0.0057
26354W        W42538   0.822   8.133   2.278  0.1387 -0.0231  0.1735
26355W        W42539  17.216   0.497  13.834  0.0922  0.0826  0.0478
26356W        W42540   5.853  11.533  16.323 -0.2893  0.2013 -0.2817
26357W        W42541  11.810   4.862  14.648 -0.2175 -0.1780  0.0806
26358W        W42542  12.204  12.145  13.834  0.2550 -0.0259  0.0219
26359W        W42543   2.796  11.664   4.619 -0.0414 -0.0744  0.0475
26360W        W42544  14.119   0.043   4.553 -0.1907  0.0677  0.0316
26361W        W42545  12.243  16.685  12.258  0.2378 -0.1043 -0.0550
26362W        W42546   0.627   5.786  15.656 -0.0744 -0.1074  0.0165
26363W        W42547   7.416   8.370  13.847  0.4058 -0.2855 -0.1902
26364W        W42548   3.897  12.973   0.622  0.2821 -0.0223  0.0832
26365W        W42549   2.747  16.814  14.978  0.2930  0.0923 -0.1283
26366W        W42550   9.922   3.102  13.727  0.3031  0.4481 -0.2311
26367W        W42551  14.615   4.983  14.937  0.1295  0.3292  0.0924
26368W        W42552   5.681   7.968  13.171  0.1526 -0.0003  0.1591
26369W        W42553  13.098   7.118  13.702 -0.0833  0.0604 -0.0332
26370W        W42554  11.716  16.892   2.544 -0.0638  0.1753 -0.1034
26371W        W42555  11.992   2.900  12.857  0.2402  0.0783  0.0991
26372W        W42556  14.031  14.565   0.080 -0.2991 -0.0024 -0.1908
26373W        W42557  10.648  12.519  12.275 -0.1845  0.3755  0.2273
26374W        W42558   5.283  10.694  14.179 -0.1590  0.1444  0.1330
26375W        W42559   5.359   8.174   3.784  0.2163 -0.2227  0.1731
26376W        W42560   1.158   4.638   4.773 -0.2073 -0.0341 -0.1959
26377W        W42561  15.826  11.825   3.559  0.0032 -0.0324 -0.0823
26378W        W42562   5.253   3.667  14.452  0.2215 -0.0748 -0.0442
26379W        W42563   9.660   4.753  15.871 -0.1821 -0.1957  0.3263
26380W        W42564  17.688   5.152   4.899  0.1027  0.0977 -0.0071
26381W        W42565   0.947  12.899   2.868  0.1909  0.2676 -0.4706
26382W        W42566  11.746   1.965   5.512  0.5083 -0.2831  0.1475
26383W        W42567  15.876  15.414   3.625  0.1946 -0.0745  0.2193
26384W        W42568  14.332   2.006  14.076  0.0099  0.1668 -0.1116
26385W        W42569   0.013  17.984   3.241 -0.2591  0.3238 -0.0240
26386W        W42570   8.998   4.164   2.196 -0.0505 -0.0589  0.0899
26387W        W42571   4.337   1.967   3.248 -0.0361  0.3181  0.0744
26388W        W42572  15.570  16.532  15.231  0.1345 -0.2096  0.1134
26389W        W42573   9.976  16.982   1.258  0.2247  0.2669  0.2904
26390W        W42574   8.144  10.889   3.183  0.1478 -0.1764  0.1809
26391W        W42575   2.470   5.544   4.943 -0.2686 -0.1737 -0.2610
26392W        W42576   0.702  15.767  13.851  0.1004 -0.2088  0.1715
26393W        W42577   3.650  13.132   1.038 -0.0184  0.0770  0.0830
26394W        W42578   5.864   4.412  14.152  0.1273  0.2821  0.1916
26395W        W42579  16.306   4.025  14.625 -0.1419 -0.0848  0.3043
26396W        W42580  12.835   5.164   2.073 -0.0318 -0.1069  0.1227
26397W        W42581   7.701  15.236  12.720  0.0287 -0.0914 -0.1835
26398W        W42582  11.067   2.081   3.000 -0.0094 -0.0508  0.3350
26399W        W42583   3.368  15.912  14.786  0.2155 -0.2330  0.1041
26400W        W42584  17.657   1.888  11.447  0.1579  0.1083 -0.1034
26401W        W42585   4.828  10.590  16.417 -0.1705  0.0345 -0.4224
26402W        W42586  12.739  11.294   4.322 -0.0933 -0.0546  0.0080
26403W        W42587   2.695  16.110  12.740 -0.2139 -0.0577 -0.1673
26404W        W42588   5.041  13.158   1.952  0.0553 -0.0854 -0.2475
26405W        W42589   4.464   3.316   4.813 -0.1550 -0.0262 -0.1837
26406W        W42590   2.290  11.443  12.668 -0.3103  0.0095 -0.3162
26407W        W42591   6.242   3.877  14.971  0.1354  0.0570 -0.1490
26408W        W42592   8.985   8.859  11.508 -0.0630 -0.2359  0.1573
26409W        W42593   9.898  16.677  11.948  0.0358 -0.0753  0.2351
26410W        W42594  13.996   9.063  11.955  0.1718 -0.3578 -0.1603
26411W        W42595   3.502  10.326   4.542 -0.1052  0.2445  0.2246
26412W        W42596   5.805  14.327   2.860  0.2095 -0.1891  0.1202
26413W        W42597   7.748  11.013   5.213 -0.1993 -0.1526 -0.0171
26414W        W42598   9.987  13.900  15.228  0.1172 -0.3666  0.1217
26415W        W42599   2.368  14.381  13.109  0.1125  0.2324 -0.2626
26416W        W42600   7.140   1.527   4.106  0.0572  0.0625  0.1005
26417W        W42601   7.371  11.763   1.105 -0.0697 -0.2742 -0.1540
26418W        W42602   1.787  15.603   2.117 -0.0383  0.2459  0.1558
26419W        W42603   9.817  12.965  11.859  0.0379  0.0811 -0.1027
26420W        W42604  15.782   7.501   1.082 -0.1389  0.0019  0.0791
26421W        W42605  15.645   1.925  13.137  0.0591 -0.0569  0.3056
26422W        W42606   9.650   2.572  12.881 -0.0684 -0.1760  0.0280
26423W        W42607   4.986   7.172  15.921  0.0625  0.0430  0.1308
26424W        W42608   8.657   0.974  13.184  0.0101  0.2509  0.2412
26425W        W42609  10.035   4.421   1.675  0.3692  0.1581 -0.0249
26426W        W42610  11.943   2.740   2.175 -0.3436  0.3164 -0.2706
26427W        W42611  16.434  14.261  11.989  0.0816 -0.1525  0.1473
26428W        W42612  12.689  12.795   3.177  0.2244 -0.0810  0.3796
26429W        W42613  16.045  15.925   3.855  0.2520  0.0985 -0.3594
26430W        W42614  16.158   7.531   6.010 -0.0220 -0.1455 -0.1677
26431W        W42615   9.868  16.743   2.195 -0.3234  0.3588 -0.0429
26432W        W42616  13.851  14.919  12.926 -0.1100 -0.0030 -0.1319
26433W        W42617   7.870   1.322  12.722  0.1714 -0.2086 -0.0925
26434W        W42618  13.098   3.963  13.379 -0.0529 -0.0507  0.1777
26435W        W42619   8.308   4.265  14.270 -0.2095  0.0616  0.0857
26436W        W42620   3.302  12.128   2.015 -0.4067 -0.3658 -0.2606
26437W        W42621  15.087   9.241   2.003  0.1551 -0.3559 -0.2590
26438W        W42622  10.892   4.117  13.713 -0.2204  0.0278  0.1038
26439W        W42623  12.738   3.402  10.731  0.0322  0.1422  0.1313
26440W        W42624  10.708  14.943  16.693  0.2803 -0.0521 -0.1673
26441W        W42625   3.026  16.257   0.709 -0.1997 -0.1242  0.2640
26442W        W42626   6.276   0.265  13.075  0.1153  0.0674  0.2658
26443W        W42627   4.896  16.434   0.650  0.1883  0.2537 -0.1043
26444W        W42628  13.084  16.022  14.993  0.2408  0.1065  0.0218
26445W        W42629  12.486  11.442   2.578  0.2079 -0.2600  0.2233
26446W        W42630  16.188   5.330  16.535 -0.1701  0.1550  0.2676
26447W        W42631  12.508   6.586   2.089 -0.1012  0.3344 -0.0569
26448W        W42632   4.490   4.790   5.604  0.2339  0.0591  0.1582
26449W        W42633   0.836  10.265  13.786 -0.1580 -0.0051 -0.3138
26450W        W42634   9.793   9.851  12.002  0.0916  0.2491 -0.0546
26451W        W42635   5.618   9.271   3.773  0.2989  0.1327  0.0160
26452W        W42636  15.089  16.861  14.410 -0.1126  0.2294  0.2173
26453W        W42637   7.442  14.228   1.721  0.1217 -0.0169  0.1652
26454W        W42638  10.271  14.619  16.057 -0.0093 -0.1529  0.2524
26455W        W42639   8.145   0.947  13.141  0.1346  0.1694 -0.0153
26456W        W42640   3.652   7.010  13.918  0.1394  0.0789 -0.2630
26457W        W42641   5.072   3.310  15.394 -0.1232 -0.0227  0.1108
26458W        W42642   6.925  17.162  12.740  0.0625  0.1926  0.4176
26459W        W42643  13.550   7.876  13.242  0.1605  0.0802  0.0013
26460W        W42644   1.216  13.451  12.362  0.0865 -0.0383 -0.1698
26461W        W42645  16.530  12.029   3.583  0.0552  0.0801  0.1179
26462W        W42646   1.331   5.715   1.383 -0.0907  0.0789  0.0197
26463W        W42647   0.776   8.029  14.363  0.1312  0.1194  0.0858
26464W        W42648  11.990  10.084   5.936  0.4109  0.0881 -0.1047
26465W        W42649   2.134   8.191  13.315  0.0402 -0.0853  0.2875
26466W        W42650   3.899  12.258   4.202 -0.1615  0.1389  0.1397
26467W        W42651  10.003   5.088   4.562 -0.2046 -0.0528  0.4905
26468W        W42652   4.181   0.198  11.737 -0.2953 -0.3151  0.0972
26469W        W42653  13.339  15.133   0.145 -0.0200 -0.0152 -0.0959
26470W        W42654  15.506   5.705   3.154  0.1586 -0.0200 -0.2138
26471W        W42655   0.319   5.752   0.222 -0.1308  0.3406  0.2159
26472W        W42656   4.775   4.415   0.408 -0.2302 -0.3239  0.0225
26473W        W42657   8.425   3.307   0.437 -0.0110  0.4197 -0.2100
26474W        W42658  15.277   7.145   4.119  0.2676 -0.0054  0.2920
26475W        W42659   3.350   4.743   3.295  0.0678 -0.0886 -0.0629
26476W        W42660  10.093  10.552  15.181  0.0807 -0.3512 -0.1684
26477W        W42661   9.687   5.936   5.190  0.1554  0.1916 -0.2546
26478W        W42662  14.648   3.560  13.125 -0.3584  0.1174  0.0429
26479W        W42663   7.355   9.720   0.377 -0.0652 -0.1899  0.1063
26480W        W42664   9.764  16.527   3.660  0.0287 -0.0422  0.2108
26481W        W42665  14.162  15.510  10.346  0.1669  0.2440  0.0864
26482W        W42666   6.993   9.259  13.959  0.2381 -0.1214 -0.3195
26483W        W42667   6.636  17.041   2.343 -0.0819  0.1163 -0.1822
26484W        W42668   9.126   2.511  12.907 -0.0735 -0.1760  0.1139
26485W        W42669  15.994   4.689  12.550 -0.2582 -0.1673 -0.1652
26486W        W42670   7.039   3.821   5.610 -0.1927  0.2447 -0.0732
26487W        W42671   8.996  17.076  16.314 -0.1696  0.2425  0.0394
26488W        W42672  17.499   3.363   5.456 -0.0855 -0.0800 -0.1920
26489W        W42673   9.538   1.700  14.667 -0.0706 -0.2555 -0.1498
26490W        W42674  12.062   6.649   2.795  0.1689  0.4330  0.0741
26491W        W42675  16.708  12.818  16.593  0.1082  0.0194  0.1818
26492W        W42676  16.400  11.387   0.992 -0.3405 -0.3586  0.0825
26493W        W42677   7.189   1.983   2.901  0.3866  0.0363  0.2238
26494W        W42678   8.610   6.338   1.399 -0.0017 -0.0680 -0.3226
26495W        W42679  17.614   3.338  15.838 -0.0962 -0.1948 -0.1631
26496W        W42680  12.535   7.411   0.825  0.1656  0.1728 -0.2213
26497W        W42681  16.976  15.027   4.208  0.1678 -0.0418 -0.2274
26498W        W42682  17.169   4.231  10.269  0.0524 -0.2276 -0.1250
26499W        W42683   7.032  10.002   0.609 -0.0992 -0.0925 -0.3567
26500W        W42684  15.609  16.931   0.162  0.1543 -0.0235  0.3102
26501W        W42685   3.879   4.342  12.925  0.2463  0.2595  0.1826
26502W        W42686   9.402   9.243   3.184 -0.1150 -0.2918  0.0315
26503W        W42687   5.747   3.799   4.725  0.1524  0.0554 -0.0811
26504W        W42688   6.660   0.912  14.327  0.0761 -0.1519 -0.0367
26505W        W42689  15.980   7.849   2.020 -0.2007  0.3200 -0.0253
26506W        W42690  14.248   3.659   1.277  0.1484 -0.5913 -0.1638
26507W        W42691  11.309  12.277  14.361 -0.4505 -0.0426  0.0545
26508W        W42692   1.031   4.807   1.255 -0.0290 -0.0788  0.2546
26509W        W42693  16.097  12.291  15.418  0.1458 -0.2166 -0.0035
26510W        W42694   8.913   4.276   2.669  0.0347  0.2050  0.2125
26511W        W42695  14.339  13.787   3.072 -0.1005  0.0244 -0.3212
26512W        W42696  11.355   6.607   1.532 -0.0829 -0.0561 -0.0910
26513W        W42697   9.355  15.923   5.815  0.0414 -0.2034  0.0389
26514W        W42698  10.732   0.647   1.605  0.0926  0.2221 -0.2204
26515W        W42699   5.286   1.439   2.595  0.5368 -0.4706  0.1742
26516W        W42700  12.071  10.386  12.048 -0.4006  0.0616 -0.2601
26517W        W42701   2.383   8.233  15.524  0.2085  0.0504 -0.3282
26518W        W42702   7.960   2.468  15.380  0.0969 -0.2665 -0.0740
26519W        W42703  11.149  17.487   4.649 -0.2517 -0.1859 -0.0079
26520W        W42704   8.348   9.469  16.668 -0.0073  0.2061 -0.2303
26521W        W42705  14.453   6.952   4.624 -0.1353 -0.0555  0.0786
26522W        W42706  16.516   2.031   4.891 -0.0307 -0.2622 -0.0608
26523W        W42707   8.184   7.571   0.570  0.1209  0.1752 -0.0430
26524W        W42708   7.090   2.457   2.761 -0.0924 -0.1682  0.1170
26525W        W42709  10.583   4.182  12.672  0.2659 -0.1051 -0.1036
26526W        W42710   1.501  14.572   5.807  0.0290  0.3416 -0.2964
26527W        W42711   9.038   3.160   4.578 -0.0275 -0.0381  0.0366
26528W        W42712  11.690  16.791   4.753  0.4584  0.4556  0.0045
26529W        W42713  13.871   9.789   0.835  0.1041  0.1396  0.0862
26530W        W42714   2.684   6.170   3.191  0.2705 -0.1478 -0.0709
26531W        W42715   4.069  11.596  11.935 -0.3131  0.0121 -0.0113
26532W        W42716  12.901  10.516  14.151  0.1096  0.2313  0.4425
26533W        W42717  13.034   7.384   5.267 -0.1521 -0.1748 -0.1945
26534W        W42718   1.224  17.534   2.608 -0.0378  0.1971  0.0646
26535W        W42719   1.978   9.097   2.298 -0.0769  0.0658 -0.1768
26536W        W42720   5.993   9.306  15.099  0.0991 -0.0490  0.0857
26537W        W42721   9.374   8.043   4.931 -0.2558  0.3333 -0.1289
26538W        W42722  16.727   5.420  12.405  0.2162 -0.0535  0.0638
26539W        W42723   9.961   7.578   3.446 -0.0907 -0.0296  0.2646
26540W        W42724  12.439   5.304   2.372 -0.0875 -0.2063  0.1141
26541W        W42725  11.667   1.470  16.615  0.1640 -0.2551  0.0552
26542W        W42726   2.132   7.017  14.728  0.2094  0.0968  0.3633
26543W        W42727  12.322  16.924  14.470  0.1198 -0.0638 -0.0158
26544W        W42728  16.795   4.771  14.169  0.2013 -0.0442 -0.0996
26545W        W42729   2.904   1.280  15.680  0.0785  0.0948 -0.0480
26546W        W42730  11.062  11.213  15.433  0.1542  0.1882  0.3387
26547W        W42731   2.937  17.455   0.117  0.1552 -0.1003  0.1952
26548W        W42732   5.347  15.120  14.979  0.2286  0.2458  0.1528
26549W        W42733   9.286  10.104  15.149 -0.1478 -0.0712  0.1704
26550W        W42734  11.227  15.569  13.943 -0.2169 -0.2970  0.2340
26551W        W42735  15.994  11.758  12.805 -0.0611 -0.1312  0.0251
26552W        W42736  12.741   3.243   3.265 -0.2093  0.0474 -0.2876
26553W        W42737  15.628  17.780   1.254 -0.2535 -0.0368 -0.1926
26554W        W42738  17.766   9.411  15.171 -0.1440  0.2106 -0.0456
26555W        W42739   6.957   5.961  14.433  0.1610  0.1117  0.1421
26556W        W42740   0.002   2.081   3.694  0.1667 -0.2981  0.1309
26557W        W42741   3.616  16.744  13.545 -0.0678  0.0640 -0.0493
26558W        W42742   3.614  10.678   5.478 -0.0903 -0.1051 -0.1346
26559W        W42743   3.690  12.381  14.655 -0.1649  0.0631  0.0362
26560W        W42744  14.245  14.804  14.127 -0.1148  0.2764  0.0446
26561W        W42745   5.123  13.236   1.085 -0.0497  0.1146 -0.1093
26562W        W42746   0.750   4.567   1.862  0.3025  0.0166  0.0699
26563W        W42747   4.641   8.084  14.661 -0.0532 -0.0226 -0.0355
26564W        W42748  12.062   0.745  15.515 -0.0504  0.0825  0.0049
26565W        W42749  16.814  12.842   0.797  0.1891 -0.0865 -0.0855
26566W        W42750   9.057  13.829  15.479 -0.0501 -0.1542 -0.0623
26567W        W42751  16.805  16.330   2.444 -0.3160  0.0799 -0.0656
26568W        W42752   2.351  10.509  13.745 -0.4894  0.1649 -0.1981
26569W        W42753   3.759   4.584   3.021  0.1709  0.0369  0.1127
26570W        W42754   1.998  15.377   5.953 -0.0334  0.0989 -0.1912
26571W        W42755  17.025   1.493   0.507  0.1536 -0.0036  0.0964
26572W        W42756   6.934  16.763   0.942  0.1671 -0.1140 -0.1364
26573W        W42757   3.523  13.164   3.828 -0.2722  0.0358 -0.2235
26574W        W42758   2.865   7.272  16.015 -0.0856  0.2480  0.2747
26575W        W42759  15.522   7.027  11.564 -0.2707  0.0258  0.1119
26576W        W42760  17.814  10.338  14.979  0.1353 -0.2442  0.1346
26577W        W42761   4.980   1.315  16.429  0.0846  0.1592 -0.0133
26578W        W42762   7.827   4.231   0.373  0.2405  0.2569 -0.0086
26579W        W42763  10.812  12.979   1.635  0.0048 -0.0784  0.1463
26580W        W42764  14.409  11.930  12.504  0.0282  0.0352 -0.0415
26581W        W42765  12.936  14.243   2.006  0.1487 -0.1662 -0.0032
26582W        W42766   8.334   3.806   3.864  0.2591 -0.0057  0.1490
26583W        W42767   2.516   9.818  12.557 -0.0576 -0.3913  0.0291
26584W        W42768   1.860   4.013  16.334 -0.3116  0.0344 -0.1383
26585W        W42769  10.210  16.012   5.271 -0.0761 -0.2031  0.0458
26586W        W42770   2.355   3.484   3.411 -0.2711  0.0362  0.1596
26587W        W42771   9.311  11.186   1.384 -0.2307  0.1096 -0.2374
26588W        W42772  10.731   2.352  13.032 -0.0077  0.1218  0.3536
26589W        W42773   7.808   5.373  14.116 -0.3372  0.5373 -0.0249
26590W        W42774   1.319   1.788  16.213 -0.3539  0.0957 -0.1722
26591W        W42775  10.816  14.718   3.041  0.1246  0.2661  0.0955
26592W        W42776   9.503  14.303   1.042  0.0650  0.0554 -0.1705
26593W        W42777   9.825   6.396  16.218  0.0791 -0.1172 -0.2628
26594W        W42778  11.878  14.344  15.660  0.0322  0.0762  0.1936
26595W        W42779   5.732  15.265   2.957  0.3705 -0.1197 -0.2577
26596W        W42780   5.024   8.870   1.932 -0.1942  0.1629  0.1749
26597W        W42781  17.377  17.923   2.733 -0.0340 -0.0663  0.1489
26598W        W42782   5.797   7.840  15.986  0.1074  0.1351 -0.1286
26599W        W42783   8.531  14.548  13.688  0.0042  0.4495  0.0971
26600W        W42784   6.632   8.386   0.313  0.1848 -0.1747  0.1295
26601W        W42785   2.104  17.413  13.202  0.0227 -0.1240  0.1645
26602W        W42786   4.118  17.562  14.603 -0.1845  0.1150 -0.1905
26603W        W42787  13.459  14.172  13.138 -0.0195  0.1031  0.2362
26604W        W42788  17.290   6.233   5.295 -0.0631 -0.1150  0.0035
26605W        W42789  13.959  12.080   1.051 -0.0417  0.2140 -0.0388
26606W        W42790   7.294   0.895   1.883 -0.1087 -0.3903  0.4130
26607W        W42791   6.304  11.757   2.126 -0.2598  0.1026 -0.1428
26608W        W42792   6.008  17.599   2.876  0.2809  0.0344 -0.0443
26609W        W42793   4.279   9.552   3.412 -0.1817 -0.0508 -0.0756
26610W        W42794  13.502   6.407   5.884 -0.2067  0.0823  0.1802
26611W        W42795   6.227   4.999   1.735 -0.1201  0.2680  0.1404
26612W        W42796  16.325  10.346  11.958 -0.0282  0.1616 -0.1969
26613W        W42797  14.088   2.487   0.966 -0.0518 -0.0547  0.1221
26614W        W42798  12.450  17.312  15.185 -0.2521  0.2207  0.3862
26615W        W42799  13.294   2.628  13.177  0.1656  0.0075 -0.2198
26616W        W42800   3.924   7.787   4.545 -0.0616  0.0679  0.0430
26617W        W42801  14.351  16.241   3.531 -0.3452 -0.0381  0.0047
26618W        W42802   4.529  10.432  16.022  0.3182 -0.0817 -0.1968
26619W        W42803   1.698   8.667   4.710  0.0704  0.1307  0.3579
26620W        W42804   2.542   0.814   5.246  0.0092  0.0837  0.3051
26621W        W42805  12.315   2.419   2.383 -0.1648 -0.1164 -0.0023
26622W        W42806  10.670   8.323  15.744  0.0360 -0.0582 -0.0645
26623W        W42807   4.044  15.782   1.443 -0.0634 -0.1402 -0.1056
26624W        W42808  13.142   6.309   1.292 -0.2896 -0.0017  0.0928
26625W        W42809   6.533  10.980  15.489  0.0574 -0.1004  0.2542
26626W        W42810   3.200   0.143   4.246 -0.1988 -0.1532 -0.0582
26627W        W42811   7.250   1.738  11.460 -0.0389 -0.1804 -0.0007
26628W        W42812  15.829  11.236   2.382  0.0895 -0.0754 -0.2142
26629W        W42813   2.380   3.823   3.848 -0.2568 -0.2170  0.0760
26630W        W42814   1.412  15.960   2.110 -0.3354  0.0278  0.1324
26631W        W42815  12.116   4.005   3.425 -0.0057 -0.0741 -0.1138
26632W        W42816  10.840  11.170  12.952 -0.0710  0.1406  0.0032
26633W        W42817   3.757  10.626   4.945 -0.2380  0.0670 -0.0159
26634W        W42818   1.667  16.248  13.413  0.0741  0.2577 -0.0447
26635W        W42819   2.632  13.825  11.474  0.0605  0.2340  0.0587
26636W        W42820  15.304  15.928  15.330  0.1131  0.0283 -0.1537
26637W        W42821  15.384   2.275  12.865  0.4072  0.0856  0.0171
26638W        W42822   3.558  13.372   4.580 -0.1185  0.1496 -0.0726
26639W        W42823   9.216   7.216  15.396  0.1395 -0.0446 -0.2623
26640W        W42824  14.909   9.468   2.480 -0.2654  0.4110  0.1365
26641W        W42825  16.550  17.908   0.764  0.2506  0.1433 -0.1955
26642W        W42826   8.503  16.635   3.469 -0.0174 -0.3636  0.0864
26643W        W42827   0.396   6.028   4.631 -0.0087  0.1131 -0.1833
26644W        W42828   6.342   7.744   6.448  0.0037 -0.2376 -0.0351
26645W        W42829   6.088  11.335   2.245 -0.1976  0.0128 -0.2211
26646W        W42830   5.895  12.089  12.464 -0.0653 -0.0442  0.1941
26647W        W42831  13.407  16.368  16.644 -0.1107  0.2361 -0.2026
26648W        W42832  13.737   8.829   2.317  0.2458  0.1051 -0.0234
26649W        W42833  11.613  17.263   4.824 -0.0807  0.0764  0.2117
26650W        W42834   8.384   1.456  15.731 -0.3887  0.2135  0.1790
26651W        W42835  10.681   6.129  15.854  0.0136 -0.0225 -0.1096
26652W        W42836   2.437   3.476  12.327 -0.0754  0.0794  0.1443
26653W        W42837   7.000   7.099  13.432  0.0033 -0.2248 -0.0173
26654W        W42838   5.846   7.698   3.128  0.1589 -0.2018 -0.1755
26655W        W42839  10.687  10.127   5.606  0.1224 -0.1640 -0.0682
26656W        W42840   3.453   5.327   2.444  0.2471  0.1526  0.0672
26657W        W42841  16.651  17.831  12.597  0.0578  0.0259 -0.2833
26658W        W42842  12.502   2.177   4.992 -0.0982 -0.1753 -0.2322
26659W        W42843  12.003   4.492   2.659 -0.1860  0.1181  0.2747
26660W        W42844  12.403   7.342  13.032  0.0673  0.1420 -0.1043
26661W        W42845   0.917  14.064   1.299  0.2903  0.2454  0.2272
26662W        W42846  14.444  10.283  12.457  0.0909 -0.2222  0.0825
26663W        W42847  11.815  17.172   0.266  0.1131  0.2119 -0.1583
26664W        W42848   1.653  15.985   1.528 -0.1408 -0.0698 -0.1461
26665W        W42849  12.049   3.980   3.907 -0.1040 -0.1459  0.0011
26666W        W42850   7.381  10.879   2.525  0.1992  0.0044  0.0156
26667W        W42851   3.433   9.229  13.135  0.0216 -0.0104  0.1845
26668W        W42852  16.202  15.304  14.352 -0.0307 -0.2999  0.0904
26669W        W42853   8.897   5.125  15.246  0.0859 -0.2454 -0.1217
26670W        W42854   9.826   5.177   5.517 -0.1248  0.0187  0.0625
26671W        W42855  12.472  15.032  10.920 -0.1833  0.4190 -0.0891
26672W        W42856  13.894  16.281  16.589 -0.0203  0.0263 -0.0311
26673W        W42857  13.362   6.737  13.345 -0.0487 -0.0950  0.1188
26674W        W42858   8.109  11.349   5.004  0.0205 -0.0327  0.0243
26675W        W42859   1.986  17.476  12.665 -0.2468  0.1016  0.0614
26676W        W42860  13.433   3.112   0.521 -0.0199  0.0961 -0.0019
26677W        W42861   9.493  12.093   2.507 -0.0035  0.1257 -0.0249
26678W        W42862   4.869  13.717   4.361 -0.0380  0.0298  0.1957
26679W        W42863   3.141   2.526  15.475 -0.0798 -0.0395  0.0756
26680W        W42864   6.811   6.237   1.496  0.2991 -0.0411  0.1919
26681W        W42865   4.079   3.283  11.650  0.3470 -0.0734  0.1289
26682W        W42866   9.376  10.860  12.718 -0.1828  0.0439  0.1590
26683W        W42867  14.278   7.069   1.266 -0.1708  0.2917 -0.3038
26684W        W42868   7.005   0.574  14.472 -0.1444 -0.1273  0.1324
26685W        W42869  13.764  10.903  11.851 -0.1590  0.4247  0.2031
26686W        W42870   3.139   1.287  15.161  0.0370  0.0334 -0.2980
26687W        W42871   8.239   8.109  13.447  0.3610  0.0354 -0.0181
26688W        W42872   1.638  11.562  14.722 -0.1121 -0.3099 -0.2055
26689W        W42873   4.595  15.120   3.106  0.0878 -0.2012  0.0028
26690W        W42874   6.347  10.403  14.376 -0.2458  0.0728 -0.2601
26691W        W42875   4.982   4.169  16.257 -0.1849  0.0098  0.0797
26692W        W42876   3.609   1.472  15.225 -0.2151 -0.0187 -0.1462
26693W        W42877   9.566   2.946   4.276 -0.0073  0.1024  0.1304
26694W        W42878   6.295  17.954   2.879  0.1399 -0.1677  0.2330
26695W        W42879  13.346  11.583   0.863  0.0116  0.2343  0.1646
26696W        W42880  12.941  10.731   5.070  0.3018 -0.0094  0.2364
26697W        W42881  12.914  11.380   3.418  0.0570 -0.1387 -0.0526
26698W        W42882  15.241   9.940  15.996 -0.2333 -0.1193 -0.2705
26699W        W42883   2.886   3.086  12.130 -0.0626  0.1456  0.0481
26700W        W42884  15.144  13.840  14.660 -0.1586 -0.0369  0.0903
26701W        W42885   7.012   5.845   4.695  0.0821  0.2744 -0.3718
26702W        W42886  15.636  12.902  15.816  0.0099  0.0248  0.0971
26703W        W42887   2.101   1.785  15.755  0.4664 -0.1545  0.1183
26704W        W42888  15.867  14.648   4.558 -0.0278  0.0152  0.0234
26705W        W42889  11.115  12.610   3.665 -0.0138 -0.0354  0.2414
26706W        W42890   1.099   8.150   6.161 -0.0762  0.1174  0.2415
26707W        W42891  10.107   9.562  13.826 -0.1847 -0.0311 -0.0879
26708W        W42892  12.781   7.450  13.758  0.1651  0.0621 -0.0442
26709W        W42893   7.175   6.633  15.772 -0.0694 -0.1859  0.1023
26710W        W42894   2.542   0.641   4.192  0.1557  0.1855 -0.0396
26711W        W42895   8.720   4.986  16.005 -0.1263 -0.2857 -0.3060
26712W        W42896  16.739  16.087   4.261 -0.2492  0.2078  0.1847
26713W        W42897   9.047  12.219   4.824 -0.0283 -0.1522  0.0273
26714W        W42898  11.195   2.899   0.132  0.0988 -0.0509  0.0279
26715W        W42899   6.243  12.003   4.798 -0.2360  0.0278  0.2401
26716W        W42900   6.156  12.777   3.097 -0.4124 -0.0849  0.2460
26717W        W42901  10.374  13.198  15.323 -0.2100 -0.0055  0.0406
26718W        W42902   0.444  10.973   1.554 -0.0099 -0.1935 -0.0966
26719W        W42903   6.116  10.120   0.874  0.3010  0.2050 -0.2003
26720W        W42904   8.498   3.473   5.163 -0.0149  0.0834  0.0322
26721W        W42905   1.472   8.438   2.745  0.1026  0.1246  0.1965
26722W        W42906   4.855   5.490   3.363 -0.0731 -0.0856 -0.1722
26723W        W42907   6.282  17.222   0.457  0.3680  0.1688 -0.0989
26724W        W42908  17.427   7.497   6.458 -0.0243 -0.1005 -0.3195
26725W        W42909  11.739   4.036   5.532  0.0110 -0.1653 -0.0437
26726W        W42910  16.730  16.093   1.931 -0.0552  0.0602 -0.0131
26727W        W42911   0.526  10.579   4.120 -0.2116 -0.2519  0.1366
26728W        W42912  15.295   7.830  12.112 -0.0058 -0.1600  0.0024
26729W        W42913  14.608   7.406  13.467 -0.1189 -0.2752  0.0029
26730W        W42914   6.357   7.415  16.641  0.0480  0.2895 -0.4364
26731W        W42915   1.507  11.734   4.130 -0.0408 -0.4550  0.2230
26732W        W42916   3.148  11.766   4.992 -0.1100 -0.0260  0.0745
26733W        W42917   0.723   1.721   5.556 -0.0120 -0.1171  0.1288
26734W        W42918  14.037  14.625   1.319 -0.3907  0.1474  0.1773
26735W        W42919  10.129  14.797   5.731 -0.1402  0.2866 -0.1614
26736W        W42920   4.257  12.954   2.532  0.0370  0.0363  0.1178
26737W        W42921  13.068   1.573   0.626 -0.0348 -0.0093 -0.1145
26738W        W42922  10.132  13.381   0.105  0.0424  0.0024 -0.0523
26739W        W42923   9.416   1.958   0.513 -0.1951 -0.0871  0.3469
26740W        W42924   0.705   0.303  16.485 -0.1831 -0.2383 -0.1583
26741W        W42925  17.447   6.822   1.508 -0.0354 -0.4044  0.2847
26742W        W42926   3.657   2.264  16.212  0.0607 -0.2052 -0.1273
26743W        W42927  12.989  14.537  14.428 -0.0592 -0.0747 -0.1006
26744W        W42928   9.129  10.194  12.797  0.0194  0.1168  0.0977
26745W        W42929  17.668  12.087  12.745  0.0907  0.2100  0.0254
26746W        W42930   2.154   2.114  14.818 -0.2256  0.0342  0.1324
26747W        W42931  10.542   7.075  11.259  0.3655  0.0748  0.0157
26748W        W42932   1.292   1.845   4.674  0.0098 -0.1567  0.0780
26749W        W42933   1.906  17.013  12.804  0.2924  0.1832  0.1595
26750W        W42934  11.557  12.842  14.843 -0.0431  0.1402  0.0095
26751W        W42935   1.035   9.898  15.807  0.2028 -0.0680  0.1095
26752W        W42936  16.638   9.895  13.047  0.1576 -0.0359 -0.2108
26753W        W42937  14.635   7.348   2.846 -0.2055  0.1425 -0.0787
26754W        W42938   3.283  14.604   0.340  0.0413 -0.0437  0.0046
26755W        W42939  15.352   2.635  14.984 -0.1945 -0.0917  0.0145
26756W        W42940   9.015  10.418   1.568 -0.1153 -0.1290  0.1252
26757W        W42941  11.914   4.023  11.975  0.6531  0.0999 -0.1305
26758W        W42942  10.736   8.843  14.810 -0.0658 -0.0309 -0.0383
26759W        W42943   1.955   1.690  16.465 -0.2127 -0.1869  0.0303
26760W        W42944  16.143   1.602  14.780  0.0351 -0.2036  0.1176
26761W        W42945   4.654   3.519  10.689 -0.0363  0.0390 -0.2181
26762W        W42946  17.972  16.296  14.502 -0.0296 -0.0365 -0.1028
26763W        W42947  17.569   9.842  13.692 -0.1633  0.2799 -0.1259
26764W        W42948   8.591  16.182   5.609  0.0968 -0.0222  0.1758
26765W        W42949  13.299  11.719  12.855 -0.0081 -0.1036  0.0288
26766W        W42950  11.122   4.498  12.248  0.0677 -0.0923  0.0486
26767W        W42951  11.908  14.384  14.315 -0.0989  0.1088 -0.2715
26768W        W42952   2.167   2.861  16.539 -0.0351  0.0323 -0.1574
26769W        W42953   3.915   6.015  15.989  0.0048  0.0290  0.0850
26770W        W42954  10.482  15.936   4.681 -0.0690 -0.1311  0.2015
26771W        W42955   2.773   3.339  14.665  0.1136  0.1533 -0.0411
26772W        W42956   5.219  14.349  15.754 -0.0091 -0.0993  0.1993
26773W        W42957  15.108  13.512  12.779  0.1394  0.0911  0.0130
26774W        W42958   2.371  10.330   4.956  0.0924 -0.1575 -0.2767
26775W        W42959  10.396   5.793  16.639  0.2981  0.0579  0.0293
26776W        W42960   7.708   3.510  12.665 -0.1139 -0.2902 -0.0905
26777W        W42961  12.942  10.116   0.275 -0.0297  0.3690  0.0800
26778W        W42962  17.883   7.406   4.862 -0.1509 -0.0495  0.0601
26779W        W42963   7.096  15.106  13.945 -0.2674  0.1830 -0.2388
26780W        W42964   9.512  15.645  15.512 -0.0677  0.0212  0.1589
26781W        W42965   4.800   6.997  14.073  0.0020  0.2510  0.0594
26782W        W42966   1.772  12.835   5.800 -0.0503 -0.0885 -0.1877
26783W        W42967   9.250   2.270   4.998  0.1619  0.4184  0.0013
26784W        W42968  13.390   5.782   0.595  0.2151  0.1485 -0.0106
26785W        W42969  16.058   1.117  12.549  0.0856  0.1874 -0.0255
26786W        W42970   8.317   5.523   2.584  0.2040 -0.1898  0.2662
26787W        W42971   7.157   2.876   3.066 -0.1308  0.2682 -0.0772
26788W        W42972   9.656   1.406   2.332 -0.0886 -0.0700  0.1904
26789W        W42973   7.431   6.158  13.546  0.0056  0.2135  0.0219
26790W        W42974   0.050   3.505  13.571 -0.0159  0.4591  0.0838
26791W        W42975   0.281   6.568  15.963 -0.4672  0.1208  0.1280
26792W        W42976   6.304   3.578   2.993  0.4011  0.0576  0.1601
26793W        W42977  11.025  17.082   5.242 -0.2775  0.3407  0.1647
26794W        W42978  11.031  17.920  15.947  0.0384  0.4686 -0.2685
26795W        W42979  10.293  10.911   2.712 -0.0340 -0.2560  0.0467
26796W        W42980   5.309  15.724   1.660  0.1917  0.1511  0.1067
26797W        W42981  15.451   7.430   3.685 -0.3494 -0.0198  0.1855
26798W        W42982   3.484   0.504  15.625 -0.0406  0.2424 -0.0762
26799W        W42983   4.490   3.074   3.031 -0.2084 -0.2382  0.2224
26800W        W42984  15.578   9.326  15.272 -0.0312  0.3221 -0.1399
26801W        W42985  14.972   2.597  11.741 -0.0946 -0.0256  0.0017
26802W        W42986  13.825   6.868   1.283 -0.0079  0.1069  0.2916
26803W        W42987  12.891   9.005   4.279  0.0550  0.1890  0.3996
26804W        W42988   4.659  16.995  14.301 -0.1822 -0.1024  0.0687
26805W        W42989  13.517   5.614   4.180 -0.0140 -0.2147  0.0306
26806W        W42990   6.394   9.899  16.095 -0.3708 -0.0028 -0.1259
26807W        W42991   6.783  12.111   3.607  0.1674 -0.2962 -0.3050
26808W        W42992   2.730  15.882   0.909  0.0741  0.2625 -0.0649
26809W        W42993  11.970  12.481   1.209  0.2550  0.1152 -0.0074
26810W        W42994   1.236  12.950   0.966 -0.2778 -0.2792 -0.0067
26811W        W42995  10.015   7.125  13.511  0.3450  0.1696 -0.2083
26812W        W42996   3.165  11.295  14.145 -0.1456 -0.1140 -0.1558
26813W        W42997   1.409   5.959  15.383 -0.1339  0.1879  0.4668
26814W        W42998  11.051  17.225  11.912  0.1064  0.0973 -0.0071
26815W        W42999   5.703  13.843  14.142  0.0708 -0.0199 -0.1587
26816W        W43000   1.358   2.712   2.108  0.1630  0.3222  0.4659
26817W        W43001  16.766   4.047   5.428 -0.0459 -0.1397  0.0784
26818W        W43002   9.665  16.270  15.638 -0.0088  0.1260  0.0358
26819W        W43003  11.260   0.666  16.069  0.2067 -0.1465 -0.2373
26820W        W43004  11.433   2.915  15.608  0.1940 -0.0232  0.2678
26821W        W43005  17.827  11.378   4.059  0.1441  0.1972  0.0212
26822W        W43006  12.524   3.987   1.491  0.2099 -0.2048 -0.0092
26823W        W43007  13.703   7.435   3.792  0.1470  0.0358  0.0289
26824W        W43008   6.061   1.538   3.539 -0.0022 -0.1293 -0.1023
26825W        W43009  15.356  10.375   0.283 -0.3339 -0.1577 -0.1881
26826W        W43010   1.207  15.151   0.959  0.0594 -0.3648  0.2317
26827W        W43011  12.853  11.944  11.875 -0.0490 -0.3797 -0.1942
26828W        W43012   8.200  16.579   3.927  0.1709 -0.0172  0.0007
26829W        W43013   4.241  17.516   5.072 -0.3158  0.2190 -0.1630
26830W        W43014  16.111   6.397  13.504  0.1204  0.3474  0.2310
26831W        W43015   5.532  10.620   5.576  0.1377 -0.2687  0.0355
26832W        W43016   8.335  11.060  14.696  0.1424 -0.0625 -0.1467
26833W        W43017   7.103  14.494   0.721 -0.0082  0.1689  0.0928
26834W        W43018   8.548  14.509  12.386 -0.2692 -0.0938  0.2098
26835W        W43019   4.580  13.097  14.774 -0.0565  0.2421  0.1340
26836W        W43020  15.996   2.978  11.936  0.2384 -0.0891  0.0543
26837W        W43021   3.622  17.625  16.163 -0.0551 -0.1490  0.1315
26838W        W43022   1.924  16.392  15.671 -0.0988 -0.0967  0.0051
26839W        W43023   7.057  14.289  15.274 -0.1651 -0.0212 -0.0833
26840W        W43024  10.757  10.998   1.335 -0.0242  0.3119  0.0600
26841W        W43025  12.552   7.860  12.889 -0.0864  0.1379  0.0137
26842W        W43026  15.402   9.462  15.864 -0.0354 -0.0618 -0.3061
26843W        W43027  14.746  13.636   0.599  0.0878  0.1894  0.1479
26844W        W43028   9.573  12.442  13.222  0.3187  0.0901  0.1536
26845W        W43029  10.387  16.717   2.283  0.1672  0.2690  0.1805
26846W        W43030  10.290  11.401  12.758  0.0028  0.0039  0.0060
26847W        W43031   7.977  11.696  12.931  0.0157  0.1601 -0.2162
26848W        W43032  16.817   0.552   2.382 -0.0770 -0.3648 -0.0059
26849W        W43033  11.145  14.285  14.330 -0.0720  0.0119  0.0411
26850W        W43034   8.580   3.311   4.648 -0.2724  0.1837  0.0458
26851W        W43035  14.016   5.590  13.740 -0.2777 -0.1194 -0.0785
26852W        W43036   0.551   2.014   3.791  0.2539  0.1024 -0.0460
26853W        W43037  11.292   0.240  15.682  0.1060  0.0774 -0.1079
26854W        W43038  10.921   1.574   5.398  0.2471 -0.1460 -0.0714
26855W        W43039   0.705   6.100  12.474  0.1386 -0.1248 -0.0040
26856W        W43040  10.323  10.002  15.248  0.1028 -0.0373  0.2308
26857W        W43041   2.648  16.859   2.813 -0.2449 -0.1705 -0.0316
26858W        W43042  17.508  13.027  16.022 -0.1165 -0.0641 -0.0578
26859W        W43043  10.607   2.908   2.059 -0.1361 -0.0602  0.3028
26860W        W43044   3.988  13.629   5.127 -0.2995  0.0262 -0.3939
26861W        W43045  16.343   3.605  13.245 -0.1488  0.0544 -0.2654
26862W        W43046  12.511  11.281   1.247  0.1369 -0.2807  0.0209
26863W        W43047  14.981   7.614  13.228  0.2903 -0.0076 -0.2922
26864W        W43048   5.384  16.088  13.950  0.1218  0.0310  0.2697
26865W        W43049  14.920  11.448  11.406 -0.1494  0.0545  0.4118
26866W        W43050   8.564  17.842   2.715  0.1377  0.0800 -0.1255
26867W        W43051   6.732  16.324   4.806  0.3564 -0.1300 -0.2484
26868W        W43052   8.194   3.916  11.712 -0.1430 -0.3789  0.3069
26869W        W43053   6.514  12.926  12.531  0.0577 -0.1979  0.1182
26870W        W43054   2.640   2.692   4.870  0.0936  0.3003  0.0680
26871W        W43055  12.900   6.179  11.685 -0.2917 -0.5554  0.1283
26872W        W43056   4.064   6.646   2.052 -0.1020 -0.2066 -0.0684
26873W        W43057   2.321  15.713   2.074  0.0370  0.0758 -0.0503
26874W        W43058  11.316   1.085   1.318  0.1683  0.1236 -0.0818
26875W        W43059   8.800  17.421   0.631 -0.0332  0.0858  0.0663
26876W        W43060   3.374  12.655  16.424  0.0886  0.0306 -0.2129
26877W        W43061   9.872   3.361   3.667  0.2721 -0.2421  0.1204
26878W        W43062   1.816  12.098  11.700  0.1624 -0.1364  0.2591
26879W        W43063  14.060   0.000  14.226  0.0225 -0.3386  0.1354
26880W        W43064   7.516   6.172   5.650  0.1503  0.1113 -0.0709
26881W        W43065  11.473   3.316   2.033 -0.1717 -0.0323 -0.0333
26882W        W43066  10.043   8.050   3.132  0.1222 -0.1103 -0.0120
26883W        W43067   8.095   5.978  16.205  0.0807  0.1566 -0.1457
26884W        W43068  16.119  14.280  13.052 -0.0030  0.2908 -0.2621
26885W        W43069  12.022  17.779   2.188  0.0423  0.0501  0.3330
26886W        W43070   3.881  12.698   3.888  0.0444  0.0556 -0.1006
26887W        W43071   8.146   9.341   5.730  0.1708  0.0192  0.0174
26888W        W43072   3.178   3.159  12.840 -0.2747  0.1211 -0.1325
26889W        W43073  14.797  15.770   0.047 -0.0823 -0.0000  0.1138
26890W        W43074  11.555   4.029  14.040  0.2218  0.0453  0.2961
26891W        W43075  15.485  17.655  12.588 -0.0840  0.0225 -0.0996
26892W        W43076   8.824   6.336  15.266 -0.1275  0.1969 -0.1714
26893W        W43077  12.911  10.868  16.361  0.0344 -0.1705  0.1197
26894W        W43078  17.655   6.586  15.602  0.0753  0.0056 -0.2104
26895W        W43079   1.817   4.910  14.120 -0.0460 -0.0419  0.0273
26896W        W43080   0.763  16.018   4.474 -0.1449  0.0099 -0.0847
26897W        W43081   6.819  16.955  15.932 -0.2393  0.2567  0.0775
26898W        W43082   7.553   3.341  10.578 -0.2009  0.0386 -0.0242
26899W        W43083  12.945   1.367   1.853 -0.4247 -0.1510 -0.0832
26900W        W43084   8.546  10.799   0.941 -0.1249  0.0777  0.0690
26901W        W43085   5.354   5.153   0.732 -0.0093  0.0204  0.2324
26902W        W43086   1.148  10.258   0.862  0.0618  0.1049  0.2938
26903W        W43087   4.334   7.152   4.806 -0.1086  0.0129  0.1438
26904W        W43088  16.451   3.733  16.474  0.1782  0.0324  0.1391
26905W        W43089   2.832   6.752  14.473 -0.2760 -0.1119 -0.1619
26906W        W43090   4.517  14.333  13.927  0.0053 -0.3710 -0.0261
26907W        W43091   3.044   0.281  15.169 -0.1755 -0.0467 -0.0833
26908W        W43092   4.556   8.917  13.383  0.1921  0.2488 -0.0407
26909W        W43093   0.373  13.084  15.082  0.2095  0.3658  0.1452
26910W        W43094  16.859   2.233  12.706 -0.0363  0.2834  0.3129
26911W        W43095   8.320   8.968   4.803 -0.1896 -0.1738  0.2349
26912W        W43096   1.304  16.596   2.852  0.0771 -0.4268  0.0713
26913W        W43097   2.014   8.639  12.684  0.1701 -0.1342 -0.0363
26914W        W43098   7.448  13.336   6.295 -0.1544  0.0557 -0.1932
26915W        W43099   1.365   6.813   2.478  0.1651  0.0561 -0.1122
26916W        W43100   2.183  12.944   0.539 -0.4329 -0.0575 -0.1221
26917W        W43101   0.825   0.759  13.580 -0.1411  0.0504  0.2176
26918W        W43102  14.789  13.152   0.452 -0.1776  0.0692  0.0892
26919W        W43103   6.598  14.674   1.951 -0.0098  0.0847  0.2792
26920W        W43104   4.240   7.942   0.499  0.0527 -0.0408 -0.3495
26921W        W43105   5.015  15.397   4.280  0.2086 -0.1501 -0.0584
26922W        W43106  13.467  11.548  12.404 -0.2790  0.0266  0.0968
26923W        W43107   6.601   0.867   3.688 -0.0259 -0.2565  0.0402
26924W        W43108   3.506   6.833   3.120 -0.0223 -0.1211 -0.2618
26925W        W43109   1.972   7.722  13.508  0.1734  0.0441  0.0204
26926W        W43110   5.060   7.706   5.267  0.0206 -0.0709  0.6109
26927W        W43111   1.302   6.938  11.225  0.0279  0.2140  0.1046
26928W        W43112  16.402   1.525   4.455  0.2911 -0.0110  0.0986
26929W        W43113   4.270   3.970  15.307 -0.3140 -0.2637 -0.3052
26930W        W43114   4.390   3.204   5.913  0.0563  0.1338  0.0474
26931W        W43115  10.676  16.796   0.194  0.1817  0.1908 -0.0061
26932W        W43116  12.984  14.561  12.118  0.0146  0.0446 -0.0085
26933W        W43117   4.829   8.828  14.064  0.0292  0.1668 -0.1503
26934W        W43118   5.031  10.302   0.714  0.2015 -0.0829  0.0581
26935W        W43119   9.246   4.845   2.749  0.0135 -0.0633  0.2876
26936W        W43120  11.975  16.122  16.343  0.2774  0.1176 -0.0459
26937W        W43121  12.301  17.316   2.065 -0.0264 -0.0382 -0.1256
26938W        W43122   2.733  11.717  16.505 -0.0807 -0.1138 -0.2040
26939W        W43123  10.729   9.291   1.336 -0.2588  0.0811  0.1653
26940W        W43124   9.984  16.805  12.802  0.6107 -0.1491  0.2639
26941W        W43125   1.137  11.982  15.705 -0.2553  0.1124  0.2964
26942W        W43126   2.466   8.154  14.174 -0.0820  0.0396 -0.4066
26943W        W43127   2.918  11.640   2.813  0.3408  0.0573 -0.2478
26944W        W43128  11.868  11.227  12.644 -0.2423  0.1807 -0.0725
26945W        W43129  17.677   3.708  15.022 -0.1655 -0.0947  0.2643
26946W        W43130   2.247  10.389   2.468 -0.1439 -0.0088  0.1893
26947W        W43131  14.561  15.185   4.297  0.0335  0.0093 -0.1306
26948W        W43132   9.673   4.784   1.653 -0.0811 -0.0219 -0.0229
26949W        W43133   3.433  14.724   2.512 -0.0430 -0.1100  0.2739
26950W        W43134  12.960  13.082   2.267 -0.1613 -0.1939  0.1231
26951W        W43135  12.188   9.004   2.559 -0.1730 -0.3515 -0.0844
26952W        W43136   5.556   5.488   5.571  0.0349  0.2543  0.1452
26953W        W43137  12.656   7.861  13.417  0.1992  0.1066  0.1165
26954W        W43138  17.454  17.918  11.744 -0.0318  0.4785  0.0921
26955W        W43139  17.408  10.849   4.570  0.1129  0.0059 -0.2303
26956W        W43140   0.468   3.677   2.625 -0.0326 -0.1525 -0.0184
26957W        W43141   7.799   0.703   0.668 -0.0166  0.0476  0.0894
26958W        W43142   5.438  16.874  13.444  0.4384  0.2038  0.2452
26959W        W43143  17.024   8.689   4.977 -0.0789  0.0001 -0.0136
26960W        W43144  16.136   8.552   4.489  0.1797 -0.1008  0.1782
26961W        W43145   1.831   6.331   5.603  0.2314  0.0519  0.2268
26962W        W43146  15.514   4.471  12.835 -0.1200 -0.1071 -0.2371
26963W        W43147  12.826   6.763  15.123  0.3229 -0.0516  0.1560
26964W        W43148  12.006  13.266   5.052 -0.0992  0.0598  0.0839
26965W        W43149   5.646  13.860   4.137 -0.3585  0.0912  0.2818
26966W        W43150  17.735   8.173  15.077  0.0758 -0.0900 -0.2356
26967W        W43151  17.347   4.621  13.500 -0.0362 -0.0590 -0.2390
26968W        W43152   7.872  15.624  11.508  0.3402 -0.2259 -0.1589
26969W        W43153  16.817   5.682   2.995 -0.4037  0.0716  0.1144
26970W        W43154  16.378   9.881  14.590  0.0952 -0.1218  0.3374
26971W        W43155   4.961  15.667   1.245  0.0316  0.0270  0.0148
26972W        W43156   4.457  17.494  16.546 -0.3335 -0.0554 -0.0500
26973W        W43157   8.008   0.803  12.612 -0.2870  0.3603 -0.0090
26974W        W43158   3.811   2.305  14.353 -0.0335 -0.1780 -0.0906
26975W        W43159  10.516   5.940  13.980  0.0201  0.2672 -0.0370
26976W        W43160   6.051   1.803  15.906  0.1499  0.0126  0.0652
26977W        W43161   4.219   0.706  11.513 -0.1775  0.2267  0.0887
26978W        W43162  16.660  11.569   1.992  0.1163 -0.0120 -0.0861
26979W        W43163  15.781  11.622   0.575  0.0050 -0.0912  0.1348
26980W        W43164   2.205   9.124   5.438  0.2339 -0.2798  0.1012
26981W        W43165  17.927  10.706  12.814 -0.0969 -0.0828  0.0349
26982W        W43166   8.116   7.693  13.895 -0.5061 -0.2559  0.1056
26983W        W43167  11.268  11.054   0.713 -0.0686  0.0036  0.2364
26984W        W43168  12.634   1.206  16.529  0.2546  0.1476  0.0436
26985W        W43169   9.273  15.962  12.814 -0.2219 -0.0189 -0.0782
26986W        W43170   4.980  12.469  14.230  0.2983 -0.1116 -0.4528
26987W        W43171  10.384   3.212   4.841 -0.1110 -0.1104  0.0270
26988W        W43172   7.459   8.209   1.004  0.1495  0.3347 -0.1500
26989W        W43173   8.487  14.084   4.323 -0.2504  0.0591  0.1468
26990W        W43174   4.945   6.439   1.048  0.1848  0.1460  0.2261
26991W        W43175   3.980   8.869   2.799 -0.2789 -0.3716 -0.1748
26992W        W43176   9.400   9.038  15.580 -0.2284 -0.0976  0.1843
26993W        W43177   5.163   8.429  15.735 -0.0538 -0.2943  0.1861
26994W        W43178   1.607   6.112   4.088  0.2035 -0.1247 -0.0452
26995W        W43179   9.474  10.749   5.596 -0.2662 -0.0259 -0.1699
26996W        W43180  11.918   4.644   2.074  0.1905  0.2602 -0.1983
26997W        W43181  11.003  16.133   2.843  0.2295  0.0661 -0.1179
26998W        W43182   1.843   9.275  15.724  0.1654 -0.2213  0.1626
26999W        W43183   5.395   8.105   1.670  0.2628 -0.3051  0.1571
27000W        W43184   1.463   9.099  12.077  0.2198 -0.1967  0.1889
27001W        W43185   0.478  12.928  13.813 -0.1053 -0.1812  0.0999
27002W        W43186  11.433   8.073   5.160 -0.3725  0.0236  0.0824
27003W        W43187  16.841   1.371  11.204 -0.0616 -0.0577 -0.0622
27004W        W43188  15.693  14.439   0.267 -0.1789 -0.0758 -0.2612
27005W        W43189   5.002  12.301   4.377  0.2175 -0.0225  0.3773
27006W        W43190  15.042  12.510  14.330 -0.1672  0.0884 -0.1821
27007W        W43191  17.835   9.023  13.987  0.2352  0.1306 -0.2920
27008W        W43192  11.026   0.773  16.572  0.1231 -0.0158  0.1252
27009W        W43193   1.560  15.918   5.204  0.1817 -0.0422  0.0748
27010W        W43194  11.206  12.193  11.812  0.1439  0.1064  0.0563
27011W        W43195  12.784  10.388   4.312 -0.0265  0.1494 -0.0812
27012W        W43196  14.151  13.634  12.369 -0.0656 -0.0675  0.0975
27013W        W43197   1.026   4.502  13.428  0.3889 -0.1734 -0.1721
27014W        W43198   9.368   7.630   4.033  0.2180 -0.1778  0.0048
27015W        W43199   5.612  10.933   0.387 -0.3160  0.0825 -0.2435
27016W        W43200   6.118  12.680  12.987 -0.2031  0.2404  0.0060
27017W        W43201   0.414  11.791  13.135  0.4189  0.1653  0.1199
27018W        W43202  16.440   9.652   0.368 -0.0625 -0.2636  0.0315
27019W        W43203  15.737  16.619  15.751  0.0043 -0.0398  0.0174
27020W        W43204   0.886   9.915   1.131 -0.0360  0.0982  0.2137
27021W        W43205  15.347  14.616   4.489 -0.1985 -0.0206  0.4284
27022W        W43206   5.062   4.539  16.695  0.2439  0.2537 -0.0249
27023W        W43207  14.482  17.752  14.033  0.0708  0.1261  0.0399
27024W        W43208   1.009  17.465  15.525  0.4158 -0.0976 -0.2884
27025W        W43209  15.399  17.430   1.668  0.1111  0.1752 -0.3386
27026W        W43210   9.747   1.772   4.356 -0.1428 -0.3721  0.1250
27027W        W43211  17.777   5.810  16.186  0.0914 -0.1601  0.3355
27028W        W43212   2.655   4.905  16.229  0.1851 -0.1891 -0.1166
27029W        W43213   7.457   3.787   5.311  0.0418 -0.1898  0.1313
27030W        W43214  15.483  14.641  14.497  0.2532  0.0342 -0.0945
27031W        W43215   7.378   5.609  16.412 -0.5942  0.3756  0.1067
27032W        W43216   2.099   8.842  12.203 -0.0726  0.1092 -0.1890
27033W        W43217   3.836  14.198  10.620 -0.1429 -0.1025  0.0108
27034W        W43218  17.575   3.523  12.754 -0.1703 -0.0420 -0.4191
27035W        W43219   7.976  13.686  14.524 -0.0454  0.0735  0.0017
27036W        W43220  11.172  12.753   0.272 -0.1024  0.0789 -0.0161
27037W        W43221  15.457   6.771  16.406  0.0128  0.1609 -0.0970
27038W        W43222   4.288  13.953   1.718 -0.1087 -0.2188  0.3186
27039W        W43223   4.557  16.615  11.628 -0.0190 -0.2011  0.0674
27040W        W43224   8.952   1.143   4.495  0.1685  0.1677  0.1734
27041W        W43225  13.383   4.112   4.067  0.1709 -0.0207  0.5862
27042W        W43226   2.778   5.847  14.462 -0.0596  0.0093  0.0390
27043W        W43227   2.162  10.886  14.100 -0.2170 -0.1584 -0.1209
27044W        W43228  10.925  15.693  13.043 -0.0593 -0.0357 -0.1582
27045W        W43229  15.439  10.376  16.114 -0.0019  0.0066 -0.1784
27046W        W43230  17.550   5.231  12.523  0.0594  0.2319  0.0253
27047W        W43231   4.796   4.792   1.613  0.1461  0.2314 -0.0327
27048W        W43232   5.580   2.027   4.842 -0.2984  0.2325 -0.0447
27049W        W43233   8.084  11.138  15.734 -0.0188  0.0640  0.0727
27050W        W43234   0.356  17.060   0.413 -0.0975 -0.1607 -0.1250
27051W        W43235  10.349   6.729   0.518  0.3401  0.4715  0.1409
27052W        W43236   8.305   0.398  13.334  0.2739 -0.1138 -0.1204
27053W        W43237   2.326   8.237   2.549  0.2439 -0.0093  0.3013
27054W        W43238   4.449   9.271  14.796 -0.3087 -0.0110 -0.0612
27055W        W43239   4.003   1.525  14.901 -0.0276 -0.0111 -0.2102
27056W        W43240   7.532   9.496  15.343 -0.0593 -0.0309  0.0120
27057W        W43241  10.489  13.242  16.302  0.2232 -0.0094  0.2500
27058W        W43242   1.290  16.687  11.324 -0.0458  0.3206 -0.3243
27059W        W43243  16.957  13.863  13.424  0.1373 -0.1020  0.1821
27060W        W43244   3.190   4.397  14.701 -0.1766  0.1603 -0.0258
27061W        W43245  10.725  16.816  13.223 -0.1057 -0.1119  0.3713
27062W        W43246  14.137   0.884  12.031  0.3476  0.0795  0.1062
27063W        W43247  15.320   2.288  16.633 -0.1746 -0.1874 -0.0469
27064W        W43248  10.638   8.920   0.922  0.0518  0.2213 -0.0781
27065W        W43249  13.959   4.278  11.734  0.0291  0.2495 -0.0618
27066W        W43250   3.575   3.803   3.450 -0.2204  0.2059  0.1316
27067W        W43251  16.757  15.397   3.319 -0.3404 -0.1297  0.1436
27068W        W43252   6.743  17.306  14.497  0.1377  0.3704 -0.1190
27069W        W43253   1.486  12.085  14.772  0.0342 -0.0479 -0.2673
27070W        W43254  16.787   1.067   0.649 -0.0906  0.1502  0.0571
27071W        W43255   1.397  12.998   4.924 -0.1644  0.0777 -0.0047
27072W        W43256  15.209   8.506   0.300  0.2379 -0.0863 -0.1223
27073W        W43257  17.245   8.346  15.226  0.0551 -0.0426  0.0625
27074W        W43258   1.594   0.212   1.291  0.3311 -0.1681 -0.3943
27075W        W43259   8.320  17.332   1.636 -0.0891 -0.0277 -0.1103
27076W        W43260  14.197  10.739   4.179  0.2823 -0.1222 -0.1513
27077W        W43261   9.773   2.126   4.772  0.0008 -0.2535  0.0321
27078W        W43262  11.376  13.388   3.687 -0.0091 -0.1654 -0.4176
27079W        W43263   8.772  12.031   3.977 -0.0659 -0.1518 -0.2996
27080W        W43264  10.879   7.305   4.676  0.2709 -0.1105 -0.0243
27081W        W43265   6.698   4.029  15.046 -0.2093  0.0745  0.3161
27082W        W43266  13.859   3.681  15.200  0.1019 -0.0134  0.0344
27083W        W43267  11.769  12.433   5.647  0.0556 -0.1642  0.2481
27084W        W43268   6.544   8.475  16.051  0.1768  0.1605 -0.1651
27085W        W43269   7.042  17.880  16.473 -0.1185  0.1330 -0.2231
27086W        W43270   1.326  15.801   4.372  0.0747  0.3153  0.1152
27087W        W43271   1.643   2.295   0.297  0.0600  0.1192 -0.0544
27088W        W43272   3.946  16.708  13.090 -0.3153 -0.0803 -0.0277
27089W        W43273   0.298  10.851  10.831 -0.2294  0.3768  0.1794
27090W        W43274   4.704  14.828   1.724 -0.0249 -0.1597 -0.2217
27091W        W43275  14.886  10.069  14.971 -0.1064  0.1695  0.0549
27092W        W43276   9.552   4.189   2.160 -0.1920 -0.3819  0.3899
27093W        W43277   1.252  13.654   2.523  0.0325  0.0175 -0.1986
27094W        W43278   0.865   4.965  11.458  0.3519 -0.0151 -0.0026
27095W        W43279   4.231   9.587  15.825 -0.1355  0.0823 -0.0321
27096W        W43280  16.575  14.510  12.364 -0.0988 -0.3824  0.0978
27097W        W43281   8.674  17.849  14.952 -0.1154  0.1276  0.0823
27098W        W43282   4.453  13.125  12.863  0.0692 -0.2007  0.0343
27099W        W43283  13.329  10.766  15.528  0.1649 -0.1142 -0.1929
27100W        W43284   2.399   9.968   0.475  0.1277  0.0682  0.3679
27101W        W43285  12.431  10.780  13.223  0.1544  0.2577  0.1287
27102W        W43286   3.236   9.313  12.619 -0.2275 -0.1426  0.2286
27103W        W43287   8.339   6.654   4.697 -0.2929  0.0739 -0.1276
27104W        W43288  16.900  13.842   4.487  0.0647  0.2691 -0.2737
27105W        W43289   8.257   1.224  11.725 -0.0490 -0.0906  0.0874
27106W        W43290   2.169   5.701  13.784 -0.2371  0.1573  0.0645
27107W        W43291   1.067  10.965   4.588  0.0072 -0.3114  0.0751
27108W        W43292   7.518   7.439   1.355 -0.0830  0.0391  0.1034
27109W        W43293   7.014   5.379  13.687  0.0058 -0.0699 -0.0883
27110W        W43294  11.792   3.529   1.052 -0.0661 -0.0034  0.4578
27111W        W43295   3.255   7.502  16.578 -0.3200 -0.0413 -0.1470
27112W        W43296  13.307  11.245  15.713 -0.1312  0.0265  0.1159
27113W        W43297  14.192   0.231   2.502 -0.0065  0.1004 -0.0720
27114W        W43298   7.637  11.953  11.318 -0.1531  0.0365 -0.3385
27115W        W43299   6.762   2.079   3.498  0.0138  0.1534 -0.0660
27116W        W43300  14.797   1.847  14.210 -0.1927 -0.2749 -0.2289
27117W        W43301   1.941   3.090  14.300 -0.2864  0.2271  0.0990
27118W        W43302  14.524   4.836  15.845  0.3237  0.0902 -0.1453
27119W        W43303   6.871   1.770   5.320  0.2537 -0.1577  0.2962
27120W        W43304   9.018  17.771  14.589  0.1521  0.0345  0.2521
27121W        W43305   0.519   4.531   3.142 -0.0308  0.4431  0.0008
27122W        W43306   6.029  16.613  12.022 -0.3812  0.3991  0.2409
27123W        W43307   9.179   1.966  16.027  0.0684  0.1776  0.1108
27124W        W43308   3.097   0.058   1.091  0.1105 -0.0489  0.1878
27125W        W43309  10.205  10.921  14.486 -0.1734 -0.4157  0.0070
27126W        W43310   7.760   9.319  12.398  0.0488  0.1615 -0.0455
27127W        W43311   0.446   0.851  15.623 -0.2662  0.1764  0.3047
27128W        W43312   4.440   5.879   1.810 -0.0563  0.0091 -0.0566
27129W        W43313   6.491  16.762  11.739  0.1091 -0.0704 -0.2836
27130W        W43314  15.245   3.541   2.857 -0.1050 -0.0767 -0.0445
27131W        W43315  11.475  11.012   5.243 -0.1382  0.0396 -0.1337
27132W        W43316   3.961   6.501   2.992 -0.1059  0.0203 -0.1630
27133W        W43317   0.965   7.007  14.911  0.1706 -0.0448 -0.0796
27134W        W43318  11.892  10.379  12.513  0.0422 -0.4762 -0.1913
27135W        W43319   9.531   7.675   0.200  0.1256  0.2777 -0.1640
27136W        W43320  14.818   6.889   4.963  0.1396  0.0253  0.2387
27137W        W43321   0.078  16.621   4.454  0.2558 -0.2906  0.1061
27138W        W43322   0.351  12.234   1.152 -0.1220  0.2085 -0.3881
27139W        W43323  17.914  11.965  12.272 -0.0058  0.0041 -0.1021
27140W        W43324  13.585   6.818  14.883 -0.1245  0.0169  0.2892
27141W        W43325   5.905  17.328  15.007  0.1365 -0.2690 -0.0259
27142W        W43326   5.687   6.850  15.612  0.0584  0.1274  0.0227
27143W        W43327  13.437  14.624   5.306 -0.0755  0.1601 -0.1465
27144W        W43328  12.592  13.195   1.203 -0.1009  0.0920 -0.0669
27145W        W43329   1.060  11.988   3.065  0.0194 -0.3186  0.3398
27146W        W43330   1.518  13.622   4.586  0.3491  0.2836 -0.0358
27147W        W43331  11.986  11.999  13.344 -0.2522 -0.0324  0.1003
27148W        W43332   4.737  15.233  12.213 -0.1147 -0.2893 -0.1336
27149W        W43333   5.824   0.851   1.910 -0.4864  0.0006 -0.1790
27150W        W43334   0.968   6.914   2.828  0.0262 -0.1843  0.1286
27151W        W43335   6.001   3.433   4.928  0.1215  0.2352  0.0262
27152W        W43336   1.688   5.626  13.070 -0.1304  0.1663  0.1233
27153W        W43337  10.980   2.458   4.786 -0.1317  0.1013  0.1811
27154W        W43338   9.447  17.014   2.400  0.2962 -0.3999  0.0867
27155W        W43339   8.188   0.162   2.912  0.2073  0.0629  0.0686
27156W        W43340   4.390   9.762   2.493 -0.1195 -0.0411  0.4337
27157W        W43341   1.629   5.971   5.060  0.0307 -0.1403  0.0315
27158W        W43342   7.517  13.000  11.792  0.1669 -0.2354 -0.0060
27159W        W43343   1.882   4.243   0.102 -0.0168 -0.1033  0.2177
27160W        W43344   2.128  10.076  12.750 -0.0220  0.1063  0.0088
27161W        W43345   8.587   6.875  16.195  0.1462  0.0734 -0.0744
27162W        W43346  17.797  17.023   0.334 -0.0071  0.0482 -0.2027
27163W        W43347   7.183   4.330  15.223 -0.0341 -0.3375  0.1819
27164W        W43348  15.906   0.005  15.197  0.0150  0.1044 -0.2189
27165W        W43349  11.383  15.646   2.427 -0.0736 -0.0264 -0.1366
27166W        W43350   5.274  13.002  14.938  0.0499  0.1920 -0.2938
27167W        W43351   4.455   1.622  12.268  0.0191  0.0397 -0.1859
27168W        W43352  13.426  13.533   1.520  0.0844 -0.3019 -0.0085
27169W        W43353   5.104   0.184   4.273 -0.1131  0.3430  0.2202
27170W        W43354   3.823   3.228  14.334  0.0023  0.1859 -0.0406
27171W        W43355  17.524   9.492   1.212 -0.1783 -0.4709 -0.0717
27172W        W43356   5.182   2.248  14.527 -0.2444  0.1392 -0.1105
27173W        W43357   7.182   1.085  15.267  0.0174 -0.2577  0.1535
27174W        W43358   4.549  15.837   5.494  0.2059 -0.1156  0.1749
27175W        W43359  14.221  12.762  14.815 -0.0449 -0.0230 -0.0478
27176W        W43360   1.322  14.195   2.615 -0.0026 -0.0668 -0.1222
27177W        W43361   1.404   8.124   5.801 -0.1541 -0.0767  0.0101
27178W        W43362  11.027   1.892  14.690  0.1266 -0.0754 -0.0195
27179W        W43363   2.081  14.038  16.136 -0.1520  0.2699  0.0443
27180W        W43364   8.210  16.861  11.611  0.1140 -0.0763 -0.3446
27181W        W43365   8.608   0.433  16.452 -0.1427 -0.0122  0.1055
27182W        W43366   3.501   2.405   5.389  0.1989  0.1146  0.0511
27183W        W43367   7.218  12.890  15.957  0.1842  0.0881 -0.0842
27184W        W43368  10.669  12.292   3.763  0.0313  0.0538  0.0368
27185W        W43369   9.239  15.220  15.448 -0.1124  0.2501 -0.0154
27186W        W43370   5.677  12.496   2.668 -0.2727  0.1422  0.2248
27187W        W43371  14.144   2.517   1.911  0.2360 -0.1191 -0.1622
27188W        W43372  13.776  16.734   3.728 -0.2807  0.1818 -0.1199
27189W        W43373   1.706  16.699  13.598  0.2417  0.1555 -0.2737
27190W        W43374   8.568   6.404   0.544  0.0475 -0.1704  0.0316
27191W        W43375   8.840   9.341   3.199  0.0585 -0.1041 -0.0645
27192W        W43376  14.098   8.691  14.104  0.0148  0.0841 -0.1367
27193W        W43377  10.901   5.307   5.402  0.0065 -0.0746 -0.1368
27194W        W43378  14.275  14.342  11.862  0.2346 -0.2065  0.0826
27195W        W43379  10.844   8.515   3.741  0.0070  0.2227 -0.2103
27196W        W43380   1.679   2.672  16.583  0.1215  0.5275  0.0303
27197W        W43381   3.977   0.317  14.219 -0.1298  0.2541  0.1445
27198W        W43382  17.638   7.559  12.414  0.3619  0.2848 -0.0201
27199W        W43383   4.551   5.589  11.737  0.0699  0.1246 -0.2032
27200W        W43384   9.212  13.531   3.224 -0.1201 -0.0227 -0.1392
27201W        W43385   4.543   8.735   2.520  0.3256 -0.0767 -0.4666
27202W        W43386   4.552   6.857  13.621  0.2920  0.1948 -0.0778
27203W        W43387   3.333  13.548   2.726  0.1863 -0.0349  0.1822
27204W        W43388  13.931   7.362   1.478 -0.1445  0.0773 -0.1258
27205W        W43389   3.089   2.692   4.642  0.0181 -0.0551 -0.0300
27206W        W43390   9.789   4.211  12.894 -0.1012 -0.2974  0.0713
27207W        W43391  12.158  11.058   2.392  0.2420  0.2221  0.0178
27208W        W43392   1.842   1.771  14.980 -0.0865 -0.0701 -0.0404
27209W        W43393   9.466  13.082   5.409  0.2366  0.0583 -0.2915
27210W        W43394   1.367  13.343  13.054 -0.1603  0.1890 -0.1320
27211W        W43395  14.934  17.384  14.796  0.1238  0.0318  0.2567
27212W        W43396  11.631   9.043  13.245 -0.3082  0.0217  0.0614
27213W        W43397  16.424  13.717   0.065  0.3048 -0.0577 -0.2596
27214W        W43398   8.311  13.923  13.289 -0.0300  0.0967 -0.1896
27215W        W43399   1.889   2.303   0.771 -0.1052 -0.1939  0.1556
27216W        W43400  10.590   9.630  15.446  0.1022  0.1160 -0.2001
27217W        W43401  10.813  16.060  14.202  0.1259 -0.1183  0.2504
27218W        W43402   5.923   6.573   2.477  0.0333  0.0572  0.1975
27219W        W43403  13.962  14.540   4.998  0.0432  0.1847  0.0455
27220W        W43404   0.233  10.640  15.031  0.0171 -0.1969 -0.1381
27221W        W43405  15.822  17.926  12.235 -0.1317 -0.0761 -0.0224
27222W        W43406   9.466   1.930   3.349  0.1668 -0.3291  0.1134
27223W        W43407   1.110  11.570  16.047 -0.0783 -0.1398  0.2011
27224W        W43408   7.110   7.598   1.966  0.2275  0.2479  0.1131
27225W        W43409   2.416  12.713  12.143 -0.1436 -0.1140  0.1954
27226W        W43410  15.052   0.845   3.907  0.0158  0.0187 -0.0831
27227W        W43411   1.236  13.156   3.803 -0.1616 -0.1725  0.0346
27228W        W43412   4.863   5.067  11.890 -0.1164 -0.3695 -0.0663
27229W        W43413   5.169  15.162   5.849  0.0210 -0.3207  0.0220
27230W        W43414   3.474  17.176   4.331  0.3490  0.0309 -0.2528
27231W        W43415  16.786   0.703   4.639 -0.0702  0.1068 -0.0410
27232W        W43416   7.130  12.164   5.415  0.1233  0.0616 -0.3650
27233W        W43417   3.839   8.367   1.302 -0.3816 -0.1262 -0.0502
27234W        W43418  10.389   5.847  11.629 -0.1427  0.1990  0.2404
27235W        W43419   7.577  15.100   3.285  0.1983  0.2342 -0.1453
27236W        W43420  17.114   3.553  15.178  0.2169 -0.1128  0.2876
27237W        W43421  10.447   1.118   3.230  0.2602 -0.1463  0.0839
27238W        W43422   4.747   4.830   3.027  0.0817 -0.0962 -0.0282
27239W        W43423   9.841  12.244   3.317  0.1446 -0.1744 -0.0297
27240W        W43424   9.522   6.540  14.594  0.1066 -0.3664  0.1117
27241W        W43425  12.802  11.850   4.924 -0.2664  0.0622  0.3096
27242W        W43426  11.753   0.242  12.019  0.1543  0.0684  0.1869
27243W        W43427  12.360  14.326  12.781 -0.0783  0.1341 -0.0712
27244W        W43428  14.746  13.789  12.977  0.0775  0.1460  0.1423
27245W        W43429   1.985  16.750  11.997  0.0553  0.0530 -0.0999
27246W        W43430  14.970   6.535   5.838  0.2495 -0.0317 -0.2437
27247W        W43431  12.550   3.002   3.644  0.1680 -0.1389  0.2916
27248W        W43432   4.872  12.296  12.739  0.3427  0.1906  0.0476
27249W        W43433   6.997   8.121   0.083  0.0725  0.1148 -0.0441
27250W        W43434  14.880   7.576   1.493  0.1900  0.0396 -0.2125
27251W        W43435   5.347  17.459   4.770 -0.1091  0.1527 -0.1135
27252W        W43436  10.759   6.621   0.877 -0.1602  0.1658 -0.0060
27253W        W43437  16.977   1.809  12.502 -0.0368 -0.1648  0.1975
27254W        W43438   1.198  12.817  15.161  0.0899 -0.3782  0.0183
27255W        W43439  13.052   1.987   4.925 -0.1157  0.0252  0.1263
27256W        W43440  16.469   7.752   5.753  0.1980  0.1443 -0.1011
27257W        W43441   7.981  12.378  11.538 -0.5128  0.4779  0.1957
27258W        W43442  10.844  17.140   4.777  0.1686 -0.0645  0.2530
27259W        W43443  15.914  15.406  12.997 -0.0029 -0.3252 -0.2583
27260W        W43444   7.851   4.812   1.846 -0.1052  0.2226  0.0262
27261W        W43445  13.471   3.911   3.604 -0.0795 -0.0099  0.0648
27262W        W43446  13.065   5.295   4.901  0.1515 -0.0540  0.0920
27263W        W43447   9.771  11.886  15.230  0.4072 -0.0828  0.2044
27264W        W43448   9.491  14.790  12.375 -0.5227  0.1616  0.0597
27265W        W43449   8.365   1.541   2.251  0.1148 -0.1278 -0.0186
27266W        W43450  15.060  16.405  13.093  0.3391 -0.0529  0.2267
27267W        W43451   5.870   7.480   6.506 -0.1702  0.0957 -0.0903
27268W        W43452  12.648   3.691  15.895 -0.0588  0.0410 -0.0637
27269W        W43453   3.727  10.147   1.879  0.1294 -0.0097 -0.0504
27270W        W43454  14.295   0.939   3.972  0.0819  0.0938 -0.4383
27271W        W43455  14.098  13.035  15.626  0.0545 -0.0623 -0.1929
27272W        W43456   1.495   3.152   0.411 -0.5448  0.0421  0.0057
27273W        W43457   3.914   8.390   0.520 -0.1330  0.1272 -0.0833
27274W        W43458  14.384   1.688   0.455  0.1339  0.2085 -0.1566
27275W        W43459  13.715  12.411  12.155  0.0913  0.0241 -0.0559
27276W        W43460  13.534   7.228   4.243 -0.1193 -0.1141  0.1100
27277W        W43461   4.216   2.583  13.723  0.0836  0.0683  0.1041
27278W        W43462   0.992   2.183  16.228 -0.0112  0.1052  0.2339
27279W        W43463   5.616  17.501  14.422 -0.0733 -0.1329  0.0266
27280W        W43464   6.498   3.825  15.426  0.1546 -0.1259 -0.1546
27281W        W43465   0.363   4.595  13.144  0.0804  0.1147  0.3072
27282W        W43466   8.871   2.640   0.247  0.0337  0.0107  0.3485
27283W        W43467  10.712  15.993   1.702  0.0708  0.1153 -0.1005
27284W        W43468  17.047   9.458  12.868 -0.3319  0.4439  0.1170
27285W        W43469  13.175   4.344  14.214  0.2156  0.0652  0.1570
27286W        W43470   9.813  17.716   3.784 -0.0076 -0.0451 -0.2648
27287W        W43471   5.380  15.495   4.810  0.2261 -0.0869  0.0134
27288W        W43472   1.796  13.005  13.057 -0.2100  0.0213 -0.1097
27289W        W43473  10.715  14.080  11.984  0.0851 -0.0602 -0.1186
27290W        W43474   0.625  11.515  16.202  0.1546 -0.1269 -0.0675
27291W        W43475  11.408  14.486   4.660 -0.2025 -0.1616  0.1807
27292W        W43476   2.277   7.464   0.852  0.1294 -0.1056 -0.0801
27293W        W43477   3.470  16.362   0.817  0.0685 -0.1135  0.2555
27294W        W43478   8.727  11.027  15.051 -0.2276  0.1565  0.0270
27295W        W43479   5.562  14.726  12.303  0.0023  0.1962 -0.1374
27296W        W43480   5.002  15.443  11.589 -0.0789  0.1263 -0.2565
27297W        W43481   1.050  16.062  14.632  0.3381 -0.2447 -0.2151
27298W        W43482   0.944   7.177  12.963  0.2333  0.0379 -0.2545
27299W        W43483  17.566   9.325   2.165  0.2162 -0.1310 -0.2986
27300W        W43484   4.104   9.216  13.909  0.0442  0.1296  0.2123
27301W        W43485   0.800   7.203  11.042  0.2547 -0.0301 -0.0914
27302W        W43486   5.735   2.160   1.464  0.2157 -0.1032  0.0828
27303W        W43487  12.136   8.681   0.308 -0.1805  0.0410  0.0195
27304W        W43488  15.000   3.440  11.557 -0.2121 -0.0857 -0.0910
27305W        W43489   8.331   7.299  13.275  0.0096  0.0975 -0.2226
27306W        W43490  15.832   7.254   4.888  0.1171 -0.1487 -0.0436
27307W        W43491  13.446  17.415  12.883  0.2390  0.1223  0.1465
27308W        W43492   3.633   9.428  14.722 -0.2707 -0.0961  0.1433
27309W        W43493  14.905   5.280   1.883 -0.2134 -0.1314 -0.1102
27310W        W43494   5.435   2.626  14.293 -0.1815 -0.1921 -0.0759
27311W        W43495  11.846  13.420   4.004  0.0966  0.2564 -0.0449
27312W        W43496   4.454   2.126   1.558  0.0666 -0.2025 -0.1448
27313W        W43497   8.832  12.271  13.702  0.1074 -0.0425 -0.0332
27314W        W43498   1.981  16.918   1.592 -0.1447 -0.0214 -0.0632
27315W        W43499   7.388   6.911  15.377 -0.2266 -0.0201  0.0343
27316W        W43500  13.806  16.071  15.238 -0.3418  0.1208  0.3427
27317W        W43501   0.389   4.029   3.769  0.2320 -0.2311 -0.0409
27318W        W43502   9.337   2.068   1.745 -0.0470  0.1924  0.0303
27319W        W43503  13.064  14.387  15.672 -0.1455 -0.4830 -0.1055
27320W        W43504  13.796  11.019  16.673  0.1007 -0.1988  0.0263
27321W        W43505  17.945  12.978  15.393  0.1768  0.1476 -0.0573
27322W        W43506   6.951  15.151   2.608  0.0158 -0.1839 -0.0035
27323W        W43507  17.295   1.894  15.009 -0.0786 -0.0388  0.2781
27324W        W43508   6.900  15.312  13.078 -0.0239 -0.2147  0.0495
27325W        W43509   8.330   5.868  13.925 -0.0177  0.1902 -0.0067
27326W        W43510  16.934   0.129  13.493  0.0617 -0.1059  0.1132
27327W        W43511   0.162  17.149  13.570  0.3631  0.2996 -0.1105
27328W        W43512   1.197   5.883   2.727 -0.6157 -0.1169 -0.0135
27329W        W43513   1.232   1.405   0.887  0.0412  0.0961 -0.3265
27330W        W43514   3.858  13.049   3.504 -0.3893 -0.2454 -0.0956
27331W        W43515   0.661  16.632   5.010 -0.1238  0.0662 -0.0429
27332W        W43516  13.331   0.725  13.697  0.0965  0.3769 -0.3568
27333W        W43517  13.250   3.385  16.359  0.1440  0.1094 -0.0138
27334W        W43518  12.545   3.241   4.108  0.3418 -0.0970  0.1066
27335W        W43519   8.013  13.641   4.875  0.2010 -0.0474 -0.2093
27336W        W43520  16.306   5.917  10.399  0.1339 -0.1755  0.2421
27337W        W43521   2.131  10.325  14.678 -0.2002  0.3311  0.1687
27338W        W43522  13.616   4.635  14.506  0.1462 -0.2303 -0.0527
27339W        W43523   6.858  17.457  16.701  0.3202  0.2166  0.1313
27340W        W43524  15.598  15.125   4.088 -0.2840  0.0372 -0.0921
27341W        W43525   0.591   3.549   3.527 -0.0597 -0.4577 -0.1544
27342W        W43526   9.044   0.252  12.806 -0.1361 -0.0654  0.2178
27343W        W43527  12.223   8.060  13.533 -0.0634  0.0216 -0.0421
27344W        W43528   0.091   8.467  11.153  0.0252 -0.1883 -0.1190
27345W        W43529   2.865   6.164  14.061 -0.2060  0.1206 -0.1289
27346W        W43530  11.718   9.505  12.463  0.2073  0.1014  0.0715
27347W        W43531  13.627   6.924   6.033 -0.0976  0.3784 -0.0499
27348W        W43532   1.281   3.081  16.597 -0.3866  0.0564  0.0750
27349W        W43533  15.995  13.240   2.249  0.0141  0.0444  0.0235
27350W        W43534  11.935   9.515   0.071  0.0364 -0.2910  0.1764
27351W        W43535   2.873   0.841   1.152 -0.0159 -0.0830 -0.0847
27352W        W43536  12.585  12.154   5.354  0.2283  0.0958  0.0396
27353W        W43537  16.605  15.411  16.670  0.3088 -0.1877  0.0121
27354W        W43538   0.609  16.040   1.136 -0.2319 -0.1451 -0.2552
27355W        W43539   0.899   3.874  12.259  0.1712  0.1314  0.2787
27356W        W43540   8.155  14.983   5.393  0.0792 -0.1021  0.0640
27357W        W43541   0.349   2.256   4.577  0.3292 -0.0189 -0.1069
27358W        W43542  15.455  17.806   3.088  0.1222 -0.1311  0.2054
27359W        W43543  17.217   7.654   0.968  0.0185  0.0069 -0.1497
27360W        W43544  13.404   1.232  13.654  0.3807  0.2243  0.0342
27361W        W43545   8.180   5.937  14.762  0.0441  0.3057 -0.3099
27362W        W43546   6.886  17.749  14.993 -0.1064  0.1259 -0.1586
27363W        W43547   9.105  14.449  14.221  0.1508  0.1405  0.0049
27364W        W43548  15.689   9.595  12.550 -0.1460  0.0883  0.0558
27365W        W43549  14.333   1.300  11.903 -0.0546  0.0538  0.0888
27366W        W43550   0.239   6.349  14.995  0.1195 -0.1873 -0.1287
27367W        W43551   5.714   3.818  12.078 -0.1081 -0.0783  0.0691
27368W        W43552  12.702  14.457  13.106 -0.0098 -0.0762  0.1097
27369W        W43553   0.412  15.737   4.247  0.0737  0.1109  0.2021
27370W        W43554   5.096   0.543  16.673  0.4079  0.4080 -0.0400
27371W        W43555  13.889  16.079  12.160  0.0262 -0.1769  0.1158
27372W        W43556   0.168  13.861  11.429  0.0323  0.3927 -0.1257
27373W        W43557   5.373   1.137   1.849  0.1844  0.0664 -0.2996
27374W        W43558   4.753   0.557  13.275  0.0401 -0.0609  0.3508
27375W        W43559  17.873   2.598  16.605  0.0291 -0.1334  0.0876
27376W        W43560   9.172   9.022   0.158  0.2350 -0.2173  0.0006
27377W        W43561  10.482   2.180  13.882 -0.1182  0.2315  0.0541
27378W        W43562  14.191   1.259   2.568 -0.3319 -0.0541 -0.3750
27379W        W43563   5.031   1.787  12.103  0.1593  0.0597  0.0730
27380W        W43564   9.196   3.150  13.639  0.0274  0.0332 -0.0450
27381W        W43565   0.746   9.902   5.282  0.2982 -0.1474 -0.2408
27382W        W43566  17.326   1.100  11.503  0.1695  0.1204 -0.0929
27383W        W43567   0.892  16.732  14.062  0.0353 -0.0234 -0.0370
27384W        W43568   6.511   1.315   3.387 -0.0774 -0.0748 -0.3423
27385W        W43569  17.288  10.358   4.683 -0.1535 -0.1023 -0.0151
27386W        W43570  15.644  10.669   0.742  0.1025 -0.1101  0.1125
27387W        W43571  10.607   5.480   2.035 -0.0076  0.1605 -0.1103
27388W        W43572   9.409  17.312   1.888  0.1179  0.0895 -0.0380
27389W        W43573  15.646  16.603  12.793 -0.0492  0.0844 -0.2653
27390W        W43574   8.300   9.737   1.926  0.0317 -0.2730  0.1460
27391W        W43575   6.399  16.968  12.231  0.0471  0.1373 -0.0951
27392W        W43576   8.308  16.809   1.285  0.1069  0.1059  0.0474
27393W        W43577   6.530  15.166   4.316  0.1492  0.0254  0.0203
27394W        W43578   5.164  15.123   2.531 -0.2531 -0.2737 -0.1807
27395W        W43579   2.717  11.077   4.988  0.0325  0.4779 -0.1618
27396W        W43580   9.886  10.738   1.235 -0.1355 -0.1220 -0.0322
27397W        W43581   6.832  11.376   0.664 -0.1913  0.1774  0.0855
27398W        W43582  12.599   3.892  13.515 -0.1245 -0.0241  0.0278
27399W        W43583  15.404   7.542   1.889 -0.1834 -0.0132 -0.0307
27400W        W43584   0.581  16.757   1.816  0.0337 -0.5220 -0.0919
27401W        W43585   5.154   9.960   0.246 -0.1626  0.1482 -0.1140
27402W        W43586  17.502   1.913  13.273  0.2744 -0.0850  0.1362
27403W        W43587  11.319  10.337   6.084  0.2502 -0.0111 -0.0864
27404W        W43588   4.059  17.774  15.553  0.1443 -0.0914  0.0501
27405W        W43589  14.967  14.557   5.109 -0.0568  0.1010  0.0130
27406W        W43590   9.412   9.677   4.342  0.0178  0.1617  0.0070
27407W        W43591  11.235   2.988  14.433 -0.0816  0.0132 -0.2026
27408W        W43592   5.854   0.281   1.332  0.0872 -0.2161  0.3939
27409W        W43593  14.815   2.588   1.121  0.1323 -0.1099  0.2029
27410W        W43594   9.348   5.922   3.221  0.0165  0.0905  0.1081
27411W        W43595  15.023   5.794   2.676  0.1494  0.2727 -0.1811
27412W        W43596   8.171   0.223  13.764  0.0307 -0.3688  0.0244
27413W        W43597  17.459  16.609   3.917  0.1077  0.1645  0.0332
27414W        W43598  14.269   8.147  14.994  0.1053  0.0583  0.2519
27415W        W43599  17.107  17.774  13.249 -0.0374 -0.5851  0.0555
27416W        W43600   3.511  10.841   3.557 -0.0334  0.1333  0.4016
27417W        W43601   7.916   6.346  15.883 -0.0424 -0.1006  0.1492
27418W        W43602   7.907   5.100  15.097 -0.0333 -0.0036  0.2133
27419W        W43603  16.209   1.605  12.546 -0.2028  0.0696  0.0101
27420W        W43604   2.416  13.932   3.202  0.0606 -0.0735 -0.0519
27421W        W43605   6.040   6.639  16.472  0.0595 -0.0040 -0.1939
27422W        W43606   4.744   0.756   1.347 -0.2363  0.0934 -0.1915
27423W        W43607   0.812   3.787   0.960 -0.0092 -0.2210 -0.0330
27424W        W43608  10.370   0.944   2.346  0.3621 -0.1163  0.0540
27425W        W43609   8.717   7.435  16.021 -0.0247  0.1507  0.0046
27426W        W43610   9.022  14.932   4.592  0.3158  0.1107  0.0315
27427W        W43611   1.510   3.475   4.219 -0.1088 -0.0413  0.1887
27428W        W43612   9.909  16.233   2.997  0.0121 -0.1777 -0.1543
27429W        W43613   0.109   6.309   1.304  0.0030 -0.1880  0.0605
27430W        W43614  11.725  15.037  16.207  0.0831 -0.0176 -0.3742
27431W        W43615   9.329   0.515   4.449  0.1629  0.0137 -0.2273
27432W        W43616   7.264  16.009  15.003  0.1410 -0.1987 -0.1145
27433W        W43617   7.757   0.337  14.490  0.1685  0.1164  0.3664
27434W        W43618   5.920   8.017  13.620  0.2948  0.0933  0.1704
27435W        W43619   1.943  15.251   0.473  0.2296  0.2770  0.0628
27436W        W43620  17.198   8.961   0.035 -0.0197  0.1120 -0.1774
27437W        W43621  15.211  16.222   3.120 -0.0071 -0.0306  0.2778
27438W        W43622   7.232   9.962  13.496  0.2040 -0.2713  0.0938
27439W        W43623  15.544  14.617  15.018 -0.0852  0.0403 -0.0063
27440W        W43624  17.024   4.136   4.375 -0.1183  0.3728  0.3916
27441W        W43625   7.185  17.804  13.834 -0.1073  0.0280  0.2027
27442W        W43626   1.256  13.910   0.022 -0.0108 -0.0509 -0.0504
27443W        W43627  17.595  13.922  15.807  0.0012  0.0132 -0.3634
27444W        W43628   3.463  13.425   5.065  0.0632  0.3947 -0.3791
27445W        W43629   6.619   1.219  13.810 -0.3378 -0.0250 -0.0167
27446W        W43630  16.305  15.323  12.694 -0.1328  0.1954  0.1565
27447W        W43631  17.258  16.024  15.167 -0.1095  0.1415 -0.2917
27448W        W43632   0.476   4.091  15.264 -0.0828 -0.0032 -0.5589
27449W        W43633  17.528   9.895  15.215  0.2579  0.3798 -0.0563
27450W        W43634  13.525   3.068  12.833 -0.2155  0.0983  0.0092
27451W        W43635  10.466  11.852   6.456 -0.1243  0.1231 -0.2797
27452W        W43636  17.373  14.996   0.465 -0.1322 -0.2089 -0.0746
27453W        W43637  14.171   4.389  13.474 -0.0319 -0.0775 -0.2348
27454W        W43638   4.268   7.765  14.918 -0.0582  0.1452  0.3755
27455W        W43639   2.977   4.380   3.270 -0.0134  0.0949  0.2230
27456W        W43640   9.316   2.888  12.596  0.2262 -0.0908  0.1091
27457W        W43641   0.115  11.811   4.230  0.2355 -0.0339  0.2400
27458W        W43642   2.155  16.627   1.082  0.0369  0.0784 -0.0353
27459W        W43643   4.387   1.181  14.457  0.0550 -0.2955 -0.2534
27460W        W43644  17.476  13.996   0.486  0.1448 -0.0568  0.1308
27461W        W43645   3.234  14.469  12.830  0.0175  0.2030 -0.3656
27462W        W43646   9.903  13.801   2.296 -0.2455 -0.1892  0.1506
27463W        W43647   4.682   3.760   5.040 -0.1729  0.0052  0.2327
27464W        W43648   3.455   5.395  14.646 -0.0833 -0.0413  0.0913
27465W        W43649  14.185   9.779   1.618  0.0965  0.3016 -0.0975
27466W        W43650   4.521   3.444   3.448 -0.2269 -0.2686  0.0609
27467W        W43651  12.539  13.297  13.292  0.0760 -0.0768 -0.2077
27468W        W43652   6.330   1.557  11.416 -0.0329 -0.1968 -0.3349
27469W        W43653   0.420   6.521  12.752 -0.1972  0.0057  0.0829
27470W        W43654  10.225   4.262   3.448 -0.3307 -0.1355  0.1022
27471W        W43655  16.496   8.308  16.414 -0.1291 -0.1126  0.0468
27472W        W43656   9.123  14.897  16.308  0.1040 -0.1128  0.2986
27473W        W43657   7.966   5.772   2.912 -0.4387 -0.0880  0.2116
27474W        W43658  12.841   3.484  13.393 -0.0119  0.0713  0.0521
27475W        W43659  10.456  14.041   1.070 -0.2830  0.2117  0.1741
27476W        W43660  10.610   8.376  14.034  0.3352  0.2842 -0.0878
27477W        W43661   0.693  17.184   0.983  0.3182  0.2630 -0.2626
27478W        W43662   9.191   6.824   4.542 -0.1188  0.3555 -0.1623
27479W        W43663  16.515  10.022  14.016 -0.0978 -0.0165  0.1854
27480W        W43664  12.169   6.029  12.785 -0.1609 -0.0198  0.3168
27481W        W43665  13.319   5.271   2.205  0.0688 -0.0389  0.1128
27482W        W43666  13.412  11.629   5.939 -0.2006 -0.2432  0.1400
27483W        W43667   9.814  12.116  14.653 -0.2422 -0.1552 -0.2201
27484W        W43668   3.096  12.138   4.598 -0.0816  0.0266 -0.0262
27485W        W43669   5.576  15.983   3.631  0.0267  0.0582  0.2515
27486W        W43670   6.715  17.242   0.756  0.2048  0.2538 -0.0799
27487W        W43671  11.641  17.092  14.811 -0.2587  0.0092  0.3190
27488W        W43672   0.241  13.966   5.041  0.2968  0.0330 -0.1154
27489W        W43673  10.718  15.231  14.636 -0.0061 -0.1400  0.2608
27490W        W43674  10.620   9.304  13.145  0.3001 -0.1290  0.0623
27491W        W43675   3.738  14.559   0.497  0.0348 -0.0521  0.0499
27492W        W43676  10.740   1.204   1.274  0.1943 -0.0886  0.0936
27493W        W43677   1.388  13.708  14.514  0.1091 -0.2077 -0.0409
27494W        W43678   9.433   4.033   4.589  0.1104 -0.2078  0.0004
27495W        W43679  15.539  13.673   4.002 -0.1410  0.3717 -0.0778
27496W        W43680   8.698   3.299   2.959  0.0720  0.1048  0.3814
27497W        W43681  10.825   9.626  14.204  0.2289  0.0194  0.1157
27498W        W43682  17.758  15.966  12.743 -0.1296  0.0776  0.0531
27499W        W43683   6.383   5.181  12.813 -0.0435 -0.0736 -0.0824
27500W        W43684   4.041  13.174   3.976  0.2414 -0.0957  0.1982
27501W        W43685  16.390  10.962  10.605  0.2585  0.1189  0.2207
27502W        W43686   5.806   6.450   2.962  0.1593  0.2987 -0.0009
27503W        W43687  13.828  15.578  12.034  0.3942  0.2323 -0.3825
27504W        W43688   8.721  12.495  13.189  0.1519  0.0291  0.3215
27505W        W43689   9.562   9.388  14.351 -0.0311 -0.1333 -0.3965
27506W        W43690  15.276   6.695  13.998 -0.0005 -0.0529  0.0131
27507W        W43691  17.145  16.888   4.313 -0.3060  0.2137  0.3852
27508W        W43692   8.952  13.277  16.215  0.0555  0.2327  0.3612
27509W        W43693  11.732  15.556  14.936  0.2765 -0.0946  0.0693
27510W        W43694   0.556   6.784  13.639  0.1026 -0.2365  0.1770
27511W        W43695  11.593  14.891   5.717 -0.2752  0.1382 -0.2075
27512W        W43696   9.314  11.252   4.208 -0.0322  0.1336 -0.1290
27513W        W43697   0.756  10.860  16.102 -0.4454  0.0272 -0.2539
27514W        W43698  13.469  15.430   5.309 -0.3523 -0.0300  0.1402
27515W        W43699   7.529   9.289   2.364  0.1006 -0.0457  0.1059
27516W        W43700  12.732   3.498   6.117 -0.0262  0.3230  0.0472
27517W        W43701  17.900   3.246  11.618 -0.1090  0.0189 -0.1751
27518W        W43702  14.693  16.317   2.478  0.0056  0.0065 -0.0388
27519W        W43703  14.525   4.189  13.156 -0.1405 -0.0452 -0.0645
27520W        W43704  13.320  11.107  16.555 -0.0806 -0.2928 -0.1477
27521W        W43705   3.263  10.690   4.264 -0.0058 -0.0897 -0.1667
27522W        W43706   7.874  11.270   5.837  0.0168  0.1717 -0.0647
27523W        W43707   0.879  16.297  12.165  0.1767  0.0401  0.3243
27524W        W43708   8.825   3.297   1.983  0.1005  0.1635  0.0602
27525W        W43709  14.124   3.377  15.872  0.2103  0.0921 -0.1277
27526W        W43710  10.152   4.434  16.123 -0.1299 -0.0826  0.2462
27527W        W43711   7.932   8.166   3.322 -0.1742 -0.0514  0.1717
27528W        W43712   6.161  13.209   2.840  0.1881  0.1778 -0.1548
27529W        W43713  12.914   8.063   2.833  0.2567 -0.1284  0.2812
27530W        W43714  10.802   7.140  14.912 -0.0184  0.3267  0.1209
27531W        W43715   4.684  17.881  14.374 -0.0373 -0.1168  0.2705
27532W        W43716   8.797   6.381   3.446  0.4897 -0.0246  0.1890
27533W        W43717   0.766   2.210  14.458  0.1342 -0.1517 -0.0395
27534W        W43718  15.099   3.450   3.965 -0.2198 -0.0489 -0.0694
27535W        W43719  10.534   3.647  15.313 -0.1823  0.2834  0.1689
27536W        W43720  11.538   4.548  12.582 -0.2513 -0.1837 -0.2390
27537W        W43721   0.071   7.348   0.876 -0.1366  0.1242  0.0770
27538W        W43722  10.866   7.133   3.427  0.0514  0.0690 -0.1018
27539W        W43723  13.651   9.514   2.993  0.2826  0.1082  0.0306
27540W        W43724   5.454   2.693   2.692 -0.0090  0.1151 -0.1377
27541W        W43725   2.881   4.480   5.053  0.0638  0.1942  0.1029
27542W        W43726   6.664  15.671   2.057 -0.2153  0.0153 -0.0523
27543W        W43727  13.651   6.424  12.979  0.0959 -0.1328  0.0117
27544W        W43728   3.302   7.281  13.730 -0.2313 -0.3311 -0.1315
27545W        W43729  13.493  17.797  12.156 -0.1036 -0.1028  0.0433
27546W        W43730   6.789  14.212   2.027  0.2801  0.0840  0.0545
27547W        W43731   4.605   3.422  12.669 -0.0304  0.3410 -0.1685
27548W        W43732   8.720   2.474  15.259  0.1916 -0.1398  0.2340
27549W        W43733   0.093   7.560   0.300 -0.0998  0.0423 -0.1621
27550W        W43734  14.759   7.673   0.955 -0.0999  0.0572  0.1805
27551W        W43735   9.548  15.551   5.504 -0.0228  0.0328 -0.0688
27552W        W43736   6.810  15.995   0.502  0.2447 -0.0143  0.1347
27553W        W43737   3.377  11.176   4.377 -0.0697  0.0420  0.1373
27554W        W43738   7.743  17.893   2.114  0.1933 -0.0698  0.0319
27555W        W43739   7.263  11.809  12.452  0.2474 -0.1002 -0.0585
27556W        W43740   4.125   4.595   2.124 -0.2296  0.3139  0.1181
27557W        W43741   5.517  11.522  13.981  0.1509 -0.0561 -0.1584
27558W        W43742  13.580  15.000   1.923  0.1155 -0.0022  0.0822
27559W        W43743   5.883  13.410   0.678  0.2046 -0.3918 -0.1157
27560W        W43744  14.545   6.718  11.472  0.1635  0.2300 -0.4280
27561W        W43745  13.599   8.532   4.703  0.0766 -0.1303 -0.1021
27562W        W43746  11.583  12.708   1.337 -0.2589  0.2599  0.1021
27563W        W43747   9.741   1.276  14.402 -0.2464  0.0139 -0.1327
27564W        W43748  15.661  16.683   3.370 -0.0494  0.0469  0.2088
27565W        W43749  11.846   2.397   2.979  0.1146  0.2218 -0.0478
27566W        W43750   3.665   2.853   0.219  0.0505 -0.0746  0.1218
27567W        W43751  16.024   8.666   4.994  0.1494 -0.0174 -0.3198
27568W        W43752  12.304   2.997  14.723 -0.1987 -0.0574  0.3900
27569W        W43753   5.025   6.056   1.812  0.3028 -0.2560  0.1433
27570W        W43754  17.380   1.981  14.470 -0.1229 -0.3214  0.2123
27571W        W43755   7.741   5.232   0.525  0.2330  0.3174 -0.1716
27572W        W43756   0.852  15.705  10.505 -0.1218 -0.1304  0.1421
27573W        W43757   8.418   3.233  11.638  0.1944 -0.0163  0.0945
27574W        W43758   7.573  16.691  15.964  0.1176 -0.2277  0.1522
27575W        W43759   2.764  12.119   2.576  0.2801  0.3174 -0.0921
27576W        W43760  17.364   8.510  11.507  0.2852  0.2871 -0.1569
27577W        W43761   5.827  10.120   4.043  0.1348 -0.0411  0.2620
27578W        W43762  14.188  12.986  13.591  0.0646  0.2235  0.0578
27579W        W43763  12.912  16.148  12.985 -0.0283 -0.0071  0.0904
27580W        W43764   2.609   4.932   0.022 -0.1430 -0.0151  0.0505
27581W        W43765  14.254  15.273  12.104 -0.1428  0.1009 -0.0733
27582W        W43766   5.120   0.653   1.020  0.0038  0.0109  0.0397
27583W        W43767  16.083   7.049   5.285 -0.1080  0.1497 -0.1680
27584W        W43768   3.987   2.457   0.044 -0.1423 -0.1281 -0.3896
27585W        W43769   3.722  16.046  10.088  0.0898  0.0151  0.0772
27586W        W43770   5.982  13.711  13.401  0.0532 -0.2195 -0.0916
27587W        W43771   7.023  13.217   6.080  0.0735 -0.2082  0.2386
27588W        W43772  12.289   9.998  11.828  0.2638 -0.0212  0.3393
27589W        W43773  14.726   5.232   2.757 -0.3292 -0.1064 -0.0427
27590W        W43774   2.959   3.493   4.997  0.0188 -0.1274 -0.2904
27591W        W43775   5.426   3.764   0.229  0.0165 -0.0320  0.0693
27592W        W43776   2.369   6.657   4.113 -0.0136  0.1708 -0.0850
27593W        W43777   3.189  10.370  14.691  0.2511 -0.0335 -0.3223
27594W        W43778   6.634   0.085   5.688  0.1071  0.1543 -0.2333
27595W        W43779   5.400  10.322  15.253  0.1169 -0.2744  0.1642
27596W        W43780  15.117  11.743  13.236 -0.0546  0.0268 -0.0457
27597W        W43781   7.898   5.311   2.409 -0.0662  0.1740 -0.3425
27598W        W43782   1.564  14.500  13.529  0.0333 -0.0369  0.0923
27599W        W43783   3.490   8.644   1.506  0.0226 -0.1835 -0.1366
27600W        W43784   6.049   1.390  12.245 -0.1156  0.0922 -0.0046
27601W        W43785   8.638   3.095   6.528 -0.1620  0.1790 -0.1699
27602W        W43786   1.781   6.125   6.392 -0.2956  0.1776  0.2917
27603W        W43787  17.815   9.705   0.367 -0.2153 -0.1215 -0.2232
27604W        W43788  16.764   4.381  12.024  0.0864 -0.2177  0.1530
27605W        W43789  16.001   7.854  11.521 -0.2347  0.1310 -0.0705
27606W        W43790  14.779  16.974  12.046  0.0345 -0.2507 -0.1947
27607W        W43791   0.750  15.312  12.022 -0.0412  0.0816 -0.0641
27608W        W43792  17.067  15.266   1.922  0.1359 -0.0642 -0.0109
27609W        W43793  14.357  15.250  15.443 -0.0692 -0.1747 -0.3427
27610W        W43794   3.250   9.254  12.119 -0.1290  0.1059  0.2254
27611W        W43795   7.846  14.906  15.929  0.1142 -0.0286  0.4380
27612W        W43796   0.273  15.166   2.943  0.1856  0.0815 -0.0887
27613W        W43797  12.334   9.807   1.705 -0.1360 -0.0976 -0.2056
27614W        W43798  12.197  16.692   2.630 -0.1326 -0.1197  0.1595
27615W        W43799   4.658   8.013   1.644  0.4374  0.0740  0.2524
27616W        W43800  10.412   7.763   3.016 -0.0457 -0.0046 -0.3261
27617W        W43801   0.582  12.299  15.391  0.0891  0.1442  0.0456
27618W        W43802  16.816  12.500   1.883 -0.2238  0.1628  0.4179
27619W        W43803   9.205  10.555  14.394  0.1422 -0.1477 -0.2064
27620W        W43804   7.298  15.799  16.247 -0.1292  0.1719  0.0677
27621W        W43805  10.325   4.129   4.861 -0.1815 -0.0156  0.1483
27622W        W43806  12.309  14.992   3.863  0.0536  0.0503  0.0097
27623W        W43807   1.171   4.454  12.696 -0.3196 -0.0773 -0.0013
27624W        W43808   0.598   0.594   0.939  0.1307 -0.1661  0.0515
27625W        W43809   6.773  12.201  12.609  0.0429  0.0395  0.1162
27626W        W43810   4.179  10.497  15.655 -0.3407  0.5424 -0.3838
27627W        W43811  17.270  12.159  14.983  0.0006  0.1281  0.2107
27628W        W43812   6.918   4.663   3.923  0.0516  0.0486 -0.0522
27629W        W43813  15.673  15.355   5.114  0.1640  0.0064  0.0590
27630W        W43814   2.089   4.251  14.678 -0.3185 -0.0886 -0.0661
27631W        W43815  14.858   0.987  13.343 -0.2176  0.2268  0.1009
27632W        W43816   2.580   5.326   3.655  0.0461  0.4533 -0.1121
27633W        W43817  12.945   8.583  12.790  0.0864  0.1022  0.2260
27634W        W43818   0.603   3.644  16.253 -0.1070  0.2548  0.0845
27635W        W43819   8.319   4.707   1.104 -0.1053 -0.0428  0.2106
27636W        W43820   2.297  16.360   3.774 -0.0613 -0.0979 -0.0968
27637W        W43821   0.609  11.559  13.571  0.2071  0.0121 -0.0981
27638W        W43822  15.265  10.353   2.439 -0.2263 -0.0167 -0.1208
27639W        W43823  16.701  17.072   4.449  0.1187 -0.0415  0.0928
27640W        W43824  17.392   8.677   2.148  0.2171  0.1568 -0.1169
27641W        W43825  10.511  15.331  12.689 -0.3456  0.2161  0.1288
27642W        W43826  17.992   5.078   0.242  0.0105  0.0168  0.0269
27643W        W43827  11.511   9.854   1.634  0.0367  0.0459  0.0771
27644W        W43828   5.645  12.083   0.307  0.2017 -0.1074 -0.2078
27645W        W43829   7.723   8.627   3.260  0.1652  0.1431  0.0742
27646W        W43830  13.749   7.361  14.447 -0.0729  0.0312  0.1134
27647W        W43831   7.656   5.229  12.154  0.0717  0.3917  0.0694
27648W        W43832  11.931   0.645   0.233  0.0091 -0.0562 -0.0177
27649W        W43833   4.077  13.909   1.195  0.0204  0.2633 -0.2006
27650W        W43834   5.883   2.715  13.974  0.0256  0.1452  0.0795
27651W        W43835   8.003   3.231  14.916  0.1332  0.1593  0.0126
27652W        W43836   4.872   4.560   4.918 -0.0231  0.3661 -0.0792
27653W        W43837   1.572   7.626   4.660  0.2842 -0.0686  0.0177
27654W        W43838   5.232  13.255   2.943 -0.0007 -0.0941 -0.0060
27655W        W43839  11.112  12.017   3.819  0.0197 -0.1031 -0.2699
27656W        W43840  15.062   4.507  12.545 -0.0247 -0.1478  0.1314
27657W        W43841  16.288   3.385   3.454 -0.2203 -0.0740 -0.2564
27658W        W43842  15.241   9.827   3.388 -0.0513  0.4859 -0.2018
27659W        W43843   8.847   3.398  16.359 -0.2426 -0.1446 -0.1829
27660W        W43844  13.929  15.926   2.205 -0.0349 -0.1360 -0.0797
27661W        W43845  13.437  13.366   0.140  0.0930 -0.1194 -0.0420
27662W        W43846   0.570   8.371  15.216  0.0968  0.1760 -0.1748
27663W        W43847   0.083  13.330   6.060  0.2266  0.0449  0.1780
27664W        W43848  13.565   7.955   3.937  0.0460 -0.2026 -0.2463
27665W        W43849   2.721  10.907   0.247  0.1988 -0.4178 -0.2439
27666W        W43850  14.394   0.255  13.978  0.2319 -0.2829  0.1932
27667W        W43851   8.985  11.674   6.662 -0.1496 -0.0981 -0.2016
27668W        W43852  17.671   0.763  11.876 -0.1037  0.2075  0.2889
27669W        W43853   5.991  10.338   0.387  0.0892  0.0077 -0.0099
27670W        W43854  12.842   6.138   4.558 -0.0239 -0.0236 -0.0245
27671W        W43855   1.379   4.545   2.799 -0.0914  0.0534  0.2104
27672W        W43856   5.240  17.914   5.539 -0.1768 -0.1736 -0.0728
27673W        W43857  11.836  17.466  12.410  0.1093  0.0826 -0.1356
27674W        W43858  13.082   5.624   5.339  0.2286  0.0812 -0.1577
27675W        W43859  11.857  12.102  12.542 -0.0507 -0.2584  0.2197
27676W        W43860   4.642   6.323  11.999  0.2334 -0.1364  0.0745
27677W        W43861  17.056   4.247   0.725  0.0575 -0.3603 -0.1360
27678W        W43862  14.060   0.252   1.635  0.3591 -0.4687  0.0194
27679W        W43863  12.229   6.447   5.048 -0.1468  0.0433 -0.2360
27680W        W43864   3.210   1.359   4.642 -0.0239  0.0632  0.0480
27681W        W43865  12.374   6.062   3.451  0.3777  0.2039  0.1661
27682W        W43866   2.773  10.737   5.988 -0.0554 -0.1050  0.0934
27683W        W43867  17.874  16.591  11.843  0.1871  0.1521  0.0069
27684W        W43868   6.425  14.169  15.608  0.2576 -0.0447  0.0544
27685W        W43869   8.772   2.845   3.765 -0.0432 -0.0252  0.0258
27686W        W43870   9.265   9.711  15.487 -0.0607  0.0953  0.1033
27687W        W43871  15.002   4.354   4.888 -0.1246 -0.0196  0.3215
27688W        W43872  11.565  13.860   1.733  0.2533 -0.0895  0.0111
27689W        W43873  12.458   5.418  11.963 -0.2176  0.2834  0.2354
27690W        W43874   3.219   5.268  12.972  0.0042 -0.0162 -0.0475
27691W        W43875   2.978  11.897   5.408  0.0905 -0.3907  0.0927
27692W        W43876  13.275  10.255  14.012 -0.0261  0.0103 -0.2543
27693W        W43877   2.891   2.078   2.974 -0.1987 -0.0250  0.1515
27694W        W43878   1.946   2.445  13.705  0.2030 -0.1526  0.0612
27695W        W43879  11.897   4.418   4.857 -0.1718  0.0947 -0.1137
27696W        W43880   3.774   1.067   2.569  0.2723 -0.0535  0.0164
27697W        W43881  16.502  17.871  13.934 -0.1361 -0.1257  0.1588
27698W        W43882   4.591   5.863  12.188  0.1295  0.1617  0.0124
27699W        W43883  17.593   1.618  14.121 -0.0877  0.0779 -0.2047
27700W        W43884   7.981  13.148  12.708  0.2007  0.3693  0.0021
27701W        W43885   0.240  12.737   1.092  0.0040 -0.0638 -0.4060
27702W        W43886  11.926  17.528  15.146  0.0878 -0.1050 -0.1655
27703W        W43887   6.857  14.836  11.860 -0.0596  0.1220 -0.1203
27704W        W43888   1.402  11.224  12.796  0.1584 -0.0640 -0.0476
27705W        W43889   7.321  10.818   0.442 -0.0325  0.2493  0.0341
27706W        W43890  14.844  12.947   0.000  0.1054  0.0270 -0.1880
27707W        W43891   7.459   2.363   5.122 -0.0486  0.2415 -0.0167
27708W        W43892  16.833  14.525   1.495 -0.1745  0.0153  0.1326
27709W        W43893  10.830   9.090  15.678  0.2237 -0.0835  0.1424
27710W        W43894  14.079  17.564   5.343 -0.0832 -0.0433 -0.2010
27711W        W43895  17.139   5.548  15.165  0.0195  0.0400 -0.0892
27712W        W43896  15.043   6.913  16.638  0.2095  0.0651 -0.2510
27713W        W43897   8.387   6.078  15.225  0.0705 -0.1095  0.0115
27714W        W43898  16.135   2.427  14.224  0.1140 -0.1941 -0.0442
27715W        W43899   5.631   9.021   3.293  0.3365  0.0916  0.1278
27716W        W43900  17.884  15.202   5.341  0.3351  0.1844  0.3220
27717W        W43901  13.327  14.930  13.742 -0.0093  0.1204 -0.0894
27718W        W43902  14.911   9.442   0.130 -0.3457 -0.0420  0.2097
27719W        W43903   6.447  10.560   4.604 -0.0686  0.1282  0.2524
27720W        W43904  15.918   0.598  15.155 -0.3771  0.0645 -0.0786
27721W        W43905  11.574   6.316   2.028  0.1336  0.3379 -0.0943
27722W        W43906   5.613  15.890  15.428 -0.0111 -0.0184 -0.1406
27723W        W43907  11.973   4.728   1.484  0.1680 -0.1349 -0.0739
27724W        W43908  16.966   7.793   3.723 -0.0022 -0.3912  0.1201
27725W        W43909  12.957  16.371   3.411 -0.0656 -0.1229 -0.2935
27726W        W43910   4.443   8.131  16.442 -0.2526  0.2699  0.1840
27727W        W43911   2.390   2.426   5.797  0.6887 -0.1841  0.3280
27728W        W43912   8.373   1.646   1.753 -0.0075  0.2568  0.2791
27729W        W43913  10.764   7.280   4.184  0.3044  0.0022  0.1312
27730W        W43914  12.716   7.811  11.624 -0.0972 -0.3799  0.0925
27731W        W43915  14.070  15.530  14.198  0.1884 -0.0435 -0.1325
27732W        W43916  13.846   4.737   4.375 -0.1900  0.0201  0.1594
27733W        W43917   3.564   7.801   4.070  0.1780 -0.1549  0.0666
27734W        W43918  10.436  10.513   4.831 -0.0002 -0.0889 -0.1438
27735W        W43919  14.651   5.550  15.413 -0.0199 -0.0031  0.0557
27736W        W43920   5.355  13.045  11.693  0.0842 -0.2116 -0.2717
27737W        W43921  14.830  14.786  16.168  0.0314 -0.0368  0.3521
27738W        W43922  17.743   2.772  15.672  0.1323  0.3765 -0.1583
27739W        W43923  16.488  11.728  12.692  0.2067 -0.2907 -0.0697
27740W        W43924   1.849  10.911   5.325 -0.0325  0.0536 -0.2496
27741W        W43925  15.435   6.720  12.489  0.0095 -0.1586 -0.1027
27742W        W43926  14.259   7.216  16.423 -0.2215 -0.0702  0.2815
27743W        W43927  12.534  13.071   5.921  0.0064  0.1536  0.1740
27744W        W43928  14.622   8.459   3.180 -0.0010  0.1348  0.0206
27745W        W43929  13.755   7.193  11.687  0.1406 -0.2475  0.2207
27746W        W43930   6.324   0.136  11.474 -0.1381  0.0417  0.1812
27747W        W43931  13.514   7.640   5.166  0.2267  0.1506  0.0268
27748W        W43932   8.109  10.854  12.326  0.0119  0.1123 -0.2338
27749W        W43933   9.543  12.104   5.725 -0.0919  0.1251 -0.2509
27750W        W43934   5.091   6.732  13.747 -0.2658  0.2711  0.1610
27751W        W43935   7.435  10.114  12.824 -0.0791  0.0591 -0.1346
27752W        W43936  13.356  12.139  16.111  0.2014 -0.1589 -0.0565
27753W        W43937   9.981  11.258  12.026  0.0873 -0.2555 -0.3068
27754W        W43938  15.203  16.296   1.356  0.2021 -0.1395 -0.4492
27755W        W43939  17.916  14.235   5.606  0.2035  0.1755 -0.0276
27756W        W43940  14.925   5.684   0.972 -0.0608  0.1173  0.1621
27757W        W43941  17.410  10.943   2.870 -0.2151 -0.2722  0.1038
27758W        W43942  15.523   5.992  14.239  0.2652 -0.1443 -0.1928
27759W        W43943   6.204  14.194  12.722 -0.3102 -0.0785  0.0419
27760W        W43944   1.841   9.681   5.231 -0.0154  0.1747  0.1333
27761W        W43945   4.598  16.469  12.574  0.1222 -0.1684  0.0547
27762W        W43946   1.444   6.854  14.995  0.0039  0.0732  0.0092
27763W        W43947  13.967   2.279  13.287  0.0630  0.0094 -0.2375
27764W        W43948  13.878  15.078  14.402 -0.0476  0.0069  0.3348
27765W        W43949   5.141  14.564  11.303 -0.1022 -0.0039  0.2913
27766W        W43950   3.692   6.766   5.467  0.2022  0.1098 -0.0026
27767W        W43951  12.479   9.575   5.266  0.1215  0.1604  0.1607
27768W        W43952  16.045   0.498   5.372 -0.4031 -0.1546 -0.2781
27769W        W43953   1.473  10.189  16.095 -0.3491  0.2267 -0.0994
27770W        W43954  15.116   2.902  13.486 -0.3032  0.0478  0.1056
27771W        W43955   9.736   3.202   1.766 -0.3014  0.1295 -0.1050
27772W        W43956  10.237  13.575   0.814 -0.4040  0.1376  0.0106
27773W        W43957   5.308  10.026   5.039 -0.1419 -0.2048 -0.0275
27774W        W43958   5.127   3.220  11.963 -0.2969 -0.0291  0.1299
27775W        W43959   7.552   1.015  14.882  0.4513 -0.2424  0.0668
27776W        W43960  10.370   5.535   3.356  0.1305  0.1678 -0.0346
27777W        W43961  13.805  15.027  12.116  0.2365  0.1132 -0.4666
27778W        W43962  17.813  12.677  13.332  0.3264  0.0186 -0.2451
27779W        W43963   4.350  14.886  12.011  0.2017  0.2172  0.1808
27780W        W43964   2.725   0.106   0.609  0.2093 -0.0052 -0.2435
27781W        W43965   3.728  10.518   3.991 -0.2033  0.1730 -0.1063
27782W        W43966  10.434   2.983   2.976  0.2130 -0.1509 -0.2149
27783W        W43967   9.559  15.457   3.528  0.3383 -0.2132  0.3759
27784W        W43968  15.993  12.599   1.853 -0.1693  0.0027 -0.0032
27785W        W43969  13.524   0.631   5.163  0.0457 -0.1940  0.2522
27786W        W43970  10.327  15.346   3.889 -0.3483  0.0179  0.0375
27787W        W43971  11.212  12.475   2.321  0.1589  0.0939  0.0988
27788W        W43972  11.183   7.615   4.266 -0.0925  0.1180 -0.1876
27789W        W43973  17.587  12.357  12.358 -0.0490  0.1077 -0.0698
27790W        W43974   9.726   1.155  15.470 -0.1917 -0.0965 -0.0466
27791W        W43975  10.663   2.181  14.912  0.0456  0.2418 -0.1662
27792W        W43976   1.291  16.421  14.903 -0.1356 -0.0785 -0.2064
27793W        W43977   8.246  14.687  16.232  0.0048 -0.0069  0.1012
27794W        W43978  14.495  17.301  16.250 -0.0169 -0.0018 -0.0826
27795W        W43979   3.661  13.280  14.801  0.0329 -0.0236 -0.1452
27796W        W43980  17.563  11.109  12.031 -0.0349  0.4315 -0.3297
27797W        W43981  12.556  14.540  11.836 -0.0610 -0.1115 -0.1598
27798W        W43982   3.963   4.087   2.138  0.1672  0.0335  0.3908
27799W        W43983   8.294  13.471  13.569  0.0802  0.1667  0.0696
27800W        W43984  10.804   7.529  13.247  0.0737  0.2566 -0.0799
27801W        W43985   4.243  14.477   1.997 -0.3268  0.0152 -0.1296
27802W        W43986   5.021  15.299   2.940  0.1418  0.1918  0.3992
27803W        W43987   5.374   3.415   1.965 -0.0939 -0.1448  0.2457
27804W        W43988  10.688   3.168  11.697 -0.1351 -0.0790 -0.2006
27805W        W43989   1.289  15.606   3.892  0.1596  0.2333  0.0407
27806W        W43990   1.306   9.770   1.945 -0.0566  0.0357  0.0930
27807W        W43991   2.853  10.685  13.889  0.1195  0.0185 -0.0378
27808W        W43992  14.754  13.011  15.917 -0.1340  0.2615 -0.0143
27809W        W43993   0.718   4.191   4.092  0.1744  0.1011 -0.0266
27810W        W43994  13.025  12.573   2.920 -0.0594  0.0167  0.2625
27811W        W43995  11.973  14.489  13.765  0.1172  0.2473 -0.1944
27812W        W43996   2.182   7.418   3.180  0.0366  0.0146 -0.2828
27813W        W43997  10.377   0.222  11.898 -0.1629  0.3066  0.3102
27814W        W43998   3.929   9.481  15.401  0.2038  0.0608  0.0008
27815W        W43999  14.045  14.314  16.354 -0.0844  0.2933  0.0134
27816W        W44000  17.471   9.334  12.485  0.1104 -0.0882  0.1457
27817W        W44001  10.387  12.173   3.372 -0.1769  0.1023  0.0511
27818W        W44002   7.880   3.324  14.258 -0.0647  0.1172 -0.0987
27819W        W44003   4.951   9.107  14.611  0.3604  0.0158  0.1136
27820W        W44004  15.486   7.630  12.562  0.4968 -0.3988 -0.0725
27821W        W44005   8.767   4.645   1.417  0.1317 -0.0559 -0.2561
27822W        W44006  15.205   8.167  12.539 -0.3004  0.2476 -0.0755
27823W        W44007   1.378   5.111  13.936 -0.1910 -0.3450 -0.0725
27824W        W44008   3.473  11.085  12.268 -0.0436  0.1426  0.0167
27825W        W44009  16.746   7.488   4.586  0.1572  0.0734  0.1884
27826W        W44010   7.427   5.633  13.775 -0.0581  0.0293  0.3490
27827W        W44011   0.156   6.973   4.696 -0.1348 -0.0355 -0.0838
27828W        W44012   4.824   2.246   1.233  0.3056 -0.2725 -0.2252
27829W        W44013   3.599   4.632  16.507 -0.0179 -0.1876 -0.1183
27830W        W44014  11.336  13.905  16.128 -0.0448  0.1556  0.2989
27831W        W44015  10.379   5.161   1.421  0.0833  0.0042 -0.1726
27832W        W44016   2.027  15.368  15.714 -0.1274 -0.1923 -0.0689
27833W        W44017   2.689   6.513   4.582  0.0406 -0.1379  0.2522
27834W        W44018   3.799  14.289  14.637  0.0889  0.1631  0.0151
27835W        W44019   3.332   5.171   1.321  0.0166 -0.0189  0.1046
27836W        W44020  15.385  14.258  13.553  0.0139 -0.0341 -0.0340
27837W        W44021  10.569   3.198   2.496  0.0597  0.1986  0.1798
27838W        W44022  11.256  13.864   5.181  0.2470  0.0265 -0.0583
27839W        W44023   2.011   9.454   3.050  0.2470 -0.1527 -0.1759
27840W        W44024  16.935   2.264  14.786  0.0587  0.1176 -0.2057
27841W        W44025  13.533  16.250   2.128  0.0935 -0.1407 -0.0541
27842W        W44026   3.408  14.250   4.550  0.1144 -0.0243 -0.1983
27843W        W44027   4.807  13.853   1.638  0.1810 -0.3092  0.4762
27844W        W44028  14.831   1.671   0.256  0.1327 -0.1389 -0.2904
27845W        W44029   4.423  15.976  14.942 -0.2246 -0.0793  0.2260
27846W        W44030  14.093  15.737   3.507 -0.2729 -0.1065  0.0614
27847W        W44031   2.126   2.562   4.702  0.0867  0.2472  0.1786
27848W        W44032  11.308  13.079  15.673 -0.1750 -0.0312  0.2110
27849W        W44033  14.662  12.813  12.499  0.0698  0.1868  0.4068
27850W        W44034   1.655   3.353   3.762  0.0307  0.0355 -0.0348
27851W        W44035  11.932  12.371  12.991 -0.0616 -0.3221  0.5239
27852W        W44036  15.453   2.764   0.014  0.1911 -0.0492  0.1566
27853W        W44037   8.745   7.169   4.617 -0.1205  0.1783 -0.1330
27854W        W44038  11.158   2.395  12.143  0.0592  0.1324  0.1796
27855W        W44039  14.257  14.892  12.477  0.2618 -0.2015 -0.1699
27856W        W44040  17.996   5.551   4.912 -0.0016 -0.2732  0.0819
27857W        W44041  10.840   6.192   3.103 -0.3271 -0.0061  0.0133
27858W        W44042   9.872  13.770   0.440  0.1453  0.0749 -0.1797
27859W        W44043  14.256  12.164  11.367  0.1482  0.0723  0.0527
27860W        W44044   5.213   2.014   0.144 -0.2475 -0.0429  0.3211
27861W        W44045  17.170   2.198  11.442 -0.1017  0.2230 -0.0582
27862W        W44046   3.721  17.172  11.714 -0.0577 -0.1653 -0.1071
27863W        W44047   6.374  15.498   3.830 -0.0981  0.1900  0.1155
27864W        W44048   9.591   6.346   2.613 -0.1908  0.0265 -0.1805
27865W        W44049  12.994   5.719  12.648  0.0027 -0.1773  0.0099
27866W        W44050   8.318  12.593  13.686  0.0653 -0.1668 -0.0426
27867W        W44051   9.517   8.934  13.148 -0.0220  0.0521  0.2821
27868W        W44052   8.871  16.849  14.215 -0.0658 -0.2452 -0.1632
27869W        W44053  15.410   2.180  11.259  0.0506  0.2936 -0.3580
27870W        W44054   6.059   7.025  11.011 -0.0893 -0.0775  0.2410
27871W        W44055   1.404   6.186  14.222 -0.3625 -0.1197  0.1627
27872W        W44056  12.883  10.556  13.118 -0.0456  0.1337 -0.0051
27873W        W44057   4.112   0.367   4.977 -0.1056  0.0392  0.1718
27874W        W44058  11.386  16.824   2.942  0.1006 -0.1875  0.0879
27875W        W44059   7.732   9.220  13.314  0.1075  0.0536 -0.0782
27876W        W44060   5.216  14.848  14.352 -0.0874  0.0802  0.1331
27877W        W44061  14.746   0.608  16.114 -0.2446  0.0068  0.0559
27878W        W44062  15.080  12.097   4.657  0.1372  0.0732  0.2338
27879W        W44063  16.709  17.481  13.559  0.0906 -0.1295 -0.0438
27880W        W44064  11.815  13.827  16.352 -0.1929 -0.0534 -0.1012
27881W        W44065   8.511   1.126  12.565  0.1503 -0.1733 -0.2557
27882W        W44066   1.322   1.454  13.457 -0.1711 -0.3977  0.3256
27883W        W44067   8.094   3.523   5.459  0.0037  0.1258  0.0026
27884W        W44068   1.201   1.285  14.559  0.1462  0.1646  0.0449
27885W        W44069   5.592   9.342  13.538 -0.0055 -0.0022 -0.3624
27886W        W44070   4.516   3.427  15.464  0.1544 -0.1490 -0.1592
27887W        W44071  16.961  10.797  14.720  0.2567 -0.0326  0.0573
27888W        W44072  13.583  15.886   3.239  0.4051 -0.3009 -0.2453
27889W        W44073  10.082  13.362  12.954 -0.0641  0.0432  0.1136
27890W        W44074   9.317   5.746   1.428 -0.1049 -0.0231  0.0052
27891W        W44075   0.995   0.515   6.189 -0.2301 -0.2444 -0.0781
27892W        W44076   9.300   0.858   4.062 -0.0169 -0.1859  0.0619
27893W        W44077  10.816  11.339   1.967 -0.2048 -0.0635  0.1907
27894W        W44078  10.163   2.503   3.656 -0.0445  0.1554  0.1084
27895W        W44079  11.492   0.730   0.490  0.4648  0.0222  0.0453
27896W        W44080   8.808   4.964  13.710  0.0203  0.3693  0.1125
27897W        W44081   0.002   1.000   4.068  0.0031 -0.2283  0.1138
27898W        W44082   6.257   8.944  16.584 -0.1146  0.1668  0.1694
27899W        W44083   1.932  15.588  13.776 -0.2183  0.0615 -0.1141
27900W        W44084   3.786   8.009  12.613 -0.0878  0.2450  0.0316
27901W        W44085   7.487  11.035  15.794  0.1348 -0.4201 -0.2537
27902W        W44086  13.189   1.185   1.001  0.1844 -0.0152  0.1460
27903W        W44087   4.940  12.499  13.427  0.0604  0.2882 -0.1336
27904W        W44088   4.662  11.282   2.745  0.2328  0.0696 -0.1404
27905W        W44089   7.164   8.413   2.884 -0.2589  0.1467  0.1239
27906W        W44090   7.751  16.796  13.618 -0.0986 -0.0731 -0.4216
27907W        W44091  16.376  12.397   0.001 -0.3460 -0.0492 -0.0664
27908W        W44092   4.540   0.261  15.940  0.2436 -0.0610  0.4383
27909W        W44093   5.745   8.744  16.657 -0.3578  0.1908  0.1287
27910W        W44094  17.696   4.242   2.706  0.2296 -0.0207  0.1368
27911W        W44095   0.441  16.696   0.765 -0.1417  0.3720  0.0187
27912W        W44096   7.677   9.076  11.752  0.0590 -0.0997  0.3300
27913W        W44097  15.338   9.919   4.292 -0.2863 -0.0737 -0.2132
27914W        W44098   8.341   8.343  14.571 -0.0093 -0.0818 -0.1356
27915W        W44099  15.291  10.564  13.349  0.0460 -0.3570  0.3241
27916W        W44100  15.544  13.320   2.571 -0.0096 -0.2152  0.2658
27917W        W44101   3.607  13.307   3.151 -0.0307  0.3356  0.0482
27918W        W44102  15.514  16.286  13.885  0.0115 -0.0539  0.2736
27919W        W44103   3.375  12.857   3.384  0.3954 -0.3982  0.2323
27920W        W44104   4.728   2.761   5.860 -0.3032  0.0593 -0.2575
27921W        W44105   3.056  14.731  11.388  0.0635 -0.1533 -0.1669
27922W        W44106  16.715  14.523   0.996 -0.0818 -0.0733 -0.3307
27923W        W44107  11.863   1.863   2.295 -0.0523 -0.2527  0.1488
27924W        W44108  17.838   8.235   4.342 -0.4220  0.2759  0.1185
27925W        W44109  16.268   9.629  13.836 -0.0431 -0.2895  0.1285
27926W        W44110  17.401  15.286   4.174 -0.1920  0.1791  0.0548
27927W        W44111  11.270   2.990   4.373 -0.1404  0.0689  0.2113
27928W        W44112   3.576  11.070   4.890  0.2638  0.0619  0.0206
27929W        W44113  10.506   1.236   2.726  0.0179  0.0727  0.1599
27930W        W44114  10.283  17.060  15.951  0.2087 -0.1723 -0.2368
27931W        W44115   3.087  17.272  10.863  0.0508  0.4825  0.0795
27932W        W44116   8.648   8.285   3.022 -0.3363 -0.2015 -0.0509
27933W        W44117  13.907   4.423   1.007  0.1423 -0.0220 -0.0145
27934W        W44118  16.143   8.785   4.023 -0.1220 -0.3266  0.1092
27935W        W44119  16.686  17.712  14.832 -0.0927 -0.2010 -0.0219
27936W        W44120  15.567  15.884  15.856  0.0041  0.1604  0.0202
27937W        W44121  15.886   0.577   0.499  0.2378 -0.0216  0.1710
27938W        W44122  17.212   6.603  12.240  0.0254 -0.1717  0.1330
27939W        W44123   9.734   0.207   2.102  0.1185 -0.1454 -0.2024
27940W        W44124  11.256  17.196   2.003 -0.0109  0.1939 -0.2154
27941W        W44125  14.316   3.069  15.385 -0.2295 -0.2146  0.1077
27942W        W44126   2.267   6.847   2.520 -0.0127  0.0030  0.0395
27943W        W44127  15.595  13.664  12.929 -0.1438  0.0689 -0.0471
27944W        W44128   0.459  11.055  12.490  0.0729 -0.2305  0.0571
27945W        W44129  10.707  10.493   1.342 -0.0443  0.2015  0.0511
27946W        W44130   1.993  11.054   4.461 -0.0743 -0.1303  0.1126
27947W        W44131   0.341   0.333  11.466 -0.0307  0.0503  0.2017
27948W        W44132   3.782  12.509   4.966 -0.0947 -0.1241 -0.0551
27949W        W44133   1.642  13.607   4.029 -0.2616  0.0439 -0.0199
27950W        W44134   5.072  11.339   5.206  0.0254  0.0819  0.3259
27951W        W44135   8.469  14.166  15.904 -0.0696 -0.3659  0.6347
27952W        W44136   9.795  10.171  15.095 -0.1184 -0.0807 -0.0539
27953W        W44137  14.992  12.343  10.625  0.0182 -0.1385  0.1439
27954W        W44138   6.604  13.773  14.025  0.0264  0.0184  0.1408
27955W        W44139   9.977   6.389   0.500  0.1591 -0.4644  0.2858
27956W        W44140   0.699   7.255   2.583 -0.2730 -0.0238  0.1350
27957W        W44141  16.931  12.913  12.200  0.2336  0.2096  0.0536
27958W        W44142   7.104  17.324   3.463  0.0470  0.1089  0.0702
27959W        W44143   5.936   1.653  11.700 -0.0870 -0.0551  0.0359
27960W        W44144   0.679  17.793   2.456 -0.3034  0.2155 -0.1937
27961W        W44145  17.368   6.827  15.239 -0.0158 -0.0278  0.2778
27962W        W44146   1.818   0.161   2.689 -0.0816 -0.1524 -0.1249
27963W        W44147  12.737  12.837   1.598  0.0776 -0.2809 -0.0807
27964W        W44148   1.912   9.726  13.654 -0.1549 -0.2146 -0.0329
27965W        W44149   9.246   5.958   5.474 -0.3663 -0.2473 -0.2957
27966W        W44150  17.141   3.431   0.864  0.0096 -0.3250 -0.0664
27967W        W44151  16.559  12.542  12.350  0.0173 -0.0505  0.0286
27968W        W44152   3.893  15.450  16.182 -0.1632  0.3471  0.0289
27969W        W44153  17.362   1.598   0.105  0.1399  0.1247 -0.1367
27970W        W44154   6.142   7.893  14.064 -0.0137 -0.2845 -0.1161
27971W        W44155   2.286   4.567   4.279 -0.2641  0.1914  0.0395
27972W        W44156  11.355   4.009  15.025 -0.1480  0.0521  0.1171
27973W        W44157   6.616   2.476   4.721  0.0805 -0.2240 -0.1835
27974W        W44158   9.305   9.170   4.461  0.0462  0.2184 -0.2495
27975W        W44159  12.105   2.597   1.642  0.2138  0.1572  0.0191
27976W        W44160  14.085   2.316   2.820 -0.3629  0.0441  0.1372
27977W        W44161   1.574  10.102  15.044 -0.0168 -0.0146 -0.1032
27978W        W44162   3.076  16.721  16.623 -0.1040  0.0304 -0.2786
27979W        W44163  11.791  11.156  10.969  0.1407  0.0430 -0.0839
27980W        W44164  11.001   3.787   0.435  0.0126 -0.0544  0.2986
27981W        W44165  13.108   0.732  13.267  0.0357 -0.1214 -0.1519
27982W        W44166   9.360  17.392  13.347  0.1094 -0.0368  0.0037
27983W        W44167  12.854  14.027  16.540  0.2536  0.0078  0.2183
27984W        W44168   3.322   7.213  16.145 -0.1519  0.3131 -0.2144
27985W        W44169   5.002  14.887  11.678 -0.1212 -0.0821  0.2765
27986W        W44170   9.552   9.798  11.249 -0.1359 -0.1096  0.0396
27987W        W44171   1.984  13.202  16.072 -0.4498 -0.0534  0.0351
27988W        W44172   6.621   2.644   2.025  0.1501  0.1272 -0.2494
27989W        W44173  11.606   3.190  13.059  0.0282  0.0429 -0.0989
27990W        W44174   0.575  15.807   4.946 -0.0004 -0.2004  0.0139
27991W        W44175  16.989  12.848   5.680 -0.0827  0.2163  0.0531
27992W        W44176   2.985   3.131  14.232  0.4630 -0.0186 -0.1797
27993W        W44177   1.685   9.875   1.637 -0.0158 -0.2511  0.0804
27994W        W44178  14.393  15.203  11.611 -0.0405  0.0023 -0.1066
27995W        W44179  10.893   9.599  12.863  0.3544 -0.0436 -0.0949
27996W        W44180   3.770  14.739  13.416 -0.3119  0.1185 -0.1785
27997W        W44181   9.690  16.548   5.024  0.0871  0.0360 -0.2150
27998W        W44182   8.534  14.696   0.852  0.3106 -0.0176  0.0833
27999W        W44183  12.188  10.844   3.816  0.0411  0.1583  0.1917
28000W        W44184   5.426   7.046   6.034  0.1900  0.4625 -0.1900
28001W        W44185   3.656  13.730   5.472  0.3178  0.0328  0.0751
28002W        W44186   2.001   3.901   4.928 -0.0252  0.1422  0.1461
28003W        W44187  13.803   8.871   3.336 -0.2935 -0.1967  0.1401
28004W        W44188  16.790   4.473  13.454 -0.1356 -0.1393 -0.4659
28005W        W44189   9.454  14.978   4.810  0.0152 -0.1153  0.0272
28006W        W44190   0.249  17.809  15.719  0.1386  0.3488 -0.0389
28007W        W44191   4.716   4.852   6.018  0.2073 -0.3651  0.0581
28008W        W44192  15.312  13.728   1.737  0.0077 -0.1460 -0.0891
28009W        W44193   6.665   2.687   2.897  0.1292  0.1609  0.0393
28010W        W44194   6.457   5.924   5.793  0.1293 -0.1865 -0.0550
28011W        W44195  13.759   5.537   0.376  0.1411 -0.0845 -0.4422
28012W        W44196  13.397   5.160   0.222 -0.2532 -0.1608 -0.2692
28013W        W44197   8.498  12.861   4.279 -0.0230 -0.0255  0.2745
28014W        W44198   6.640   4.098  14.562  0.2272 -0.0923  0.3216
28015W        W44199   6.527  11.805  16.548 -0.1324 -0.0853 -0.0281
28016W        W44200  13.951   1.849   0.042 -0.1429  0.0651  0.2715
28017W        W44201   7.084  12.891   3.418  0.0570 -0.0838  0.0238
28018W        W44202   8.362  15.606  15.918 -0.0036 -0.0129  0.1110
28019W        W44203  12.265  13.052   3.338 -0.0125  0.0388 -0.0222
28020W        W44204   1.685  14.493   2.984  0.1941  0.1466 -0.1560
28021W        W44205  15.538  11.023   5.118  0.0988 -0.2317 -0.0167
28022W        W44206   4.689  11.178   5.611 -0.0100 -0.1523  0.0404
28023W        W44207   9.848   1.137  11.847 -0.3209  0.1730  0.0328
28024W        W44208  11.409  13.457   1.966  0.1413  0.1175 -0.2627
28025W        W44209   2.276   1.410  13.413 -0.0808 -0.0232 -0.1848
28026W        W44210   8.534  14.693   5.627  0.0469 -0.0073  0.0298
28027W        W44211   5.875   9.280   0.067  0.0518  0.1339 -0.0493
28028W        W44212  13.054   2.621  11.558 -0.0013  0.1804 -0.0066
28029W        W44213  15.502   0.889  13.290  0.0829 -0.0165 -0.0929
28030W        W44214   5.796   0.144   0.430  0.1593  0.1066 -0.2824
28031W        W44215  17.859  17.655  11.714 -0.0855  0.0793 -0.1030
28032W        W44216   6.283  16.078   1.456  0.0152  0.1240  0.1207
28033W        W44217  10.402   0.673  15.787 -0.0715 -0.1366 -0.0246
28034W        W44218  10.620  12.150  13.253  0.2132 -0.0279 -0.2127
28035W        W44219  11.709  16.920   1.703 -0.1578 -0.0979  0.0836
28036W        W44220   6.170  10.738   0.057  0.0485  0.0705 -0.0099
28037W        W44221   7.449   2.864   5.319 -0.2074  0.0400 -0.0776
28038W        W44222   5.030   0.334   3.511 -0.2830  0.0426 -0.1711
28039W        W44223  16.797  12.130   4.555  0.0742 -0.0813  0.1909
28040W        W44224  17.343   8.990   3.294  0.1385 -0.0180  0.0331
28041W        W44225   8.771  17.122   5.106 -0.1128 -0.2446  0.2737
28042W        W44226   0.012  15.924   3.813  0.1662 -0.0316 -0.0784
28043W        W44227   1.080   6.461  14.976  0.3500 -0.0536  0.0662
28044W        W44228  14.173  10.045  13.895 -0.6031 -0.1260  0.0153
28045W        W44229   9.775  13.876  13.082 -0.0067  0.4096 -0.3290
28046W        W44230   9.297  16.867   5.167  0.0860 -0.2254 -0.0946
28047W        W44231   1.565   6.178   1.433 -0.0133  0.1969  0.0370
28048W        W44232  12.881  15.673  13.245  0.0673 -0.0725 -0.1388
28049W        W44233  12.044   9.015  14.830 -0.1259 -0.0652  0.2213
28050W        W44234   5.904   0.168   4.925 -0.0298 -0.0367 -0.0147
28051W        W44235   8.796  13.141   1.160  0.1501 -0.0690 -0.0860
28052W        W44236   0.688  17.447   2.038 -0.0007  0.0199 -0.0958
28053W        W44237   8.860   8.986   4.212  0.0020  0.0563  0.2119
28054W        W44238   0.015   4.903  15.285  0.0352 -0.2502 -0.0157
28055W        W44239  12.212   6.954   0.909 -0.2274  0.0092  0.0123
28056W        W44240  12.945   2.985   4.063  0.0873  0.1612  0.0959
28057W        W44241  17.228  17.401  15.998  0.1977 -0.0831  0.0935
28058W        W44242  14.579  14.445   3.744 -0.0491  0.4170 -0.2472
28059W        W44243  10.191   9.693   0.327  0.0158 -0.1195  0.0613
28060W        W44244  10.103  16.051   4.314 -0.1139  0.1306  0.3474
28061W        W44245  10.847   3.679   3.937 -0.1014  0.3853  0.2545
28062W        W44246   1.324   2.742   1.228  0.0643  0.3296  0.2170
28063W        W44247   2.047  16.935   2.669  0.1887 -0.0992  0.0946
28064W        W44248  12.896  14.948   2.405  0.3259 -0.1946 -0.0747
28065W        W44249   6.744   1.813   0.391 -0.3604 -0.0011  0.0684
28066W        W44250  16.423   7.114   0.182 -0.2201 -0.0454 -0.0520
28067W        W44251   4.569  11.713  16.563 -0.1826  0.0147  0.1870
28068W        W44252   9.341  17.290   0.119  0.0721  0.4415 -0.2664
28069W        W44253   1.249   2.020  15.780  0.0513  0.0613  0.2952
28070W        W44254   1.468   9.221  15.011 -0.1222 -0.1103 -0.1005
28071W        W44255  13.995   8.687   4.422  0.1034 -0.2420  0.0134
28072W        W44256   2.359  14.424   2.493 -0.0244  0.0282 -0.1702
28073W        W44257   2.916  10.499  12.240  0.1370 -0.1425 -0.1972
28074W        W44258   4.191  12.512   0.051  0.3270 -0.0094 -0.1532
28075W        W44259   7.862  14.051  14.065  0.0213 -0.0135 -0.0542
28076W        W44260   6.041   9.973  12.824  0.4280 -0.0153  0.0371
28077W        W44261   4.312   6.813   5.420 -0.0826  0.1026  0.0101
28078W        W44262   5.589   9.471  15.966 -0.2015  0.1568 -0.1300
28079W        W44263   5.112  16.423   1.925  0.2300 -0.2066  0.0578
28080W        W44264   5.032   1.771   2.900 -0.0907 -0.0082 -0.0580
28081W        W44265   6.866   7.422   4.018 -0.1445 -0.1474  0.2028
28082W        W44266  12.356   8.626  14.781 -0.2253 -0.0001 -0.2529
28083W        W44267   8.148   6.900   1.353 -0.1658 -0.1116  0.0062
28084W        W44268   7.315   0.642   0.671 -0.0393 -0.1025  0.1557
28085W        W44269  14.498   1.836   1.736  0.2323 -0.1763 -0.0100
28086W        W44270  14.837   1.782   2.909  0.0400  0.3174 -0.0822
28087W        W44271  10.577   7.183   2.129  0.1161 -0.0983 -0.1214
28088W        W44272   3.127   9.072  14.536  0.1841  0.0648  0.0539
28089W        W44273   9.734   1.218   1.592  0.0516  0.5788 -0.0482
28090W        W44274  13.039   2.919   5.019 -0.0759  0.0097 -0.0381
28091W        W44275  10.511  16.148  16.255 -0.0981 -0.1967  0.3091
28092W        W44276   6.069   3.503   3.563 -0.0542  0.1796 -0.0208
28093W        W44277  12.428  11.429   5.041  0.0811  0.0774  0.1645
28094W        W44278   6.422  17.826  14.528 -0.3742 -0.2149  0.0615
28095W        W44279   8.246  13.726   4.025  0.0752 -0.1051 -0.5036
28096W        W44280  10.842  17.450   2.604 -0.2269 -0.0078 -0.0452
28097W        W44281  15.496  15.181  13.211  0.2172 -0.0727 -0.1100
28098W        W44282  16.626  13.769  11.137  0.1114 -0.1485 -0.2045
28099W        W44283  17.212  14.944   1.579 -0.1614  0.1083  0.0426
28100W        W44284   6.055  15.091  15.605 -0.0819 -0.1528  0.0370
28101W        W44285  10.721  14.876  16.140  0.0399 -0.1340 -0.0563
28102W        W44286   0.291  14.697   1.308 -0.2041  0.0211  0.1064
28103W        W44287  13.879   5.322   5.634  0.0298  0.0505 -0.0545
28104W        W44288   0.791  11.327  13.202  0.1137 -0.1839  0.3183
28105W        W44289   8.805   7.060   0.895  0.0952 -0.1227 -0.2737
28106W        W44290  14.461   2.020   5.161 -0.1086 -0.0017  0.1736
28107W        W44291  16.939   2.140   4.423  0.1359 -0.1465  0.3985
28108W        W44292   0.263  16.624   3.642  0.1226  0.4745  0.1826
28109W        W44293  10.481  10.897  12.714  0.0642  0.1215 -0.0750
28110W        W44294   1.357  13.277   1.668  0.3736 -0.1066 -0.2635
28111W        W44295  12.219  15.525   1.788 -0.0454 -0.0307 -0.0563
28112W        W44296   4.196  10.632  15.179  0.2083  0.0362  0.0762
28113W        W44297   3.305  14.425  12.025 -0.0455 -0.0254 -0.0312
28114W        W44298  16.406   6.726   3.100 -0.0426 -0.0046 -0.2063
28115W        W44299  16.996   4.164  11.676 -0.2158 -0.0462 -0.2841
28116W        W44300   9.318   8.236  15.169  0.1687 -0.0321  0.1024
28117W        W44301   4.357  13.677  12.958  0.0165  0.0582  0.0079
28118W        W44302  12.178  14.006  15.398  0.0018  0.0550  0.0101
28119W        W44303  12.816  16.521   2.610  0.0606 -0.2319  0.0445
28120W        W44304  13.185  16.572  12.890  0.1979  0.0372 -0.1180
28121W        W44305   7.480  13.888  13.097  0.2014  0.0834 -0.1785
28122W        W44306  16.486  15.165  11.675 -0.1822  0.0462  0.2118
28123W        W44307  13.179   3.618  15.887  0.4166 -0.0653 -0.1718
28124W        W44308   1.562   6.319   0.940  0.0766 -0.1147 -0.2776
28125W        W44309  10.475   9.151   5.041  0.2493 -0.0331 -0.1945
28126W        W44310   8.812  16.180   3.560  0.0594 -0.2475 -0.0354
28127W        W44311   5.729   0.715  14.833 -0.2067 -0.2347  0.1801
28128W        W44312   6.246   3.017   2.882  0.0257 -0.1190 -0.0158
28129W        W44313   1.986   5.303   2.641  0.1145  0.0573 -0.0487
28130W        W44314   5.624  13.519   2.099  0.1330  0.0313  0.0551
28131W        W44315  12.256  15.291   0.768 -0.1738  0.1187 -0.1149
28132W        W44316   1.565   2.911   6.459 -0.0618 -0.1212  0.0158
28133W        W44317   7.557  14.274   0.574 -0.2494  0.2369 -0.1097
28134W        W44318   9.891   6.485   1.621 -0.5323  0.0820 -0.1300
28135W        W44319   1.254   9.022  11.620 -0.2650  0.1241 -0.3728
28136W        W44320   0.188   9.194  14.323 -0.1693  0.1588  0.0213
28137W        W44321   6.629  14.224   2.525 -0.0136  0.0629 -0.1327
28138W        W44322   2.286  15.309  16.697 -0.0094  0.3081 -0.1784
28139W        W44323   9.472  13.764   2.584  0.0062  0.1768 -0.0406
28140W        W44324  16.366  16.193  15.178 -0.0310 -0.0432  0.0030
28141W        W44325  12.934  14.851  12.916  0.2463  0.1687  0.0360
28142W        W44326  15.261   1.731   3.203  0.2531 -0.0064  0.2627
28143W        W44327  16.860   1.220   5.389  0.0181 -0.2304  0.1344
28144W        W44328  11.257   6.025   2.891 -0.1786  0.2258  0.0176
28145W        W44329   7.243   9.574  15.726  0.0374  0.2043  0.2555
28146W        W44330  17.569   7.296   0.745 -0.0628 -0.2853  0.0182
28147W        W44331  17.456  15.793   2.661 -0.0566  0.1197  0.0756
28148W        W44332   8.545   7.301   3.912  0.1476  0.2454  0.0911
28149W        W44333  16.986  13.418   4.121 -0.1221  0.1568 -0.0829
28150W        W44334   5.689   8.807   5.026 -0.0840 -0.0494  0.0113
28151W        W44335  15.288  13.462   2.938 -0.0559 -0.0705 -0.2803
28152W        W44336  14.786   9.119  12.744 -0.2844  0.1987  0.1386
28153W        W44337  13.719  16.917   3.220 -0.2127  0.0023 -0.1515
28154W        W44338  16.348   8.758  13.683 -0.0922 -0.1167 -0.2540
28155W        W44339   6.208  17.152   0.928  0.2781  0.0855 -0.0238
28156W        W44340   4.989  14.401   1.708 -0.0994  0.4070 -0.2371
28157W        W44341  13.968   2.956   1.723 -0.4485 -0.1099  0.0569
28158W        W44342   2.112   5.815   5.358 -0.1602 -0.2299 -0.1644
28159W        W44343   5.668   3.286  11.930  0.2153  0.0490 -0.0435
28160W        W44344   5.422  12.026  14.100 -0.0685 -0.2253  0.2323
28161W        W44345   5.239  15.546   0.651 -0.1333  0.1194  0.3330
28162W        W44346  15.192   5.909  14.653 -0.0680  0.0299 -0.0043
28163W        W44347   3.623   4.818   1.438  0.0189  0.1017 -0.2272
28164W        W44348  17.518  15.251   1.793  0.0642 -0.0296  0.2155
28165W        W44349   1.904  16.146  12.426  0.2396  0.1519  0.2667
28166W        W44350   9.093  11.845  13.623  0.0777 -0.4935  0.2201
28167W        W44351   3.372   7.050   4.552  0.1130  0.4048 -0.1506
28168W        W44352  14.696   0.252  16.439  0.2668  0.0229 -0.0073
28169W        W44353   7.019   1.460  16.014 -0.5043 -0.0557  0.1899
28170W        W44354   3.304  13.598  12.869 -0.1600 -0.0065 -0.0398
28171W        W44355  16.026  11.549   3.938 -0.1207  0.1547 -0.1076
28172W        W44356  15.670   6.459  14.132  0.2619  0.4462 -0.0818
28173W        W44357   5.505  13.901   2.865  0.0512 -0.0387 -0.3049
28174W        W44358   3.089  14.289   3.201  0.2741  0.1057  0.1840
28175W        W44359   4.407  13.708   3.279  0.3643  0.2019  0.1166
28176W        W44360  15.225   6.479   4.882  0.0916  0.0209 -0.2014
28177W        W44361   8.608   2.722  14.817  0.1221  0.2491  0.0183
28178W        W44362   5.425  16.971   3.419 -0.0423  0.3305  0.1043
28179W        W44363   4.565   6.101  14.841 -0.1202 -0.2290  0.0195
28180W        W44364   6.606  13.652  14.488 -0.0283  0.0982  0.1529
28181W        W44365  16.904   8.684   2.086 -0.0737 -0.1243 -0.4624
28182W        W44366   2.777  11.622   1.120  0.2530  0.0109  0.2285
28183W        W44367   3.474   0.029   2.291 -0.1093 -0.1676  0.2019
28184W        W44368   2.970  14.737   1.772  0.1971  0.0483 -0.0606
28185W        W44369   8.839  15.770  16.179 -0.2282  0.0575  0.0624
28186W        W44370  16.544  12.013  16.420  0.1409  0.2710 -0.0536
28187W        W44371  13.262   5.280   0.703 -0.0298 -0.0835 -0.1666
28188W        W44372   9.323   2.368   0.001 -0.2035  0.0247 -0.0745
28189W        W44373   5.356   3.809  14.950  0.1122 -0.1446 -0.1920
28190W        W44374   6.477   6.892  16.562 -0.1460  0.2258 -0.0996
28191W        W44375   0.581   7.655  12.360 -0.0553  0.0037 -0.4247
28192W        W44376  10.712  12.711  11.430  0.1997  0.0663  0.0022
28193W        W44377   5.007   2.525  14.072 -0.0692 -0.2180 -0.0893
28194W        W44378   9.640   5.876  14.309 -0.1724 -0.1031  0.1696
28195W        W44379   5.817  17.382   0.140 -0.2371 -0.1500 -0.0991
28196W        W44380   1.194  10.517   3.200 -0.2244  0.0485 -0.2234
28197W        W44381  14.396   3.575  15.533 -0.0209  0.1234  0.1710
28198W        W44382   9.770   6.651   4.659 -0.0152  0.0906 -0.1913
28199W        W44383  15.081  16.815  15.404  0.0013 -0.0961 -0.0358
28200W        W44384  10.279   6.091  14.408 -0.0704  0.1233  0.2212
28201W        W44385   6.287   4.839   0.353 -0.0542 -0.0627 -0.2376
28202W        W44386   9.284  13.809  11.532 -0.0775 -0.0156  0.0902
28203W        W44387  14.289   6.794   1.707 -0.0460 -0.0151 -0.0611
28204W        W44388  14.887   6.821   4.258 -0.1090  0.0766  0.3515
28205W        W44389  14.351  12.462   5.407  0.0442  0.0741  0.1880
28206W        W44390  15.968  15.152  11.957 -0.1147  0.1898 -0.1868
28207W        W44391  15.290   9.454   2.982  0.3079  0.2049 -0.1383
28208W        W44392   9.669  13.125  12.684 -0.1905 -0.0075  0.2593
28209W        W44393   8.481  13.475  14.692 -0.1949 -0.0656 -0.0486
28210W        W44394   7.664   5.493   4.980  0.3336  0.0329  0.0115
28211W        W44395  12.067   0.603  11.332  0.0614 -0.0809  0.3115
28212W        W44396   8.057  17.115   5.431 -0.4504  0.0463  0.0388
28213W        W44397   0.686   1.317  14.551  0.0240  0.1434  0.0853
28214W        W44398  16.511   5.003   3.365 -0.2192  0.1425 -0.3065
28215W        W44399   5.488   1.483   3.666  0.1793 -0.2620 -0.0902
28216W        W44400  11.767  17.776  14.746  0.2053 -0.0071  0.0349
28217W        W44401   2.644  13.894   0.191 -0.1455 -0.0231  0.1098
28218W        W44402   8.629  16.841  13.522 -0.1769  0.1910  0.1181
28219W        W44403   3.093  13.994   0.945  0.0727 -0.0726 -0.0834
28220W        W44404   3.090  14.690  14.544 -0.0244 -0.0594 -0.0117
28221W        W44405   9.874  13.327  11.287 -0.0849  0.0492 -0.0278
28222W        W44406  10.275  14.907   2.996  0.0138  0.1513 -0.0331
28223W        W44407  12.652   6.801  12.988 -0.3466  0.0021  0.0157
28224W        W44408   2.454  15.538  15.931 -0.3178  0.1624 -0.2047
28225W        W44409  17.265  13.082   1.217 -0.0115 -0.1064  0.1532
28226W        W44410   4.865   0.983   1.837 -0.0553 -0.2087 -0.0362
28227W        W44411   2.322  16.102   2.399  0.1078 -0.0586  0.0100
28228W        W44412   2.857  16.149   4.177 -0.2748 -0.0315  0.1426
28229W        W44413  14.982  12.582   3.615 -0.0690  0.2480  0.3158
28230W        W44414  13.431  12.607   1.115 -0.3280 -0.1276 -0.0072
28231W        W44415  13.548   3.537   3.215 -0.1702  0.2340  0.6522
28232W        W44416   6.957   0.690   0.372 -0.0265  0.0574 -0.1451
28233W        W44417   1.143  17.378   0.569  0.0355 -0.2716 -0.1653
28234W        W44418   9.591  16.585   4.104  0.0507  0.4394 -0.2283
28235W        W44419  12.618   2.883  15.373 -0.2204  0.1200  0.0190
28236W        W44420  12.870   2.030  13.785  0.0615  0.5155 -0.0521
28237W        W44421   4.914   4.283  15.759 -0.2137  0.1795 -0.1276
28238W        W44422  13.182  12.174  16.589  0.0577  0.0429 -0.1331
28239W        W44423  11.112  10.319   2.865  0.2200 -0.1535 -0.1056
28240W        W44424   2.012  14.716  13.355  0.1390  0.0363 -0.0559
28241W        W44425  10.089   3.793   5.244 -0.1557  0.2524  0.0510
28242W        W44426   8.546   8.803  12.778 -0.0438  0.1342  0.3491
28243W        W44427  17.572  12.537   5.740 -0.1030 -0.0465  0.2642
28244W        W44428   4.275  14.366  14.766 -0.1807  0.0026 -0.1245
28245W        W44429  17.272   7.459  13.445  0.0141 -0.0520  0.0578
28246W        W44430   9.926   6.774  13.863 -0.3544  0.0648 -0.0634
28247W        W44431  15.457   0.186   1.312 -0.0584  0.0891  0.1900
28248W        W44432   4.167   9.358   2.226 -0.1296  0.0916 -0.0144
28249W        W44433  11.483   7.456  16.664  0.3504 -0.1373  0.0465
28250W        W44434  11.855  17.809   6.130  0.0288 -0.0216  0.1141
28251W        W44435  17.883   9.324  12.206  0.1946  0.1405 -0.0937
28252W        W44436   0.864  15.364   4.113 -0.2694  0.0209  0.2496
28253W        W44437   2.642   0.165   3.638  0.2454 -0.2033  0.1504
28254W        W44438  17.552  14.101   0.964  0.0585  0.2205  0.1205
28255W        W44439  13.894  17.858   0.843  0.3089 -0.1555 -0.2882
28256W        W44440   5.673   5.704   6.024  0.2279 -0.2252 -0.0460
28257W        W44441   6.759  14.720   1.241  0.0030  0.2506  0.2822
28258W        W44442   8.941   0.771   1.094 -0.2644  0.1133 -0.2401
28259W        W44443  10.150   9.009   4.077 -0.6017 -0.0395 -0.2182
28260W        W44444  12.997  17.594  13.891 -0.2859 -0.0720  0.0503
28261W        W44445  13.008  13.871   6.246  0.0404  0.2235 -0.2967
28262W        W44446   5.424  15.636   3.031 -0.0579 -0.1643  0.1734
28263W        W44447   9.479   3.862  14.146 -0.0295 -0.1154  0.1441
28264W        W44448   0.042  17.469   4.730 -0.1450 -0.2158  0.1753
28265W        W44449  10.296  14.852  14.575 -0.2608 -0.1261  0.1814
28266W        W44450   2.755   1.306  11.938 -0.0370  0.2333 -0.0399
28267W        W44451  15.587  12.494   2.178 -0.3147  0.1273  0.0605
28268W        W44452  15.465   7.746   1.428  0.2604 -0.2108 -0.0028
28269W        W44453   6.158   6.518   5.005  0.0688  0.4118 -0.0124
28270W        W44454   6.060   9.107   2.979  0.0555 -0.0792  0.0064
28271W        W44455  15.809   2.194   3.617  0.0569  0.0615 -0.2000
28272W        W44456  12.720   5.198   3.431  0.0517  0.1993  0.0532
28273W        W44457   3.163  17.484   4.649  0.0461 -0.0008 -0.2497
28274W        W44458  16.845   7.659  14.535 -0.0651  0.3754 -0.0616
28275W        W44459   6.419   1.377   0.437 -0.0307  0.2468 -0.1570
28276W        W44460   1.479  17.880  13.631  0.0858 -0.3264 -0.2750
28277W        W44461   8.604  17.448  13.542  0.0265 -0.0421  0.0876
28278W        W44462   6.190  12.578   1.062  0.2009 -0.1079 -0.3009
28279W        W44463   3.085   6.546  12.142  0.1217  0.1957 -0.0562
28280W        W44464   5.215  12.990   1.494 -0.4400  0.2156 -0.1230
28281W        W44465   7.245   6.069  16.484 -0.1467 -0.0500 -0.1780
28282W        W44466   3.287  15.914   0.900  0.1741  0.2306  0.2268
28283W        W44467   6.783   9.572  14.323 -0.0829  0.0572 -0.3145
28284W        W44468   5.339   3.196   2.943 -0.2224 -0.2125 -0.1461
28285W        W44469   4.946  13.230  12.784 -0.3952 -0.1268 -0.0532
28286W        W44470   6.125  11.019   3.630 -0.1416 -0.2906 -0.1890
28287W        W44471  11.662  13.512   2.668  0.1839  0.0025  0.1325
28288W        W44472  13.253  14.034  16.145 -0.2743  0.1256  0.2704
28289W        W44473   4.262   3.896  12.025 -0.2119  0.2067  0.0091
28290W        W44474   1.837  15.869   6.047 -0.1026 -0.0814  0.3695
28291W        W44475  12.764   5.008  15.636 -0.0332  0.0762  0.0436
28292W        W44476  16.035   3.052  14.350 -0.1668 -0.0354  0.0717
28293W        W44477  13.266   9.971   1.959 -0.1048  0.2261 -0.0490
28294W        W44478  14.780  16.737  16.350 -0.0099 -0.2977 -0.4143
28295W        W44479  15.063   5.791  12.013 -0.0960  0.0857 -0.0256
28296W        W44480  15.942   7.182   0.433  0.2208 -0.2225  0.0663
28297W        W44481  10.399   7.873  16.668 -0.1055 -0.1568 -0.0865
28298W        W44482   9.020  10.321   5.584 -0.0885 -0.0510 -0.1739
28299W        W44483   8.963   0.281   3.524  0.0611  0.2896  0.2198
28300W        W44484  17.206  17.113   0.274 -0.0842  0.0123 -0.1879
28301W        W44485  12.819  10.971  14.414  0.1123 -0.0124  0.0111
28302W        W44486  16.852   2.559  15.618 -0.0147 -0.1675 -0.0488
28303W        W44487  13.025  11.469  12.262  0.0708  0.0537  0.0362
28304W        W44488  10.366  10.300  14.840 -0.1343  0.2281  0.1871
28305W        W44489  15.794  16.272   2.246  0.1986 -0.0390  0.1081
28306W        W44490   4.250   4.181   0.796 -0.0807  0.2472  0.0667
28307W        W44491  17.410   8.104   1.220  0.0349  0.2109  0.0719
28308W        W44492   3.957   5.714   1.011  0.1451 -0.0988 -0.3558
28309W        W44493   0.440  11.293   5.243  0.0965  0.0474  0.0611
28310W        W44494  15.494   9.590   2.117  0.1372  0.0731 -0.4561
28311W        W44495  15.793   0.651   3.375  0.0300  0.2013 -0.1328
28312W        W44496   3.964   4.640  13.597 -0.0279 -0.3112 -0.0988
28313W        W44497   0.747   3.749   4.575 -0.2744  0.1412  0.2006
28314W        W44498   5.838  17.511   4.619 -0.0049  0.1384  0.1641
28315W        W44499  13.609   7.786  14.824 -0.2860 -0.3279  0.0626
28316W        W44500   8.630  12.968   0.406 -0.1005  0.1751  0.1119
28317W        W44501   7.227   5.610  15.632 -0.1337 -0.1273  0.2606
28318W        W44502  14.629  11.424   4.765 -0.1917  0.2172 -0.1332
28319W        W44503  16.950  15.417   2.498  0.0237  0.0268 -0.0404
28320W        W44504   5.452  10.387   0.443  0.1290  0.1679  0.0388
28321W        W44505  12.615   6.788   3.488  0.0588 -0.1051  0.0578
28322W        W44506  15.596  12.362  15.011 -0.1435  0.2050  0.1951
28323W        W44507  11.001  17.540   5.555 -0.1560  0.1651  0.2959
28324W        W44508  17.799  14.455  11.818  0.0102  0.0442  0.2862
28325W        W44509  16.227   2.355  15.031  0.2203 -0.1795 -0.0327
28326W        W44510   1.215  14.937   3.463  0.0892  0.1089  0.3604
28327W        W44511   4.056   6.938   3.124 -0.0294  0.1120  0.3368
28328W        W44512  16.933  16.558   5.629 -0.0377 -0.2111 -0.3126
28329W        W44513   6.723  16.835  10.851  0.1932 -0.0989 -0.0516
28330W        W44514  15.506  16.922   0.733 -0.1090  0.0048  0.1147
28331W        W44515  15.009   3.603  12.518 -0.0224  0.0835  0.2732
28332W        W44516   6.036   7.628  14.948  0.3426  0.0389  0.0209
28333W        W44517  12.684  15.289   1.717 -0.1558 -0.1717  0.1068
28334W        W44518   2.115  13.532  12.786  0.0408 -0.2218 -0.0841
28335W        W44519   6.317  17.500   1.935  0.0242 -0.1077  0.1327
28336W        W44520  16.756  10.319   1.128 -0.5942  0.0191 -0.1444
28337W        W44521   6.956   3.160  12.119 -0.0896 -0.1564  0.0816
28338W        W44522   5.838   8.909  14.396 -0.0974 -0.0061  0.1919
28339W        W44523   3.871   0.418   4.102 -0.1589  0.0689 -0.0853
28340W        W44524  13.088  13.369   4.835 -0.0481 -0.0579 -0.0443
28341W        W44525  14.823  17.361   4.367 -0.0063  0.0005 -0.3932
28342W        W44526  15.967  10.394  11.467  0.1392 -0.1311  0.0497
28343W        W44527  11.114   7.664  14.147  0.0482  0.0711  0.3253
28344W        W44528  15.732  11.156   1.487  0.2270  0.1294  0.2531
28345W        W44529  10.731   5.224   2.429  0.3630 -0.3026 -0.3490
28346W        W44530  16.633   1.561  13.333 -0.1681  0.1386  0.0056
28347W        W44531  13.177  15.267   1.996  0.0906  0.0501  0.0100
28348W        W44532  13.387   7.520  12.252  0.1428  0.0182  0.0068
28349W        W44533  17.297   5.276   0.552  0.2404  0.1711 -0.0716
28350W        W44534   0.299   6.521   2.053  0.0970  0.3872  0.1458
28351W        W44535  10.448   2.699  15.252 -0.1791  0.3337 -0.5249
28352W        W44536   7.775   0.176   2.535  0.2088 -0.1928 -0.2766
28353W        W44537   1.007   5.002  12.695  0.0850 -0.1566 -0.0349
28354W        W44538   4.894   0.564   4.507  0.1296 -0.1199 -0.2703
28355W        W44539  14.315  14.666   4.596 -0.2702 -0.1967  0.2013
28356W        W44540   3.704   8.696  15.243  0.0003 -0.1334  0.0049
28357W        W44541  14.286   4.892   1.419 -0.1158 -0.0613  0.1627
28358W        W44542   8.768   6.150   0.894  0.0096 -0.1140 -0.0577
28359W        W44543   6.653   0.627   3.225 -0.1723 -0.0968  0.0070
28360W        W44544  10.392   6.052   2.837  0.2411 -0.1966  0.0375
28361W        W44545   7.434  14.300   0.098  0.1897 -0.1287 -0.0311
28362W        W44546   8.738   2.339  16.553  0.0109  0.1307 -0.0685
28363W        W44547   6.231   4.836  14.060  0.0374 -0.3867  0.0840
28364W        W44548   4.305  17.431   2.220  0.0152  0.0941 -0.1112
28365W        W44549  16.543   9.922  15.070  0.1154  0.2013 -0.0766
28366W        W44550   5.574   2.791  15.694 -0.2388 -0.0556  0.1201
28367W        W44551   4.911   5.813  15.865 -0.0669 -0.0282 -0.1795
28368W        W44552   8.774  13.044  12.017  0.1610  0.1779 -0.2099
28369W        W44553   7.704   4.326   3.962 -0.2090  0.0387  0.0806
28370W        W44554  12.791   8.649  16.079  0.2603 -0.2172 -0.0016
28371W        W44555   6.358  11.487   0.958 -0.0950  0.1301 -0.1597
28372W        W44556  11.798  16.177  14.097 -0.2326  0.0509  0.0921
28373W        W44557  15.830   5.016   0.746  0.3182  0.0318  0.0521
28374W        W44558   7.389  12.093   4.101 -0.1267  0.5331  0.2836
28375W        W44559  15.867   2.981   0.067 -0.2499  0.1948  0.2739
28376W        W44560   0.682  17.281  11.258 -0.1859  0.0720  0.0892
28377W        W44561   2.861   4.746  11.935 -0.0183  0.3328  0.0043
28378W        W44562   7.269   4.247   1.307  0.0790  0.4519 -0.4101
28379W        W44563   1.511   2.391  16.191  0.0397  0.0689  0.0639
28380W        W44564  13.344   8.180   0.104 -0.0909 -0.0898 -0.0398
28381W        W44565  17.701   1.431  11.279  0.0236  0.1815 -0.0348
28382W        W44566   3.090  10.561   1.650  0.0403  0.1859 -0.3118
28383W        W44567   6.732   5.380   0.907  0.2012  0.1097 -0.3599
28384W        W44568   8.397   9.648  14.981 -0.3593 -0.0117 -0.0721
28385W        W44569   0.298  11.739   0.121  0.0469 -0.0362  0.0801
28386W        W44570  12.009  12.940  14.049 -0.1453  0.1444 -0.1667
28387W        W44571   8.502   5.934   0.468 -0.0162  0.0929 -0.0521
28388W        W44572   9.651   2.339   0.855 -0.0041  0.0428  0.2459
28389W        W44573   5.447  13.763   0.465 -0.1868  0.5114  0.1704
28390W        W44574  13.144   5.913   4.943 -0.2293  0.1376 -0.2952
28391W        W44575   0.878   5.061   0.274 -0.2472 -0.2211  0.1709
28392W        W44576  16.063   1.380  15.695  0.3457 -0.3433 -0.1611
28393W        W44577  12.235   3.516  15.544  0.0163 -0.0401 -0.1992
28394W        W44578   0.531  14.063   3.032  0.2585 -0.0112 -0.1021
28395W        W44579   5.989   1.193   0.622  0.0890 -0.2104 -0.1051
28396W        W44580   9.110   0.144   5.290  0.3238 -0.0805  0.1458
28397W        W44581  12.719   8.110  16.334  0.0460  0.1765 -0.3878
28398W        W44582   6.552   5.218  14.292  0.1751 -0.4082 -0.2300
28399W        W44583  10.698   5.745   0.368  0.1457  0.1809 -0.1137
28400W        W44584   9.517   2.031   3.915  0.0019 -0.2858  0.0643
28401W        W44585  10.783  10.394   5.166 -0.3049 -0.0570 -0.0749
28402W        W44586   5.104   0.617   5.095 -0.2986  0.2101 -0.0463
28403W        W44587   1.809   5.414  14.213 -0.0484 -0.1742  0.0167
28404W        W44588   0.291   2.411   0.597 -0.0215  0.1322  0.0740
28405W        W44589  11.007  14.248   4.349  0.0278  0.1119 -0.1014
28406W        W44590   6.414   0.961   5.389 -0.2320  0.3927 -0.3659
28407W        W44591  13.177  16.586  11.672  0.1120  0.2386  0.1436
28408W        W44592  13.394  15.319  12.287 -0.2191 -0.0198 -0.3848
28409W        W44593   3.380  16.281  12.207 -0.1755  0.0956 -0.0340
28410W        W44594  13.953   5.515  16.164  0.2123 -0.4065  0.0181
28411W        W44595  14.472  10.980  14.076 -0.0765 -0.0089 -0.2006
28412W        W44596   7.011  10.778   3.842  0.0867 -0.1182 -0.1511
28413W        W44597   0.988  14.427   4.631  0.1081 -0.0866 -0.0178
28414W        W44598  13.892   6.491   0.455 -0.0612 -0.1350  0.1452
28415W        W44599   3.480  14.102  11.585  0.1128 -0.1066  0.3020
28416W        W44600   2.032  13.798  15.260  0.0367  0.0169  0.0931
28417W        W44601   9.093  16.901  12.110 -0.3265 -0.0177  0.2136
28418W        W44602  12.656  11.554   0.415 -0.0915 -0.0825  0.3535
28419W        W44603  17.355  15.276   2.704 -0.0176 -0.0199 -0.3609
28420W        W44604  12.513  14.754   0.858  0.1764 -0.1667  0.2770
28421W        W44605  10.138   4.385  11.478 -0.1345  0.0457 -0.2237
28422W        W44606  10.891   0.109   3.286  0.3470 -0.0501  0.1458
28423W        W44607   7.610  16.735  16.608 -0.1278 -0.1293  0.0092
28424W        W44608   2.194   6.952   4.650  0.1102 -0.1215 -0.3098
28425W        W44609   4.335   5.599  13.623 -0.4329 -0.0644  0.1016
28426W        W44610  12.330  12.247   3.514  0.1862  0.0365 -0.1106
28427W        W44611   3.573   5.589   3.928  0.2359  0.1488  0.0012
28428W        W44612   3.834   8.361   2.150 -0.0156  0.1141  0.2148
28429W        W44613  11.766   8.286  11.690  0.2823 -0.3648 -0.2991
28430W        W44614   8.008   7.345   3.324  0.2020  0.2045  0.1279
28431W        W44615   2.387   0.402   1.699 -0.0991 -0.2721 -0.1045
28432W        W44616  14.071   1.527   3.014  0.1637 -0.1191  0.0452
28433W        W44617   4.016   7.222   5.239  0.2832 -0.1279  0.1565
28434W        W44618   0.900  11.377   6.027 -0.0311 -0.2320 -0.2823
28435W        W44619   8.167  17.654  13.400 -0.0775 -0.0316  0.0468
28436W        W44620  10.359  12.673  16.383 -0.0581  0.1253  0.1072
28437W        W44621  14.495  17.386  12.399  0.1269 -0.3076 -0.1490
28438W        W44622   4.302   0.706   5.298  0.1852 -0.2853 -0.1019
28439W        W44623   0.287   3.856   5.839  0.1905 -0.2333 -0.2540
28440W        W44624   8.995  14.246  15.801  0.1230  0.2849 -0.1846
28441W        W44625  12.233  11.814   4.135  0.0801 -0.0436  0.0536
28442W        W44626  11.007   4.563  13.389 -0.0689 -0.2275 -0.0808
28443W        W44627   2.784   8.952   1.089 -0.0143 -0.0220  0.2846
28444W        W44628  13.699  14.028   3.771  0.0802  0.2271 -0.0148
28445W        W44629  11.848  13.955   5.959  0.1089 -0.1466  0.0866
28446W        W44630   5.161   6.489   0.058 -0.5083  0.0432 -0.1953
28447W        W44631   5.054   0.673  11.547  0.0100  0.2456 -0.2439
28448W        W44632   9.174   6.604  13.050 -0.1248  0.1561  0.2817
28449W        W44633   6.338  10.789   1.991 -0.1049 -0.2166 -0.1534
28450W        W44634   8.917   3.999  13.384  0.0186  0.2728  0.0252
28451W        W44635  10.558  11.524   1.066  0.0583  0.2350  0.1259
28452W        W44636  15.510  13.489  12.084 -0.0015  0.1629  0.0576
28453W        W44637   5.140   5.301  12.672 -0.2561 -0.1571 -0.1393
28454W        W44638  12.347  13.665  13.590 -0.0597 -0.0109 -0.1117
28455W        W44639   3.505  12.668   1.303 -0.0082  0.2885  0.2256
28456W        W44640   3.931   0.240  15.406  0.1270 -0.0394  0.3183
28457W        W44641  14.658   3.460   1.503  0.0152  0.5426 -0.1471
28458W        W44642   7.516   7.586   2.765  0.1764 -0.1767 -0.0326
28459W        W44643  10.805   3.508  14.334  0.1715 -0.2159  0.2211
28460W        W44644  16.422  17.194   1.598  0.1501 -0.0447 -0.1943
28461W        W44645   8.641  10.846  16.511  0.0213 -0.1450  0.2060
28462W        W44646  11.387  13.833  13.672  0.3491  0.1924  0.0680
28463W        W44647  12.556   8.399  15.527  0.1518  0.0371 -0.1704
28464W        W44648   2.217   8.440   4.212  0.1622 -0.1841  0.0029
28465W        W44649   5.870  11.060   4.578  0.0527  0.2324  0.2616
28466W        W44650   5.921  10.183  14.639 -0.1808 -0.1748  0.3726
28467W        W44651  16.203   6.580   5.369 -0.3189  0.2191  0.2166
28468W        W44652   2.814  17.284   2.556 -0.1716 -0.0554 -0.1009
28469W        W44653   8.376   3.204  16.258 -0.3097  0.1808  0.1203
28470W        W44654  13.343   2.661   3.243  0.3847  0.0232 -0.2826
28471W        W44655  15.476  12.704  13.152 -0.0925  0.0013  0.0474
28472W        W44656   0.792  14.595  12.533  0.0148  0.1952 -0.1575
28473W        W44657   8.280   7.794   2.012  0.0643 -0.0157  0.1950
28474W        W44658  11.133  15.778   1.921 -0.0797 -0.0839  0.0850
28475W        W44659  11.100   3.712  14.023  0.1010  0.0496 -0.1678
28476W        W44660   2.957  10.030  14.338 -0.1430  0.0366 -0.1102
28477W        W44661  16.589   8.783   0.271 -0.0233 -0.0859  0.0846
28478W        W44662   8.839   8.021  15.359 -0.1531  0.0838 -0.0773
28479W        W44663  12.922   2.465   5.300 -0.1385  0.1989 -0.0495
28480W        W44664  17.858   2.403   0.392  0.1247  0.0077 -0.0060
28481W        W44665   6.331   9.969   4.181 -0.0537  0.0668 -0.0260
28482W        W44666   3.191  10.950   5.230 -0.0959 -0.0707  0.1071
28483W        W44667  15.878   8.980  16.579 -0.0141  0.0068 -0.0567
28484W        W44668  11.028   4.581   2.994 -0.1408  0.3751 -0.1178
28485W        W44669  16.373   9.502  16.550 -0.0338 -0.2094 -0.0344
28486W        W44670  14.003  17.185   3.556  0.0795  0.0289  0.3754
28487W        W44671  14.166   8.916   2.960  0.0996  0.0947  0.1094
28488W        W44672  11.423   4.612   0.297  0.0742  0.1551 -0.0276
28489W        W44673  12.030   5.124  13.239  0.1911  0.1466  0.0491
28490W        W44674   2.705   6.346   2.224 -0.0833  0.2876  0.0010
28491W        W44675   4.551   6.696   0.905 -0.1059  0.0183 -0.1766
28492W        W44676   7.496   5.199   6.023  0.2989 -0.1921 -0.1238
28493W        W44677  12.117  11.518   2.242 -0.1891 -0.3102 -0.2572
28494W        W44678  17.348   7.277   4.875 -0.0226 -0.1482  0.0031
28495W        W44679   6.500   1.457   2.829 -0.1247 -0.0549  0.1149
28496W        W44680  17.583   1.023   9.942  0.1752 -0.0017 -0.2228
28497W        W44681   3.112   0.484   2.914  0.1419  0.2642  0.1172
28498W        W44682   8.441  17.679  15.415 -0.1439 -0.0153 -0.0067
28499W        W44683   5.067  13.693   2.060  0.0577  0.2557 -0.1406
28500W        W44684  14.606  10.307   4.928  0.0658 -0.0640  0.0070
28501W        W44685   5.801   0.900  15.747  0.1145 -0.2238 -0.2453
28502W        W44686   0.629   5.869  13.910  0.4193 -0.1011  0.0019
28503W        W44687  14.133   9.469   5.385  0.1829 -0.0508  0.0393
28504W        W44688   6.357   7.424   3.819 -0.1542 -0.2537  0.1662
28505W        W44689   1.103  17.220   1.889  0.0484  0.2289  0.0166
28506W        W44690   3.533   6.474  14.574 -0.2169 -0.2123 -0.1663
28507W        W44691   9.163   1.411  15.072  0.0765  0.4197 -0.1477
28508W        W44692   8.843   2.792   5.746  0.0318  0.1713  0.1571
28509W        W44693  16.672   2.894  11.092 -0.2182 -0.1217  0.0231
28510W        W44694  10.007   1.395  15.851  0.3280 -0.2347  0.1884
28511W        W44695  15.764  17.860   2.643  0.0768 -0.0043  0.2738
28512W        W44696   8.249   4.022   0.196 -0.0602  0.1351  0.1379
28513W        W44697   2.563   1.892   4.280  0.0309 -0.0254 -0.1627
28514W        W44698   7.184  11.195  12.155 -0.2086 -0.0330 -0.1802
28515W        W44699   2.914   1.002   2.135 -0.0196 -0.1359  0.0966
28516W        W44700   1.666  16.065   0.417 -0.2191 -0.1005  0.0245
28517W        W44701   2.675  14.326  12.726  0.2328  0.3580 -0.2489
28518W        W44702  11.995  12.506  13.600 -0.0921  0.1466  0.0989
28519W        W44703  17.616  12.456  15.500 -0.2078 -0.0526 -0.1050
28520W        W44704  17.877  15.370  15.740 -0.1211  0.2078  0.0191
28521W        W44705   2.652  10.377  13.374  0.2303  0.2889 -0.1226
28522W        W44706   3.740  11.211   6.086 -0.0298 -0.0775  0.1199
28523W        W44707  15.621   1.335  10.440  0.0445  0.0655  0.0637
28524W        W44708   5.684   8.906  14.901 -0.1173  0.0704 -0.0058
28525W        W44709  11.916   8.205   4.058  0.2853  0.1260  0.0775
28526W        W44710   3.349   5.171   4.159 -0.0370 -0.2023  0.1483
28527W        W44711   4.051   6.490   0.867 -0.1912  0.3766  0.0739
28528W        W44712   1.143   0.897   5.909 -0.1217 -0.1352 -0.0050
28529W        W44713   6.988   6.403  14.245 -0.1500 -0.0451 -0.0070
28530W        W44714   6.946  15.511  13.625  0.1842 -0.0206  0.0071
28531W        W44715   0.442  13.478  11.212 -0.0220 -0.0000 -0.1259
28532W        W44716  11.006   4.137   1.593  0.1112  0.2613  0.1622
28533W        W44717   0.472  16.821  11.328 -0.3910  0.0096 -0.3113
28534W        W44718   0.985   6.425   3.782 -0.1595  0.1229 -0.2095
28535W        W44719   0.450   0.588  15.162  0.0931 -0.1106  0.0220
28536W        W44720   7.448   9.954   5.317 -0.0871 -0.0336 -0.4162
28537W        W44721   1.506  12.901  13.958 -0.0323  0.0107 -0.0892
28538W        W44722  13.128  11.525  14.317  0.1610 -0.1302  0.0100
28539W        W44723  14.397   9.829  12.326  0.0093 -0.3008  0.2464
28540W        W44724   7.991  13.537   2.222  0.0691 -0.0332  0.0113
28541W        W44725   2.686  13.722  15.881 -0.1566 -0.0239  0.0208
28542W        W44726   9.960  13.498  11.774 -0.2511 -0.2294 -0.0000
28543W        W44727   8.760  16.855  14.746 -0.0011 -0.0846 -0.2167
28544W        W44728  12.552  12.281  15.813 -0.0844 -0.0310 -0.0780
28545W        W44729   0.146  10.402  12.082  0.0078  0.0431  0.0657
28546W        W44730   6.393  17.373   0.009  0.0982 -0.2551  0.0958
28547W        W44731  14.751   9.857  13.242  0.3676  0.1049 -0.0756
28548W        W44732  10.852  16.000  14.660  0.0227  0.1684  0.1500
28549W        W44733  12.424  12.031  11.684 -0.1836  0.1363 -0.0088
28550W        W44734   2.901  14.650  12.388 -0.0413  0.2123  0.2159
28551W        W44735   9.832   2.709  13.346  0.0526 -0.0318 -0.0566
28552W        W44736   5.203   1.964   1.552 -0.1609 -0.0162  0.0808
28553W        W44737   0.113   6.244  14.508  0.0652 -0.2281  0.0540
28554W        W44738   5.699   0.837   2.477  0.1128 -0.1737  0.0810
28555W        W44739  14.118   9.886   0.368  0.1196  0.2802  0.0415
28556W        W44740  15.374   1.512   0.856  0.0056  0.1978 -0.0552
28557W        W44741   0.004   1.608   3.505  0.0010  0.0773 -0.3129
28558W        W44742   9.353   7.288   2.376 -0.0260 -0.4807 -0.1095
28559W        W44743   0.863   4.527   0.874  0.3845  0.0598 -0.0614
28560W        W44744   2.978   9.852  12.851 -0.0137 -0.1341 -0.0489
28561W        W44745   4.344   8.761  13.841  0.0021  0.2967  0.1549
28562W        W44746   2.147   9.031   3.190  0.2269  0.1962 -0.2504
28563W        W44747  11.168   2.690  13.174  0.3130 -0.0000 -0.3393
28564W        W44748   0.083  15.541  14.382 -0.0621 -0.1655  0.0875
28565W        W44749  16.670  12.050   0.394 -0.0865  0.2944  0.0966
28566W        W44750   0.497  13.035   4.454 -0.0303 -0.2036 -0.1346
28567W        W44751   0.592   0.309   2.939  0.1656 -0.0948 -0.2184
28568W        W44752  13.011   1.918  10.866  0.0430  0.2023  0.2827
28569W        W44753  11.977   6.584   4.636  0.0138 -0.0104 -0.0074
28570W        W44754   7.493  14.139  13.516 -0.0010 -0.0221 -0.2238
28571W        W44755   0.623  15.935  12.662 -0.1753 -0.0157  0.1726
28572W        W44756  16.361  13.829   1.800  0.0102  0.1427 -0.4216
28573W        W44757  10.865   3.243   3.564  0.0455 -0.0837  0.2310
28574W        W44758   0.673  11.372   1.681 -0.0267 -0.2221 -0.4054
28575W        W44759  17.443  12.962  11.526 -0.0518 -0.0648 -0.1068
28576W        W44760   5.720   0.079   5.509 -0.1240  0.1667  0.2980
28577W        W44761   5.927  17.385   3.747 -0.0029  0.1356  0.2421
28578W        W44762  11.751  15.979  15.852 -0.1628  0.1841  0.2274
28579W        W44763   2.934   7.938  16.632  0.0412 -0.1610 -0.0244
28580W        W44764  13.487   6.281  15.522  0.0127  0.0378  0.1890
28581W        W44765  12.420  11.076   2.996 -0.2294 -0.1483 -0.2307
28582W        W44766   0.866   6.391   5.459 -0.1633  0.0947 -0.1173
28583W        W44767  16.635  16.636   5.261 -0.1601  0.1820 -0.2159
28584W        W44768  12.879   1.644   6.590  0.2629 -0.0782  0.0144
28585W        W44769  11.580  11.790   1.060 -0.1946 -0.0332 -0.2162
28586W        W44770   1.682   3.084  16.262 -0.1179 -0.0358 -0.0222
28587W        W44771  15.507   0.233   0.439 -0.4110  0.0098  0.3555
28588W        W44772   6.950   4.873  14.192 -0.1103  0.0690  0.1254
28589W        W44773  14.277   2.574   0.473 -0.0092  0.0127  0.0816
28590W        W44774   0.243  11.709   0.591 -0.2617  0.0389 -0.1370
28591W        W44775   5.747   6.585  16.026 -0.3160 -0.3325  0.1821
28592W        W44776  14.697  17.347  14.185 -0.0010  0.1083 -0.1104
28593W        W44777   3.472   4.877   5.678  0.2566  0.2150  0.0374
28594W        W44778   5.855  14.037   3.302 -0.0787 -0.0997  0.0022
28595W        W44779   1.510  15.313  13.008  0.3030 -0.1318  0.3005
28596W        W44780   3.739   1.641  12.640  0.0290  0.1592 -0.4942
28597W        W44781  10.623   4.896  13.545  0.2340  0.0072  0.1008
28598W        W44782   6.739  12.228   5.732 -0.0152  0.0170 -0.0237
28599W        W44783   6.632  14.071   0.550 -0.1123  0.0832 -0.1056
28600W        W44784  17.218  13.249  11.933 -0.4012  0.0037 -0.0439
28601W        W44785   9.952  17.384   4.161 -0.1097 -0.0215 -0.2322
28602W        W44786   5.559  17.767  15.057 -0.0094 -0.0456  0.1490
28603W        W44787   5.667   4.170   2.938 -0.1084  0.0884  0.0449
28604W        W44788   8.979   0.035  14.164 -0.1044 -0.0204 -0.2200
28605W        W44789  10.870  12.432   1.576 -0.1383  0.0217  0.1396
28606W        W44790   1.366  11.371  14.219  0.1670 -0.0013  0.2099
28607W        W44791   1.001   3.969  11.447  0.1220  0.1381 -0.0149
28608W        W44792   9.752   8.874   4.474 -0.2257  0.0916 -0.0584
28609W        W44793   7.338  16.336  14.377 -0.1778  0.1873  0.0703
28610W        W44794   0.251   3.502  11.995  0.1609 -0.0700  0.1143
28611W        W44795   1.736   0.503   4.623  0.0880  0.2049 -0.3578
28612W        W44796  10.829  13.934   0.729 -0.3172 -0.1754  0.3585
28613W        W44797   0.807  15.106  14.570  0.1634  0.1041  0.1626
28614W        W44798  10.535  17.366  12.012 -0.0996 -0.1657 -0.1433
28615W        W44799   1.821  16.653   0.251 -0.3749  0.0736 -0.0944
28616W        W44800   6.308  13.222  14.287 -0.0441  0.0084 -0.3131
28617W        W44801   2.227   3.106  12.717  0.1278  0.2645  0.3558
28618W        W44802   3.271   9.479  15.722 -0.1855  0.5439  0.0519
28619W        W44803   4.614   5.552  12.561  0.1852  0.1727 -0.3813
28620W        W44804   9.670   7.309  12.142 -0.0272  0.0221 -0.2251
28621W        W44805   4.425   7.188  16.038  0.1736  0.3066 -0.1216
28622W        W44806  10.982  15.366   3.749  0.2967  0.0276 -0.2476
28623W        W44807   1.296   7.170  15.315 -0.0479 -0.4916  0.0153
28624W        W44808   2.152  12.827   4.009 -0.0633 -0.0219 -0.2523
28625W        W44809   0.027  13.708  12.816  0.1461  0.1559 -0.0111
28626W        W44810  12.039   5.586  15.394  0.0749  0.2413 -0.1784
28627W        W44811   7.604  11.749   0.571 -0.0797 -0.0797  0.3493
28628W        W44812  17.699   5.773   3.492 -0.0834 -0.0634 -0.1903
28629W        W44813   6.878   9.542   4.689  0.1524  0.1786  0.2017
28630W        W44814   4.777   1.280   2.621  0.1499  0.3372  0.1471
28631W        W44815   1.418   1.268   3.642  0.2260 -0.1700  0.0168
28632W        W44816   5.326  17.347   5.265  0.0585  0.3238 -0.0558
28633W        W44817  11.287  10.462   4.966 -0.0769  0.2237 -0.0089
28634W        W44818  11.360   2.655  16.439  0.0701  0.1068  0.0050
28635W        W44819   4.315  15.107  15.373 -0.0329  0.0048 -0.0150
28636W        W44820   1.685  12.201  12.554  0.2312 -0.2031  0.0725
28637W        W44821   4.914   9.658   2.372 -0.2879 -0.0714 -0.2021
28638W        W44822  11.388   3.739   1.735 -0.0823 -0.1526  0.0298
28639W        W44823  16.112   7.249  15.964 -0.1057 -0.2113  0.1202
28640W        W44824   6.201  14.537   2.518 -0.1184 -0.0168  0.1125
28641W        W44825  13.646   4.180  14.092 -0.1569 -0.0603  0.0026
28642W        W44826   6.797   0.944   5.017  0.0396 -0.1149  0.1638
28643W        W44827  16.309   6.431  12.584 -0.1265 -0.0685  0.0579
28644W        W44828  16.688  15.951  16.691 -0.3450  0.1887  0.1882
28645W        W44829   4.099  17.899   1.088  0.1086 -0.0705  0.1435
28646W        W44830   1.010   5.193   4.687 -0.2206 -0.1077 -0.0343
28647W        W44831  16.888  17.151   1.332 -0.4298 -0.1025 -0.0528
28648W        W44832   5.922  13.822  12.097  0.0063 -0.2317 -0.0855
28649W        W44833  15.803  14.121   0.799  0.0136 -0.1105 -0.1514
28650W        W44834   1.119   1.193   4.812 -0.0349  0.0835 -0.1723
28651W        W44835  12.981   3.561  14.746 -0.1605  0.2199 -0.4370
28652W        W44836   6.680  14.229   5.048 -0.1199 -0.1968 -0.1667
28653W        W44837  13.104  15.936   1.185 -0.2461 -0.1330 -0.0990
28654W        W44838   5.969  15.559   0.982  0.0273 -0.0339 -0.2014
28655W        W44839  16.224   9.463   1.190  0.1593  0.2468  0.0025
28656W        W44840   2.243  17.377  13.764  0.1320 -0.2162 -0.0199
28657W        W44841   0.156   5.302  11.911 -0.0160  0.2417 -0.1103
28658W        W44842  17.046   8.150  14.214  0.2034 -0.0735  0.0916
28659W        W44843   5.537  16.305   2.150  0.4074  0.2570 -0.2741
28660W        W44844   8.172   0.568  14.186  0.0835  0.0095  0.1746
28661W        W44845   3.029  14.772   4.697  0.0389  0.4699 -0.3000
28662W        W44846  16.908   6.990  16.360 -0.0218 -0.1756  0.3984
28663W        W44847   7.338   6.451   3.031 -0.2357 -0.0446  0.1636
28664W        W44848  16.911  16.653  13.015 -0.0292  0.1026  0.1893
28665W        W44849  10.642   5.391   1.097 -0.3260  0.0128 -0.1442
28666W        W44850   7.430   7.507   5.876  0.1250 -0.3030 -0.0565
28667W        W44851   2.223  12.059   1.845  0.0127  0.1498 -0.1492
28668W        W44852   5.757   7.951   2.541 -0.2163 -0.0279 -0.0662
28669W        W44853  12.461  15.475   3.639  0.0678  0.1451  0.0423
28670W        W44854   5.011   6.956  15.187  0.1035 -0.0406  0.0710
28671W        W44855   4.951   1.959   5.159  0.1809 -0.1555  0.1158
28672W        W44856   7.324   1.880   5.049  0.0234 -0.0192  0.2196
28673W        W44857   4.852  15.190   0.425 -0.1686  0.0360 -0.0905
28674W        W44858   5.639   8.081  14.080 -0.2280 -0.2204 -0.1633
28675W        W44859  13.836   4.688   1.460  0.0502 -0.2594 -0.1326
28676W        W44860  10.040   6.040   3.953  0.1230 -0.0491  0.1151
28677W        W44861   8.222   4.759   5.188 -0.0077  0.0231 -0.0905
28678W        W44862  14.157   1.872  15.779 -0.0053 -0.0093  0.2993
28679W        W44863  17.799   8.767   2.401 -0.0306  0.0412 -0.4230
28680W        W44864  17.090   4.362  13.871 -0.0106  0.0967 -0.1898
28681W        W44865   6.747   4.892   4.344  0.0432  0.1802 -0.1784
28682W        W44866   1.118   4.125   0.746  0.2093 -0.1817 -0.2813
28683W        W44867   7.997   4.342   2.097  0.0088 -0.0294 -0.0764
28684W        W44868   3.688   4.071   0.550  0.1318 -0.0909 -0.0869
28685W        W44869   3.015  14.754   2.932 -0.2201 -0.1091  0.0205
28686W        W44870   9.078   2.925  12.023 -0.0498  0.0182  0.0110
28687W        W44871   3.948  15.922  11.370 -0.1432 -0.2370 -0.2986
28688W        W44872   3.017   2.948   2.649 -0.1468  0.2202  0.1597
28689W        W44873   5.501  16.058   4.778  0.0204 -0.1736  0.0734
28690W        W44874  16.568  15.452  16.184 -0.2124  0.0495 -0.0671
28691W        W44875   6.976  13.401  14.258  0.0179 -0.0940  0.3870
28692W        W44876   0.623   9.411  13.074 -0.2284 -0.0879  0.1168
28693W        W44877  16.997  12.015   1.768 -0.2164 -0.0598  0.0885
28694W        W44878   7.992  15.989   0.751 -0.0753 -0.1487 -0.2038
28695W        W44879   1.821  11.534   4.615  0.0711 -0.1708  0.1376
28696W        W44880  11.777   6.063   3.524 -0.2982 -0.0610 -0.1207
28697W        W44881   1.642   6.812   0.064 -0.0374  0.0813 -0.2360
28698W        W44882   4.832   6.692   4.149  0.2130 -0.0833  0.0824
28699W        W44883  13.876  10.748   4.574 -0.2132 -0.0667  0.1260
28700W        W44884  11.432   5.551  15.264 -0.0209  0.0539 -0.0466
28701W        W44885   4.656  16.524   1.615 -0.1211  0.0584  0.0453
28702W        W44886   9.176  10.039  14.599  0.3003 -0.0196  0.1380
28703W        W44887  14.139   2.076  16.311  0.0268 -0.4495  0.3332
28704W        W44888   1.188   6.752  12.286 -0.1874  0.2089  0.3003
28705W        W44889  14.483  16.873   5.931 -0.0959 -0.0132 -0.2027
28706W        W44890  11.672  15.398  13.514 -0.0419  0.1524 -0.1318
28707W        W44891   7.948   3.318  15.408 -0.0141 -0.1185  0.1946
28708W        W44892   5.296  16.975   1.446  0.0157  0.0315 -0.1296
28709W        W44893  14.365  14.032  12.612 -0.0629  0.0697 -0.0947
28710W        W44894   1.434  15.102   5.198 -0.0072 -0.1156 -0.0753
28711W        W44895  14.171  16.245  13.072 -0.0261  0.1611  0.2553
28712W        W44896  14.519   8.275  12.554 -0.0350 -0.3863 -0.2217
28713W        W44897   8.293   7.806  14.738  0.1957 -0.0656  0.1010
28714W        W44898  17.229   1.751   4.359  0.3973 -0.0790 -0.0519
28715W        W44899   8.814   3.175   2.487 -0.1911 -0.3871 -0.1018
28716W        W44900  13.868   2.758  13.097  0.2233  0.0146 -0.4693
28717W        W44901   0.150   6.625  15.503 -0.2672  0.1684  0.3238
28718W        W44902  16.624  16.957  16.651 -0.0967  0.0320  0.0526
28719W        W44903  13.906   5.135   3.148  0.0864 -0.0079  0.1044
28720W        W44904  17.487   5.606   4.745  0.0340 -0.2421 -0.2148
28721W        W44905  15.098  16.631   2.622 -0.0709 -0.0093  0.1860
28722W        W44906  15.009  14.273  16.285  0.0965  0.2046  0.2391
28723W        W44907  17.656   9.627  16.349  0.3737 -0.1298 -0.2151
28724W        W44908  15.324   5.347   4.400 -0.1475 -0.0845 -0.1911
28725W        W44909   6.908   7.555   6.123 -0.1240  0.2650  0.3540
28726W        W44910  14.307  15.947  13.983  0.4039 -0.0558  0.0172
28727W        W44911   4.112  10.849   6.271  0.0604 -0.3069 -0.0440
28728W        W44912   3.274  10.739   4.772 -0.1403  0.0495  0.3430
28729W        W44913   9.290  12.654   4.699  0.4555 -0.1026  0.0752
28730W        W44914   6.742   8.209  11.611  0.0343 -0.1214 -0.0245
28731W        W44915   0.819  17.443   5.345  0.1447  0.0887 -0.0698
28732W        W44916  10.001   9.423  11.272 -0.0009  0.1548 -0.2240
28733W        W44917  16.568   1.226  12.548 -0.1667  0.2534 -0.1743
28734W        W44918  17.686   5.130  12.088  0.2284  0.1901  0.0914
28735W        W44919   8.221   2.074   5.185  0.0735  0.1548 -0.3745
28736W        W44920   9.759  12.504  15.010 -0.1431 -0.1667  0.2765
28737W        W44921  12.581   1.026   2.089 -0.2137  0.0399 -0.1160
28738W        W44922   1.780   4.769   3.669 -0.0261 -0.0814  0.3566
28739W        W44923   0.875   8.763  14.801  0.0034  0.3135  0.0016
28740W        W44924   8.325  17.363   0.867 -0.0679 -0.1437 -0.1794
28741W        W44925   9.806   3.502  16.370 -0.0296 -0.1328  0.0214
28742W        W44926  17.238  15.278   0.078 -0.2511 -0.0735  0.1160
28743W        W44927   6.922  16.892   1.565 -0.1618 -0.0984  0.0297
28744W        W44928  11.467   0.567   3.947 -0.0300  0.1313  0.1496
28745W        W44929   1.232   5.706   3.393 -0.0609 -0.1681 -0.1636
28746W        W44930  12.968   2.093  15.155 -0.1406 -0.0206 -0.2017
28747W        W44931   7.472  17.706   3.737 -0.0022  0.0300  0.0700
28748W        W44932   4.612   1.068  11.574  0.0164 -0.0338 -0.1399
28749W        W44933  15.602  13.325  16.133 -0.2221 -0.1569  0.0560
28750W        W44934  11.000   3.301   1.374  0.0177 -0.0334  0.1519
28751W        W44935   3.863  13.353  11.392  0.0055  0.0627 -0.2159
28752W        W44936  17.638   3.178  13.726 -0.1426  0.0369 -0.1127
28753W        W44937   9.581  12.979   4.402 -0.0208  0.0188  0.0427
28754W        W44938   4.048   0.217  13.736  0.0891 -0.0616  0.0034
28755W        W44939  13.511   9.907  12.700 -0.2425  0.0040  0.0373
28756W        W44940   6.436  12.675   2.052 -0.3350 -0.2096 -0.0845
28757W        W44941   8.006   8.806  14.355 -0.2005  0.2924 -0.4026
28758W        W44942   4.452   2.991   2.534 -0.0766 -0.0108  0.0802
28759W        W44943  11.150  14.157   1.611  0.1261 -0.0093 -0.0871
28760W        W44944   5.985  17.602   1.156 -0.0036 -0.2319  0.4907
28761W        W44945   7.792  14.626  13.986  0.0611  0.0057 -0.0337
28762W        W44946   8.126  17.794   2.478 -0.2787 -0.0828  0.1492
28763W        W44947   4.469   8.875  12.084  0.0604  0.0297 -0.0632
28764W        W44948   5.150  11.862   4.165 -0.1878 -0.3148  0.3151
28765W        W44949   2.783  15.022   4.281  0.0040  0.2155  0.0554
28766W        W44950  11.146   3.920   4.280 -0.3437  0.3687 -0.2109
28767W        W44951   5.003  13.102  16.461 -0.2053  0.1562  0.1228
28768W        W44952   1.277  16.784   5.615  0.2952  0.0957  0.1486
28769W        W44953  16.114   8.892   5.535 -0.0842  0.0521  0.3139
28770W        W44954   8.708  13.015   3.441  0.1745 -0.0587 -0.0864
28771W        W44955  16.593  11.876   4.072 -0.2182  0.0457  0.2883
28772W        W44956   0.313  12.490  13.874  0.1120 -0.1153 -0.0035
28773W        W44957   1.238  10.883  15.139  0.0531  0.0256  0.1377
28774W        W44958   7.669  12.977  16.233  0.0445  0.1105  0.0537
28775W        W44959  10.954  14.709  15.335 -0.0967 -0.0737  0.1388
28776W        W44960   6.002  15.657   3.491  0.2478 -0.1145 -0.0086
28777W        W44961  12.592  16.160   1.301 -0.3774  0.1456  0.0312
28778W        W44962   1.055   6.909   0.597  0.0501 -0.0251 -0.0543
28779W        W44963   1.902   9.188   4.987 -0.1083 -0.1232  0.1413
28780W        W44964   0.511   1.660   4.249  0.0073 -0.0072  0.1392
28781W        W44965   0.354   9.971  14.056  0.2624  0.4600  0.1624
28782W        W44966   2.699  15.200   1.292  0.0311 -0.0700 -0.1337
28783W        W44967  14.202   3.178  14.541  0.3186 -0.1798 -0.2224
28784W        W44968   3.500   0.743   3.382 -0.1023  0.1969 -0.3358
28785W        W44969   4.865  13.034   3.642  0.0078 -0.2613  0.0274
28786W        W44970   3.674  10.367  14.849 -0.1499 -0.2718 -0.4568
28787W        W44971   3.807  15.108   2.570 -0.3545  0.0033  0.0318
28788W        W44972  16.117  12.285   5.539  0.3147  0.0355 -0.0021
28789W        W44973   3.616   0.441  12.733 -0.1494 -0.1758  0.0009
28790W        W44974  17.795   3.286  12.295  0.0256 -0.1892 -0.2770
28791W        W44975  16.135   1.455  12.067 -0.2333  0.5119 -0.0867
28792W        W44976   6.322  11.523  13.590  0.3041  0.0461  0.4168
28793W        W44977   4.550   4.789   3.481 -0.0514 -0.0276  0.2743
28794W        W44978   4.056   5.449  16.545 -0.0357  0.0387  0.0133
28795W        W44979   1.604  17.039  13.235  0.2173  0.0493 -0.2891
28796W        W44980  10.240   1.928  15.147  0.0949  0.0340  0.4083
28797W        W44981   9.886   0.662   0.269 -0.1125  0.1729  0.0046
28798W        W44982   0.684  13.866  11.419 -0.0881  0.0087  0.0110
28799W        W44983  13.240   0.648   1.943 -0.0919 -0.0535 -0.1619
28800W        W44984   8.685   0.373  13.753 -0.4129 -0.0202  0.0264
28801W        W44985   9.216   9.991   2.580 -0.1832 -0.1120 -0.1648
28802W        W44986   0.713   2.950  14.535  0.0592  0.3343 -0.0464
28803W        W44987   5.336  17.392  15.359 -0.1078 -0.0311  0.4796
28804W        W44988   0.650  14.682   4.290 -0.0247  0.1685  0.1453
28805W        W44989  11.065   0.234  14.090  0.0904 -0.0157  0.1888
28806W        W44990   6.673   5.837   1.156  0.0166  0.0733 -0.0027
28807W        W44991   4.744   7.824   3.458 -0.0550 -0.0407 -0.0880
28808W        W44992   1.419  17.861   2.916  0.1493  0.0324  0.3007
28809W        W44993   0.893   3.813   3.242  0.0711  0.0760  0.1420
28810W        W44994   4.375  17.293  13.283  0.0489 -0.1122  0.0504
28811W        W44995  10.123   1.645   4.082 -0.1703 -0.1733  0.3774
28812W        W44996   7.074  16.293   3.098  0.0583 -0.1025 -0.0611
28813W        W44997   6.979   5.723   3.654  0.1262 -0.0499  0.2380
28814W        W44998   3.413  15.640  15.692 -0.1753 -0.1822  0.1458
28815W        W44999  16.486   3.937   0.957 -0.2236  0.2284  0.0484
28816W        W45000  12.455   7.995   2.208 -0.1669  0.2950 -0.0582
28817W        W45001   6.172   1.487   2.475 -0.1538 -0.0029 -0.1775
28818W        W45002  10.981   3.200   1.898 -0.2280  0.0219 -0.1905
28819W        W45003   6.197   9.008  14.740  0.1836  0.2086 -0.1940
28820W        W45004   6.268   6.691  13.368 -0.1735  0.0710 -0.0339
28821W        W45005   2.001   9.865  13.141  0.4016 -0.0236 -0.0935
28822W        W45006   9.430   2.961  14.983 -0.0416 -0.0579 -0.1299
28823W        W45007  17.371   5.585   1.757  0.0317 -0.2206  0.0616
28824W        W45008   1.391   6.671  14.046 -0.1247  0.0073 -0.3327
28825W        W45009   5.248   6.446  16.163  0.0371 -0.2089 -0.0021
28826W        W45010   5.206  10.854  10.723 -0.1697  0.0520 -0.0632
28827W        W45011  13.948   5.842   4.683  0.0388  0.2275 -0.0200
28828W        W45012  17.146   1.250  16.396  0.0277  0.1022 -0.1347
28829W        W45013   9.907   0.906   3.394  0.1141 -0.0123 -0.2464
28830W        W45014  11.677  13.393  15.996  0.1319 -0.2791 -0.3144
28831W        W45015  15.993   5.863  15.180  0.2447 -0.0756 -0.1988
28832W        W45016  14.681   1.702   3.884  0.1696 -0.3448  0.1348
28833W        W45017   1.483   1.457   5.037 -0.2257  0.0644 -0.1847
28834W        W45018   6.970   7.771  12.865  0.0500  0.2886  0.1755
28835W        W45019  13.269   8.475   2.610 -0.0104 -0.0880 -0.0827
28836W        W45020  12.165   5.176   1.407 -0.0034  0.3033  0.1496
28837W        W45021  12.124   6.746   5.543  0.0664  0.0538  0.2114
28838W        W45022   5.719  15.619  12.996 -0.2331  0.0166  0.1344
28839W        W45023   6.563  10.828  16.443 -0.0806  0.0993 -0.0483
28840W        W45024  16.828   7.127  12.765  0.0757  0.0173  0.0156
28841W        W45025   5.392  13.910   1.767  0.0421  0.0814 -0.2604
28842W        W45026  15.570   9.699   1.646 -0.3263 -0.1279  0.0734
28843W        W45027   6.318  14.933   3.823 -0.0253 -0.2139  0.0877
28844W        W45028  11.376  17.601   5.907 -0.0389 -0.0623  0.0554
28845W        W45029   1.700   8.177  13.547 -0.0233  0.0312  0.5668
28846W        W45030   1.883  12.723  11.589 -0.0976 -0.2590  0.1978
28847W        W45031  13.945   9.502  16.267  0.0236 -0.2041  0.1309
28848W        W45032  10.269   1.112  11.606  0.0342 -0.0799 -0.0647
28849W        W45033  15.030   3.644  16.614 -0.0160  0.0956 -0.2461
28850W        W45034  17.034   0.890  14.742 -0.1956  0.3241 -0.1607
28851W        W45035  14.168   6.001   2.960 -0.1164 -0.0017  0.0217
28852W        W45036   8.831   9.023   5.399  0.2471 -0.1117 -0.0391
28853W        W45037  17.585  11.746   4.389  0.0705  0.0897  0.0304
28854W        W45038   3.235   6.540   4.700  0.0765 -0.1099  0.3227
28855W        W45039   9.389   8.238   1.366 -0.0562  0.1504 -0.1205
28856W        W45040  16.941   2.903  14.466  0.4944  0.4374 -0.0339
28857W        W45041   6.090   3.481   1.047  0.1845 -0.3863 -0.1458
28858W        W45042  14.201  17.685   1.169 -0.0587 -0.2288  0.2324
28859W        W45043   8.091   8.707   6.545 -0.0791  0.2195  0.0429
28860W        W45044   4.309   3.323  14.507 -0.2396 -0.0753 -0.3705
28861W        W45045   6.151   8.908   2.422 -0.0909 -0.1437 -0.0811
28862W        W45046   8.258  12.347   1.790  0.1638 -0.0030  0.3580
28863W        W45047   0.898  16.629  11.770  0.3492  0.1379  0.1852
28864W        W45048   9.592   0.770  12.235 -0.0708  0.0129 -0.3143
28865W        W45049   4.279  15.050  13.448  0.0245 -0.0271  0.1893
28866W        W45050  14.241  14.893   3.553  0.3827 -0.0678  0.2140
28867W        W45051  10.168  14.533   2.428  0.3517  0.0964 -0.1413
28868W        W45052  17.219  11.252  12.949  0.2096  0.2181  0.0018
28869W        W45053   8.201  10.820  13.892  0.2852 -0.0535 -0.3224
28870W        W45054  17.361   5.783  16.673  0.4352 -0.0424 -0.0713
28871W        W45055  14.243   3.351   4.463 -0.0918 -0.0669 -0.2392
28872W        W45056   8.070   7.007   6.131  0.0723  0.1868 -0.1307
28873W        W45057  13.718   3.963   2.366  0.1347 -0.2709  0.2939
28874W        W45058   1.307  13.302  11.890 -0.0362  0.0437  0.0659
28875W        W45059  13.693   0.002   1.874 -0.0133  0.2750 -0.0630
28876W        W45060   5.789  12.869   0.958  0.0015  0.2299 -0.1352
28877W        W45061  13.886  12.175  15.938 -0.1069  0.0557 -0.1260
28878W        W45062   2.390   4.376  11.934  0.2716  0.1684  0.0102
28879W        W45063  10.671   0.250  13.146 -0.2832 -0.1339 -0.1275
28880W        W45064   7.741   2.535  11.410  0.0197  0.1294  0.0173
28881W        W45065   3.547   2.007   1.919 -0.1582  0.2836 -0.4190
28882W        W45066   8.509  13.605   3.562  0.0135 -0.1318  0.0515
28883W        W45067  13.045  15.554   3.712  0.0339  0.2413  0.0358
28884W        W45068   4.787   4.382   3.307  0.1268 -0.0697  0.0157
28885W        W45069  15.602   5.839  12.934  0.1155  0.0429 -0.2245
28886W        W45070   1.204   2.223   4.290 -0.1440  0.0302 -0.3153
28887W        W45071  11.916   1.020  16.590  0.1317 -0.1181 -0.2863
28888W        W45072  12.215   0.266  13.973 -0.0088  0.2723  0.2505
28889W        W45073  12.395   4.281   4.896 -0.2853  0.0227  0.2218
28890W        W45074   8.906  17.164  13.126  0.1750 -0.2504  0.1317
28891W        W45075   2.166   6.177   3.391  0.0854 -0.1576 -0.0578
28892W        W45076   2.146   8.753  15.711 -0.1518  0.0366 -0.1219
28893W        W45077   0.895  11.504  14.540 -0.0318  0.0437  0.0966
28894W        W45078  12.546   4.316  15.821 -0.3964  0.0533 -0.0624
28895W        W45079  11.446   8.255  14.658 -0.0264 -0.3210  0.4322
28896W        W45080  16.996  15.475   4.536 -0.1251  0.2072 -0.1966
28897W        W45081   6.804  15.248   1.184  0.1277 -0.0162  0.0733
28898W        W45082  13.407  13.287   1.070 -0.3129  0.2344 -0.1750
28899W        W45083  11.078   6.925   2.060  0.0690  0.1614  0.0437
28900W        W45084  14.758  10.474  15.282 -0.0075  0.0437 -0.1725
28901W        W45085   8.081  16.275  13.635  0.0771 -0.4553 -0.2694
28902W        W45086   1.332  14.278   5.052  0.0306  0.0317  0.0463
28903W        W45087  13.645   8.136  10.718  0.0421 -0.1332  0.0195
28904W        W45088   5.382   4.561   5.072 -0.0650 -0.2347  0.4786
28905W        W45089  10.642   0.365  14.828  0.0398 -0.0170 -0.1815
28906W        W45090   3.799  10.851  15.887  0.3211 -0.1201  0.0515
28907W        W45091  10.184  10.665  13.549  0.0171  0.1237  0.3292
28908W        W45092  14.562   1.239   0.185 -0.0607 -0.3041 -0.1941
28909W        W45093  10.233   7.668  10.498 -0.1698 -0.0647  0.1128
28910W        W45094   2.460   3.719  14.817 -0.1616  0.1284 -0.1274
28911W        W45095   4.075  11.722  15.625  0.0383 -0.0383 -0.3540
28912W        W45096  11.839   7.330  12.932 -0.0995 -0.0081  0.0514
28913W        W45097  12.684   5.727  16.290 -0.0847  0.0963 -0.3414
28914W        W45098  17.643   7.689  15.100  0.1598  0.2087  0.2508
28915W        W45099  17.469   4.685   5.271  0.1515 -0.3255  0.0116
28916W        W45100   2.240   8.510   3.173  0.2058 -0.1642 -0.0368
28917W        W45101   1.433   9.640  15.949 -0.1569 -0.0506 -0.0122
28918W        W45102  11.404  17.404  15.157  0.2781  0.0149 -0.3826
28919W        W45103  10.141   6.833   4.999  0.2308  0.0198  0.0637
28920W        W45104   9.272  12.985  11.200  0.1049 -0.0576 -0.1026
28921W        W45105  10.977  12.955  13.918  0.2187 -0.1378  0.1744
28922W        W45106  15.108   6.524   3.888  0.1816 -0.2546  0.2343
28923W        W45107  16.463  13.041  12.312 -0.0883 -0.2274  0.0519
28924W        W45108   3.397  14.915   0.839  0.0829 -0.0865  0.0870
28925W        W45109   3.288  11.071   3.914 -0.1440  0.2600 -0.3736
28926W        W45110  10.239  13.062  14.813  0.1290 -0.3904  0.1712
28927W        W45111   1.795   5.034   6.448 -0.0032  0.0744 -0.1192
28928W        W45112   3.750  14.073   4.313  0.0516  0.4755 -0.3514
28929W        W45113   6.072   6.455  15.635  0.0319 -0.0019 -0.1576
28930W        W45114  12.595   1.799  11.792  0.0381 -0.2018  0.0936
28931W        W45115   8.000   0.876   3.304 -0.2786 -0.0373 -0.1072
28932W        W45116   3.165  17.609   2.636  0.2860 -0.1639  0.0475
28933W        W45117   9.517  12.872   2.853 -0.0801  0.0434  0.2555
28934W        W45118  12.396   2.075   3.843 -0.0202  0.2331 -0.0935
28935W        W45119   4.161  13.191  15.907  0.2035  0.2785  0.0503
28936W        W45120  16.920   2.833  16.292  0.0716 -0.0631  0.0129
28937W        W45121   1.010   5.016  15.273 -0.3475  0.4743 -0.0242
28938W        W45122   1.126  16.144  13.587  0.0380 -0.3015  0.0194
28939W        W45123   1.343  10.878  11.914  0.1484 -0.0294 -0.2532
28940W        W45124  10.057   8.900   0.741  0.1968 -0.2304 -0.0047
28941W        W45125  17.081   3.160  11.320 -0.1532 -0.1473  0.1511
28942W        W45126  11.575  16.667   4.265  0.2557  0.3014  0.0436
28943W        W45127  17.019  11.196   4.683  0.1352  0.1338 -0.2674
28944W        W45128   9.677  13.403   3.065  0.0391 -0.3046  0.2904
28945W        W45129  10.200  15.178  15.988 -0.0010  0.0012  0.1812
28946W        W45130   7.689  15.468   3.624 -0.0034 -0.2207 -0.3545
28947W        W45131   3.813   6.266  16.443  0.0120 -0.2993  0.1885
28948W        W45132  16.798  10.970   5.769 -0.1005 -0.2988 -0.0968
28949W        W45133  12.361   3.755  14.561  0.1373  0.1671 -0.1398
28950W        W45134  10.937   5.292   0.241  0.0470 -0.1148 -0.0025
28951W        W45135  16.792   8.372   1.716  0.0054  0.0587  0.1857
28952W        W45136   8.432   2.292   0.292  0.4817 -0.1241  0.0266
28953W        W45137  13.786  11.938   4.983  0.0014 -0.0660  0.0107
28954W        W45138  11.419   8.929  11.738  0.2337 -0.2074  0.0102
28955W        W45139   0.447   4.950  11.741 -0.1050  0.1929 -0.0184
28956W        W45140  17.831  15.775  12.259 -0.0098 -0.0836  0.1046
28957W        W45141  17.175   8.006  15.615 -0.2224  0.0183 -0.0487
28958W        W45142   0.715   9.730  12.124  0.0630 -0.0730 -0.1437
28959W        W45143  15.557   5.078  15.937  0.0280 -0.1018 -0.0838
28960W        W45144  14.579  16.295  13.768  0.0365  0.1404 -0.0749
28961W        W45145   4.317   7.584   1.659  0.0280 -0.2576 -0.1831
28962W        W45146  13.451   8.887  12.768 -0.1698  0.2411 -0.0017
28963W        W45147   9.746  13.857  12.217  0.1629 -0.1619 -0.0764
28964W        W45148  17.098   4.817  16.211  0.0476  0.0981 -0.1754
28965W        W45149   9.847  17.514   1.718 -0.1130 -0.1954 -0.1898
28966W        W45150   1.176   2.773   2.716  0.1799 -0.0283  0.2333
28967W        W45151   8.095  12.636  15.258 -0.1185  0.2180 -0.0614
28968W        W45152  12.985  15.604   2.854 -0.0992 -0.1542 -0.1842
28969W        W45153   4.519   1.769  16.452 -0.1698  0.1823  0.0094
28970W        W45154  14.182   5.165  15.750 -0.2488 -0.1980  0.1302
28971W        W45155   5.586  10.426   2.285  0.3506  0.1619  0.0472
28972W        W45156  11.011  13.808   3.236  0.0707 -0.0756 -0.0353
28973W        W45157   4.721   0.982   0.825  0.0138 -0.1645  0.1968
28974W        W45158   4.394  14.442   2.534  0.0841 -0.0074  0.2629
28975W        W45159  13.624   4.158  14.701  0.2062 -0.0726  0.4419
28976W        W45160  10.620  17.816  14.897  0.0967  0.0473  0.2951
28977W        W45161   0.653   7.159   4.097 -0.3300 -0.1425 -0.1197
28978W        W45162   8.667  16.932   3.876  0.0393  0.1634 -0.1375
28979W        W45163   7.056   0.951   3.469 -0.0363 -0.1230  0.0753
28980W        W45164  14.551  15.838   4.761  0.0823 -0.2656  0.1208
28981W        W45165  15.076  11.275   1.223  0.0330  0.0663 -0.1468
28982W        W45166  12.700  15.702  12.772 -0.0726  0.0324  0.3357
28983W        W45167  16.177   0.436   5.826  0.0722  0.0695  0.0667
28984W        W45168   3.308  16.016  16.565 -0.1670 -0.1255  0.1561
28985W        W45169   9.037   4.720   5.726  0.1449  0.0957  0.1119
28986W        W45170  10.406  12.618   2.687  0.1971  0.3285  0.1578
28987W        W45171   5.655   6.115  15.753  0.0360  0.5519  0.1016
28988W        W45172   3.623  13.759  16.525  0.0844  0.0884  0.0428
28989W        W45173   8.257  16.370   2.130 -0.0426 -0.2396  0.0398
28990W        W45174   1.415   9.662  14.845  0.1946 -0.1514 -0.2162
28991W        W45175   4.532   9.589  12.557 -0.3072  0.0990  0.2993
28992W        W45176   6.260  12.091   1.151 -0.1125  0.0219  0.0063
28993W        W45177   3.348  10.054  15.110 -0.0491 -0.2793  0.0886
28994W        W45178   8.875   2.236   4.604 -0.0894  0.0320 -0.1395
28995W        W45179   8.434  17.462   5.321  0.0451  0.0162  0.0918
28996W        W45180  16.324  15.628   0.871 -0.3393 -0.0125 -0.1104
28997W        W45181   9.877  13.962   0.930 -0.1683 -0.2241 -0.1172
28998W        W45182  16.796   6.329   5.097 -0.0111  0.3227 -0.3550
28999W        W45183   3.124  17.235  14.849  0.0086 -0.2105  0.0422
29000W        W45184  17.458  16.425  14.588 -0.2213  0.0064  0.1289
29001W        W45185  16.256  10.759   4.164 -0.2203  0.0766 -0.0096
29002W        W45186  12.714  14.907   4.251  0.0200 -0.2799 -0.0042
29003W        W45187   1.315   7.899   2.003 -0.3422  0.2214  0.1228
29004W        W45188   8.415   4.744  14.049 -0.0110  0.2321 -0.0053
29005W        W45189   4.301  13.523   1.410 -0.2550 -0.0739  0.0557
29006W        W45190  10.224   9.706   3.417 -0.0160 -0.0194 -0.3197
29007W        W45191  14.568  12.396   3.182  0.0478  0.1947 -0.0591
29008W        W45192   8.380   8.294  15.526 -0.1006 -0.0089  0.3234
29009W        W45193   6.336  11.416   3.171 -0.2387  0.0741  0.3173
29010W        W45194   0.766   4.413   3.589  0.1546 -0.2322  0.1579
29011W        W45195  13.411  17.485   5.093  0.0351  0.1001 -0.1852
29012W        W45196  15.070   5.602   1.498  0.3657  0.2412 -0.0753
29013W        W45197   9.612   5.283  12.754 -0.0436 -0.0398  0.2676
29014W        W45198  12.835  10.967  15.843 -0.1839 -0.2119 -0.0999
29015W        W45199   4.695  14.040  13.067 -0.2057  0.0045  0.0580
29016W        W45200  15.534   9.095   5.173  0.0945 -0.2349  0.2303
29017W        W45201   9.875   6.944   0.701 -0.0527 -0.0423  0.1019
29018W        W45202   7.534   5.351   1.100 -0.2539  0.4611  0.0118
29019W        W45203   6.673   8.159   6.088 -0.1251  0.1600 -0.0253
29020W        W45204  10.078   7.585  11.919 -0.1543 -0.1318 -0.1476
29021W        W45205   4.747   2.005   4.731 -0.0374 -0.0494 -0.3347
29022W        W45206   3.666   7.856  12.159  0.0865  0.2571  0.4108
29023W        W45207   8.025  14.017   0.562 -0.2277  0.0405  0.0851
29024W        W45208   6.980   8.851  16.182  0.3109  0.2970  0.0094
29025W        W45209  10.099  17.122  11.841 -0.2008  0.0395  0.3140
29026W        W45210   7.562  16.342  13.521 -0.0327 -0.3710  0.0069
29027W        W45211  14.976   9.620  11.480  0.0679 -0.0090  0.2404
29028W        W45212   7.138  12.925   1.571  0.0076  0.0401 -0.0295
29029W        W45213  17.989  11.517   1.016  0.3087 -0.0264 -0.1797
29030W        W45214  13.824  13.466  12.757  0.0549  0.0112 -0.0021
29031W        W45215   1.720  14.543  15.508  0.0405  0.0132 -0.0095
29032W        W45216   7.713   8.631   1.025 -0.1593 -0.1548 -0.1753
29033W        W45217  14.613   7.935   0.016 -0.0848  0.1784  0.2496
29034W        W45218   0.902   6.204  15.527 -0.1080  0.1683  0.0102
29035W        W45219   1.562  10.574   5.518 -0.2131 -0.0038 -0.1839
29036W        W45220   4.595  13.386  14.390  0.0221 -0.1036  0.0538
29037W        W45221  13.547  11.053  13.631  0.0014 -0.2848 -0.1410
29038W        W45222  14.680   4.897  13.174 -0.1796  0.0226  0.5812
29039W        W45223  17.241   6.446   5.847  0.1616 -0.1798  0.0450
29040W        W45224  15.552   6.383  15.980  0.0245  0.0938  0.0681
29041W        W45225   5.322   0.133   2.800 -0.2806  0.4222  0.2238
29042W        W45226   0.372   0.300   3.530 -0.0105 -0.1785  0.0707
29043W        W45227   8.398  15.953  15.100  0.4401  0.0806 -0.1036
29044W        W45228   7.762   1.643  12.335  0.2651  0.0789  0.2271
29045W        W45229   8.262  13.100  12.248 -0.5226  0.2444  0.2081
29046W        W45230  17.090   0.294   5.377 -0.2485 -0.0890  0.0217
29047W        W45231   4.769  12.646   3.195  0.1524 -0.2662  0.3098
29048W        W45232   2.210  13.520  15.709  0.3865  0.3256  0.0265
29049W        W45233  11.709   7.067   5.362 -0.2565  0.0454 -0.1089
29050W        W45234   9.242   3.894  15.194 -0.2359 -0.1350 -0.2948
29051W        W45235   4.180   8.745  15.328  0.0188 -0.0398  0.0158
29052W        W45236   7.000  16.834   2.560 -0.0350  0.3199  0.1971
29053W        W45237   0.003  11.031   1.278  0.0488  0.0019  0.2449
29054W        W45238   8.359   6.307   3.621  0.2031 -0.0067 -0.2404
29055W        W45239   2.865   6.062  12.106 -0.2061 -0.2041 -0.2827
29056W        W45240   0.132   7.832   0.775  0.0369 -0.0094 -0.3963
29057W        W45241  14.066  16.650  11.976 -0.0752  0.1415  0.0974
29058W        W45242  11.125  10.937   4.183 -0.0510  0.4873 -0.0457
29059W        W45243  11.710   2.605  12.598  0.1509 -0.1871  0.1535
29060W        W45244   7.519  16.416   5.341 -0.0712 -0.0938 -0.0835
29061W        W45245   2.761  16.904  10.929 -0.3980 -0.2732 -0.0528
29062W        W45246  16.366  13.570   1.382 -0.1063 -0.0522  0.0951
29063W        W45247   1.484  16.448   3.387 -0.2882  0.0538 -0.0519
29064W        W45248  10.154  14.297  11.555  0.1715  0.0682  0.2420
29065W        W45249   4.965  17.694   3.622  0.0613  0.1819  0.1473
29066W        W45250  12.380   0.177   2.037 -0.2633  0.0888 -0.0116
29067W        W45251   4.860  14.159   2.493  0.3368 -0.0705  0.1478
29068W        W45252  13.372   1.336   3.653 -0.0773 -0.0101 -0.1381
29069W        W45253  14.935  17.551   0.718  0.0037  0.0948 -0.2086
29070W        W45254  11.943   2.259   2.013 -0.0054 -0.1346 -0.1255
29071W        W45255  10.925  10.705  15.759 -0.2079  0.3245  0.1117
29072W        W45256  10.280  11.684  15.146  0.0643  0.0157  0.2226
29073W        W45257  13.483  10.954   0.369  0.2569 -0.3734 -0.0181
29074W        W45258   6.553  16.426   4.265 -0.3126 -0.1938 -0.1313
29075W        W45259  10.943   4.813   0.472  0.1788  0.0857 -0.0233
29076W        W45260   6.198   8.307   0.581 -0.1345  0.2530 -0.1937
29077W        W45261  11.950  15.374  12.128  0.0764  0.0453  0.0110
29078W        W45262   1.646   2.394   3.457  0.1429  0.0947 -0.3760
29079W        W45263   8.022  10.440   4.448 -0.0359  0.0009 -0.0210
29080W        W45264  13.270   1.300   1.507  0.5249  0.1246 -0.0130
29081W        W45265  16.325   4.595  13.409 -0.1629 -0.1472  0.0360
29082W        W45266  17.858  11.524   0.269  0.2442 -0.1139  0.0818
29083W        W45267   8.415   8.607  16.344 -0.2799  0.1936  0.0748
29084W        W45268   3.658  14.248   3.413 -0.0426  0.0141 -0.2100
29085W        W45269   9.533   5.600   0.423 -0.0175 -0.2295  0.0590
29086W        W45270  10.122  10.838  15.972  0.2619  0.0383 -0.1164
29087W        W45271  15.946  12.416   2.786  0.0936  0.3380 -0.2424
29088W        W45272   2.587  12.093   3.432  0.0533  0.0833 -0.1903
29089W        W45273   6.703  12.170   2.045 -0.4047 -0.3991 -0.1170
29090W        W45274  10.082  16.143   3.807 -0.0374 -0.0101 -0.0325
29091W        W45275   6.362  10.210  14.889  0.0368 -0.0374  0.0014
29092W        W45276   9.821  14.441   3.209  0.1433 -0.0783  0.3661
29093W        W45277  16.635   1.715   3.383 -0.0345  0.0689  0.0052
29094W        W45278   6.434   7.866   1.274 -0.3506 -0.0187  0.3250
29095W        W45279   4.198  11.705  15.131 -0.0805 -0.0575  0.0693
29096W        W45280  15.990  14.995   2.837 -0.0843  0.4440 -0.0908
29097W        W45281   1.131  17.973   0.473 -0.2748  0.1106  0.0876
29098W        W45282   4.725   8.658  15.507  0.0511 -0.1604 -0.5001
29099W        W45283  17.935  10.897  16.306 -0.0415 -0.2089  0.2083
29100W        W45284  15.030   9.571   3.799  0.0916 -0.0609  0.0591
29101W        W45285   3.707  13.168   0.165 -0.3533 -0.2002 -0.0015
29102W        W45286  17.721   6.115   2.072  0.1085  0.0673 -0.1181
29103W        W45287  13.258   9.621   5.017  0.0944 -0.0771 -0.1289
29104W        W45288  10.152  15.812  13.555 -0.2404  0.0307  0.6965
29105W        W45289  17.153   7.778  15.189  0.2067 -0.0444  0.1953
29106W        W45290   6.224  16.446  13.009  0.0002 -0.0257  0.1979
29107W        W45291  11.541   7.430   1.336  0.1925  0.2456 -0.0469
29108W        W45292   1.307  12.190  16.558 -0.0405 -0.0514 -0.2901
29109W        W45293   1.675   7.693  16.426 -0.4057  0.2776 -0.2117
29110W        W45294  14.376   0.394  11.328  0.0519 -0.2889  0.0258
29111W        W45295   8.332  13.549  16.430  0.0165 -0.1634 -0.0022
29112W        W45296  12.975   9.912  16.461 -0.0524  0.2854  0.1399
29113W        W45297   4.956   4.662  15.264 -0.0934 -0.0617  0.1461
29114W        W45298  14.568   9.737   5.623 -0.0040  0.2995  0.1902
29115W        W45299  17.637   8.899  12.358  0.0566  0.0803  0.0720
29116W        W45300  15.495   6.681   1.885  0.0046  0.0294  0.2028
29117W        W45301   9.425  10.694   1.456 -0.1498  0.0948 -0.2232
29118W        W45302   9.440   4.948  16.568 -0.2268 -0.0206  0.0019
29119W        W45303  15.851   0.839   0.924 -0.0906 -0.0919 -0.0056
29120W        W45304   6.049   9.746   2.945 -0.0136 -0.0310  0.1513
29121W        W45305  13.339  15.830  13.427 -0.2984  0.0103 -0.1624
29122W        W45306  13.940  15.668   2.872  0.2474 -0.2521  0.0908
29123W        W45307   7.106   6.691  13.738 -0.0670 -0.1719  0.2247
29124W        W45308   4.627   9.076  12.499  0.2591  0.0551 -0.0720
29125W        W45309   9.427   3.923   1.757  0.0677  0.1311 -0.2366
29126W        W45310  16.431   5.313   2.014  0.1913  0.1713 -0.2478
29127W        W45311  15.053  14.465  13.267  0.0538  0.2429 -0.2391
29128W        W45312   6.206  11.147  12.837 -0.1059  0.0235 -0.4625
29129W        W45313  15.920   3.991  16.559 -0.0788 -0.3418 -0.3472
29130W        W45314  15.681   4.940  16.499  0.1965 -0.0182  0.1365
29131W        W45315   5.303  11.653   2.030 -0.1049  0.0822 -0.0109
29132W        W45316   7.752  16.560   1.909  0.1095 -0.2060 -0.2513
29133W        W45317   0.465  16.275  14.666 -0.1054  0.1246  0.1403
29134W        W45318   1.735   5.288   1.350 -0.2127  0.0532  0.0423
29135W        W45319   4.375   8.062   4.234 -0.2857  0.2395 -0.3271
29136W        W45320   6.086   3.229  14.025  0.0607 -0.0736  0.2566
29137W        W45321   4.043  16.666   4.940  0.1222  0.1375  0.0253
29138W        W45322  13.699   8.630  11.468 -0.3457 -0.0754 -0.0116
29139W        W45323   4.886  17.657   6.147 -0.1789 -0.4000 -0.0271
29140W        W45324  12.345  13.382   2.124  0.0609  0.0970 -0.0061
29141W        W45325   7.272  17.648   2.084  0.1579 -0.1912 -0.1118
29142W        W45326  17.784  14.456   4.383  0.3089  0.0165 -0.1784
29143W        W45327   0.016   7.777  12.205 -0.0694  0.0247  0.0230
29144W        W45328  14.041   3.077  12.803 -0.0372  0.1248  0.2134
29145W        W45329  15.214  11.274   0.698  0.1753  0.0226 -0.2197
29146W        W45330   0.902  14.340   2.935 -0.1605  0.4846 -0.1947
29147W        W45331   3.534   4.218   4.374  0.2070  0.1404 -0.2703
29148W        W45332   5.422   9.206  16.560  0.0034 -0.1789 -0.0267
29149W        W45333  13.111  16.591   3.897  0.0036  0.1725 -0.1840
29150W        W45334   4.162   9.200  13.214 -0.0421 -0.1707 -0.3621
29151W        W45335   8.547  17.952  13.536  0.3004  0.1772 -0.1286
29152W        W45336  14.351   8.685  11.865 -0.1230  0.0397  0.0544
29153W        W45337  16.323   6.759  15.685  0.1990  0.1497 -0.2020
29154W        W45338   5.228   8.944   3.641 -0.2203  0.0623  0.2252
29155W        W45339  12.745   3.006   5.401  0.0522  0.1757  0.0902
29156W        W45340   8.778  11.877  14.876  0.2794  0.1419  0.1203
29157W        W45341  16.101  16.376  10.989  0.0752 -0.1000  0.0651
29158W        W45342  10.856   6.288   5.557 -0.0159  0.1000 -0.0287
29159W        W45343   4.066   9.231   0.069  0.0569 -0.0732  0.0553
29160W        W45344  14.515   3.569  14.667  0.0979 -0.1460  0.1809
29161W        W45345  16.880  14.967   2.749 -0.2130  0.1479  0.0228
29162W        W45346  17.054   0.338  15.828 -0.1368 -0.1006 -0.1582
29163W        W45347   7.294   5.392  11.725  0.2446  0.0751  0.2305
29164W        W45348   2.000  10.671  12.291 -0.2610  0.1539  0.2250
29165W        W45349   5.387   2.613  12.692 -0.0703  0.1726 -0.3186
29166W        W45350   4.902   5.762   6.734 -0.0097 -0.0776  0.0426
29167W        W45351   4.959   5.357  14.931  0.0858  0.3869 -0.0407
29168W        W45352   3.130  11.431  11.438 -0.0912  0.0336  0.1543
29169W        W45353  15.306   7.028   2.145 -0.2947 -0.1192  0.1118
29170W        W45354  13.833  15.460   2.406  0.2562 -0.0637  0.1080
29171W        W45355   0.720   6.865   3.313  0.3521  0.3068  0.3376
29172W        W45356  15.971  14.792  15.186 -0.1219 -0.3733 -0.1016
29173W        W45357   9.269  15.348  16.407 -0.1888  0.0817 -0.0582
29174W        W45358  14.187   4.906   5.614  0.2170  0.0854 -0.0543
29175W        W45359   0.946   3.741  16.615  0.0205  0.0552 -0.0224
29176W        W45360  13.031   8.102  13.597  0.1018 -0.0050 -0.2169
29177W        W45361  11.868  12.032  16.562 -0.0281 -0.2638 -0.0566
29178W        W45362  10.657   8.687   4.148  0.0655  0.0241  0.0090
29179W        W45363   6.125  11.142  13.313 -0.0589  0.1730 -0.1708
29180W        W45364  10.080   5.721  14.042 -0.0391  0.1930 -0.2722
29181W        W45365  17.806  11.424   2.166 -0.0999  0.0929  0.0729
29182W        W45366  12.479   9.081  16.238 -0.0380  0.0578 -0.2347
29183W        W45367  17.911  16.290  12.337 -0.0860 -0.1272 -0.0111
29184W        W45368   0.975   1.539  12.115  0.2052 -0.1100  0.1677
29185W        W45369  13.318  14.716   4.401  0.1337  0.1917 -0.0661
29186W        W45370  16.147   5.487   2.543 -0.1252  0.0509  0.1887
29187W        W45371   3.812   0.353  11.442  0.0176 -0.1873 -0.1429
29188W        W45372   4.968  10.944   4.928 -0.1759 -0.3142  0.1228
29189W        W45373   2.467   0.736   0.019  0.0398  0.0841 -0.0854
29190W        W45374   2.533   3.312  11.812  0.0664 -0.0105 -0.1077
29191W        W45375   9.968  10.655   5.625  0.0243 -0.3383 -0.0988
29192W        W45376  16.494  16.797   1.304 -0.1679 -0.0021  0.1001
29193W        W45377  10.867  16.194  16.671 -0.0258  0.0670  0.0930
29194W        W45378   4.454   4.770   2.526  0.0356 -0.2035 -0.0798
29195W        W45379   8.776  16.712   0.461  0.0115  0.0283  0.0320
29196W        W45380   2.610  14.898  15.200  0.1386  0.0841  0.1975
29197W        W45381  16.670   3.456  12.931 -0.0521 -0.0744  0.0103
29198W        W45382  16.729   0.477  13.116  0.1541  0.0003  0.1313
29199W        W45383   3.431  10.851  14.750  0.2150  0.1733 -0.2486
29200W        W45384  11.689  17.442   0.663 -0.0180  0.1150  0.1700
29201W        W45385  10.199  12.003  11.632  0.1646  0.1706  0.1337
29202W        W45386   0.055   6.733  12.431 -0.2336  0.0200  0.0123
29203W        W45387   2.221  15.333   0.871  0.1858 -0.0407 -0.2864
29204W        W45388  13.818   7.319   2.963 -0.0741 -0.0329  0.0709
29205W        W45389   7.563  11.999  15.668 -0.0005 -0.2681  0.0317
29206W        W45390   1.275   9.553  16.491 -0.0582 -0.5317  0.0527
29207W        W45391  16.032   1.340  11.536  0.1210  0.0238 -0.0815
29208W        W45392  15.557   3.611   3.212 -0.0244 -0.1841 -0.0588
29209W        W45393   0.049  12.432   5.585 -0.2834 -0.0208  0.2949
29210W        W45394   5.424  10.056  12.965 -0.1294 -0.0672  0.1193
29211W        W45395   5.650  13.338  11.398  0.1573 -0.3034 -0.0098
29212W        W45396   8.090  15.098   3.499  0.1138  0.0947 -0.3396
29213W        W45397   1.545  14.765   2.519  0.3998 -0.1276 -0.0500
29214W        W45398  10.214  14.327   5.949 -0.2349 -0.0686  0.0868
29215W        W45399  15.727  13.099   0.650  0.1537  0.2619 -0.1188
29216W        W45400   1.836  12.908   0.905 -0.1138 -0.0813 -0.1597
29217W        W45401   0.542   8.399  14.657  0.0862 -0.1804 -0.0185
29218W        W45402   6.094   0.640   2.326  0.0232  0.2289  0.0557
29219W        W45403   7.445   9.106   1.038  0.3415 -0.0152  0.2490
29220W        W45404  14.424  15.712   1.851 -0.2506  0.0661  0.0563
29221W        W45405  10.952  17.912   2.821  0.0949 -0.1927 -0.0966
29222W        W45406   0.788   3.246   3.927 -0.2714 -0.2961 -0.0625
29223W        W45407  12.616   0.812   2.626 -0.2967 -0.1841 -0.2547
29224W        W45408   2.315  11.856  16.267  0.0376 -0.0547  0.1415
29225W        W45409   6.982   3.928   3.518 -0.0728  0.3404 -0.1692
29226W        W45410   9.966  16.938   3.975 -0.1476  0.1364  0.2006
29227W        W45411   2.934   3.964   5.125 -0.2209  0.2081  0.1870
29228W        W45412   7.526  11.575  13.765 -0.2680  0.0361  0.1807
29229W        W45413   5.688  15.386  15.509 -0.1250 -0.0835  0.1772
29230W        W45414   2.501   3.054   1.714  0.1530 -0.0316 -0.1976
29231W        W45415  14.574  16.188  14.419  0.0410 -0.0104  0.0979
29232W        W45416   1.215   8.623  11.941  0.0709  0.0221 -0.1775
29233W        W45417   1.350   8.004  12.985  0.1963 -0.1288  0.2011
29234W        W45418   1.933   2.196   2.970  0.1599 -0.2564  0.3287
29235W        W45419  11.269   2.408  12.707  0.1282 -0.1478  0.1780
29236W        W45420  16.645  11.905  12.152  0.1182  0.2563  0.4422
29237W        W45421   3.743  13.559   3.650  0.1513  0.1861  0.2314
29238W        W45422   8.009  15.940   1.783 -0.2190 -0.1144 -0.0560
29239W        W45423  14.656   0.744  16.559 -0.0283  0.0135  0.2669
29240W        W45424   4.820   5.663   1.467  0.0003 -0.1195  0.1688
29241W        W45425  14.612   7.144  14.654 -0.1462 -0.1408 -0.1845
29242W        W45426  15.235   1.521   5.653  0.0121  0.4108 -0.0962
29243W        W45427  12.077   5.453  13.568  0.1808  0.2284  0.0589
29244W        W45428   1.501   4.315   4.266  0.1740  0.2302  0.2246
29245W        W45429   8.248  11.940  11.385 -0.0296  0.1735  0.0201
29246W        W45430   7.093   0.311  13.036 -0.0522  0.0999 -0.0169
29247W        W45431   1.283   1.793   1.195  0.0056 -0.2428 -0.0980
29248W        W45432   1.420   3.763  12.303  0.1508  0.1024  0.2139
29249W        W45433   9.181  16.742  15.975 -0.1197 -0.1121 -0.3549
29250W        W45434   3.354  15.415  11.825  0.1357  0.0184  0.1038
29251W        W45435   9.922  10.584   2.251  0.0228  0.1348 -0.4803
29252W        W45436   2.049   3.281  11.729  0.1860 -0.0663  0.3196
29253W        W45437   9.064  13.413  12.246 -0.3101 -0.2725  0.1500
29254W        W45438   3.189   0.235  11.208  0.0962  0.0282 -0.4897
29255W        W45439  15.949   0.541  11.638 -0.1019  0.5007 -0.0169
29256W        W45440   3.188   4.376  12.019 -0.0888  0.2161  0.1674
29257W        W45441  10.367  14.061   2.069  0.3311 -0.0780  0.1630
29258W        W45442   2.347   6.116  15.257 -0.1453  0.0408  0.1189
29259W        W45443   7.984   4.105  14.709 -0.3739  0.0957 -0.1224
29260W        W45444  14.455   9.964   0.841 -0.1552  0.3172  0.3474
29261W        W45445  14.115   2.871   4.626 -0.0643 -0.2301 -0.1606
29262W        W45446   1.370   7.489  14.844 -0.1644 -0.0099  0.0206
29263W        W45447   7.387   1.860  11.946 -0.1943 -0.1800  0.0058
29264W        W45448  11.897   0.234   2.243 -0.0955  0.0906 -0.1517
29265W        W45449   5.248   0.048   0.251 -0.0619  0.0838 -0.4651
29266W        W45450  10.689   9.648  16.298 -0.2445  0.1839  0.0765
29267W        W45451   5.261   9.456  15.567  0.1729 -0.1285 -0.0904
29268W        W45452   1.953   8.777   0.619  0.3092 -0.0585  0.0476
29269W        W45453   3.879  11.815   4.505 -0.3266  0.0451  0.0210
29270W        W45454  16.236   3.991  14.117 -0.1637 -0.2659 -0.1981
29271W        W45455   0.626   4.752   3.940  0.0369 -0.1973  0.1436
29272W        W45456   9.521   2.106   1.309 -0.0895  0.0664  0.0014
29273W        W45457  12.890   9.919  10.503 -0.1204 -0.3570  0.0941
29274W        W45458  14.199   1.252   1.725 -0.2884  0.0901 -0.3138
29275W        W45459   6.848   4.474  16.193 -0.2008 -0.0097 -0.1246
29276W        W45460  15.967   9.788   2.090 -0.0503 -0.2365  0.0476
29277W        W45461  15.941   0.899   5.736  0.0741  0.0496  0.0940
29278W        W45462  17.241   9.855   2.832  0.0339 -0.1539  0.0344
29279W        W45463   9.080  15.727  14.278 -0.1478  0.0780 -0.1234
29280W        W45464  12.611   9.103   5.421  0.1575  0.2174 -0.1935
29281W        W45465   3.226  16.421   3.509  0.2870  0.2331 -0.0291
29282W        W45466   2.390   6.225  16.424  0.2347 -0.3441 -0.1971
29283W        W45467   0.169   4.071   2.490 -0.0539 -0.0200 -0.0745
29284W        W45468  17.380   9.401   2.700  0.0413  0.1050  0.1002
29285W        W45469   3.145  15.586   3.437  0.0589 -0.0683  0.1955
29286W        W45470   4.378  17.936   4.843  0.1788  0.2121  0.0555
29287W        W45471   8.582   4.753   3.676 -0.2517 -0.0550 -0.0675
29288W        W45472  17.301   1.296  14.403 -0.1913 -0.1936  0.1361
29289W        W45473  10.105  14.190  13.364  0.0426 -0.0813 -0.1794
29290W        W45474   7.299  13.171   2.384  0.0810 -0.0698 -0.3303
29291W        W45475   2.995   0.496   3.933  0.1600  0.1777  0.2244
29292W        W45476   9.025  11.863   3.601 -0.3274 -0.3123 -0.0727
29293W        W45477   8.616  13.379   4.165  0.2513  0.0835  0.1218
29294W        W45478   5.131   9.075  12.986 -0.2014  0.0092  0.5978
29295W        W45479   6.308  17.545  15.322 -0.0844  0.2215 -0.0395
29296W        W45480   9.871  11.679  11.761 -0.1712 -0.4073 -0.2674
29297W        W45481   4.963   2.951   3.174  0.4102  0.0958  0.0892
29298W        W45482  16.204  10.728  14.416 -0.1325 -0.1389 -0.1152
29299W        W45483   2.725  13.719   5.251  0.0495  0.0888 -0.1861
29300W        W45484   1.653   0.340   3.287  0.0476 -0.1012 -0.0861
29301W        W45485  10.615  16.963  11.035  0.0331 -0.0934  0.1448
29302W        W45486   0.415   8.183   1.447 -0.0030  0.2090 -0.3254
29303W        W45487   2.326   8.724   2.227 -0.0303 -0.2870 -0.0623
29304W        W45488  14.718  12.791   5.217 -0.1025  0.3115 -0.1034
29305W        W45489   2.353   2.737   2.139  0.2663  0.0946 -0.0022
29306W        W45490  12.539  10.034  16.245  0.0327  0.2075 -0.1636
29307W        W45491  17.412   5.866  14.787  0.1359  0.1258  0.1559
29308W        W45492  16.074  10.203  15.673 -0.0664  0.0602 -0.1781
29309W        W45493  17.476  16.142  12.334  0.0107  0.2708 -0.0117
29310W        W45494   7.258   2.845  14.881  0.2738 -0.0789 -0.2088
29311W        W45495  16.939   8.604   4.464 -0.1165 -0.3552  0.3879
29312W        W45496   7.510  12.099  12.157  0.0432  0.1755  0.3687
29313W        W45497  14.368  11.558   3.666 -0.2424 -0.2181 -0.1492
29314W        W45498   8.954   9.666  12.896  0.2010 -0.2558 -0.0789
29315W        W45499  12.365  16.326   0.259  0.1558  0.5095 -0.4935
29316W        W45500  14.328   9.372  13.651 -0.1038 -0.2112 -0.1052
29317W        W45501  17.652  11.063   1.733  0.1038  0.0338  0.0886
29318W        W45502   2.860  16.559  15.715 -0.0739  0.1858  0.0285
29319W        W45503   2.413   4.864  12.576  0.2233 -0.0469  0.1004
29320W        W45504   9.441   8.778  15.996 -0.1584 -0.0651 -0.0901
29321W        W45505   5.859   9.009   5.457 -0.2246  0.1604  0.1237
29322W        W45506   5.363   5.268  13.630  0.0311 -0.1447  0.1915
29323W        W45507   6.078  13.815  15.805 -0.1087 -0.0283 -0.2991
29324W        W45508   5.077  10.136  14.876 -0.0022  0.0129 -0.0094
29325W        W45509  13.345   4.018   3.128  0.0766  0.0137 -0.0698
29326W        W45510   0.627   7.410  16.676 -0.1625  0.1693  0.1328
29327W        W45511  16.863  16.018  13.000  0.0319  0.4161  0.1274
29328W        W45512   8.624  16.921  16.592 -0.0615 -0.1921 -0.0972
29329W        W45513   5.976  11.889  14.777  0.0163  0.1274  0.1937
29330W        W45514   0.764  17.576   3.717  0.1001  0.0001 -0.1503
29331W        W45515   9.722  17.029   0.492 -0.2366 -0.2808 -0.0994
29332W        W45516   9.785   8.376  15.656 -0.0304 -0.4988 -0.0435
29333W        W45517   9.985   1.100   0.654  0.0142  0.0009  0.0348
29334W        W45518  17.924   5.621   2.642 -0.0598 -0.4510  0.1221
29335W        W45519  16.566   3.002   1.305  0.3258  0.2033 -0.0679
29336W        W45520  17.841  15.192   4.421 -0.1306 -0.0710 -0.2165
29337W        W45521  10.684   8.481   2.282 -0.1440 -0.1285  0.1496
29338W        W45522   7.229  17.314  13.936 -0.0636  0.0084  0.3310
29339W        W45523   4.615   1.290  12.679 -0.1470 -0.1219 -0.0253
29340W        W45524   3.410   4.152  12.987  0.0152 -0.0190 -0.1827
29341W        W45525  12.193   3.061  15.222  0.0966  0.1775 -0.3787
29342W        W45526  10.026   7.117   4.326  0.0226 -0.1057  0.1629
29343W        W45527  17.073   9.122  15.045  0.2413 -0.0187  0.0853
29344W        W45528  17.656   3.899   0.399  0.2994  0.3748  0.0147
29345W        W45529   8.515   0.343   1.616  0.2198 -0.0651 -0.1041
29346W        W45530   4.489   2.473  16.484  0.1123 -0.3418  0.1319
29347W        W45531  10.862  15.822   3.845  0.0962 -0.0929 -0.2793
29348W        W45532   5.520   3.142  15.346 -0.0224 -0.1860  0.1862
29349W        W45533   5.731  16.510   5.681 -0.0951  0.0913  0.0431
29350W        W45534  11.968   2.761  14.385  0.1772  0.0404  0.2659
29351W        W45535  17.216  17.623   3.641  0.1104 -0.1390  0.1202
29352W        W45536  10.374  15.431   2.703  0.0476 -0.1220  0.1272
29353W        W45537  17.942   1.939  14.639 -0.2944 -0.0421 -0.0277
29354W        W45538   9.159   5.970  14.563 -0.2120 -0.0460 -0.1554
29355W        W45539   4.389   7.055   0.438  0.3140  0.3390 -0.1437
29356W        W45540   0.003   8.833   3.969 -0.0094  0.1137  0.3144
29357W        W45541   9.334  14.182  15.060  0.0291 -0.2893  0.1166
29358W        W45542   2.155  17.946  13.024  0.0541 -0.2319 -0.1183
29359W        W45543  14.991   0.820   2.937 -0.0011 -0.0013  0.2152
29360W        W45544  16.268  13.707  16.281 -0.2992 -0.1127  0.3997
29361W        W45545  12.399   8.174   4.227  0.0232 -0.0541  0.4991
29362W        W45546  16.663   9.222  16.275 -0.4139  0.1507  0.1107
29363W        W45547   6.877   6.805  11.749  0.3139  0.1003 -0.0557
29364W        W45548  17.815  13.310  14.416 -0.0019 -0.1412  0.1215
29365W        W45549  15.378   6.083   2.851 -0.0336 -0.0958 -0.0537
29366W        W45550   8.889   2.949  15.148  0.1716 -0.0605 -0.0863
29367W        W45551  14.430   3.178   6.014 -0.2223 -0.0554 -0.2124
29368W        W45552   4.704   4.673  16.319  0.2141 -0.0025  0.0648
29369W        W45553   9.736  13.978  13.777  0.0954  0.1343  0.0650
29370W        W45554   7.442  12.063  14.428 -0.0000 -0.0114 -0.1202
29371W        W45555  12.048  12.805   2.896 -0.0328 -0.0142 -0.0120
29372W        W45556   4.347   8.018  15.960 -0.0047  0.1437 -0.0278
29373W        W45557  13.908  14.555  12.175 -0.0845 -0.4606 -0.2540
29374W        W45558  16.064   7.973   1.532  0.0628  0.0295  0.0196
29375W        W45559  14.151   0.274   0.054  0.1281 -0.3459  0.1187
29376W        W45560   0.528  16.580  15.451  0.1536  0.0445  0.0720
29377W        W45561   1.264   1.601   4.042  0.0695 -0.2969 -0.1749
29378W        W45562   7.649   3.134  12.942 -0.1589 -0.2787  0.1926
29379W        W45563  10.405   1.060  14.960  0.0478  0.0488 -0.1096
29380W        W45564   5.817   1.067   3.504 -0.3265  0.0954 -0.1871
29381W        W45565   3.368  12.198   1.468  0.1001  0.0310 -0.2313
29382W        W45566  10.159  13.646  13.384 -0.1822 -0.1488  0.1030
29383W        W45567   8.589  10.355  16.375  0.1214  0.1051  0.1734
29384W        W45568  14.415  17.482   0.000  0.2299  0.1643 -0.1531
29385W        W45569   4.144  16.762   5.761  0.1522 -0.0523 -0.1316
29386W        W45570   2.281   7.203   1.310  0.0878 -0.1955  0.1453
29387W        W45571  11.300   7.095   4.140 -0.0877 -0.2459  0.1258
29388W        W45572   3.065  17.091   4.045  0.1201 -0.0630  0.0309
29389W        W45573  10.856  11.245  12.467 -0.0130  0.0192 -0.1654
29390W        W45574  15.559  16.519  13.357 -0.0502 -0.4342  0.4016
29391W        W45575   0.319  17.610   1.736  0.0034 -0.1149 -0.0166
29392W        W45576  16.368  14.221   1.446 -0.2888  0.0946 -0.2980
29393W        W45577   1.952   3.942  15.696 -0.0634 -0.0440  0.1478
29394W        W45578   3.561   5.216  13.408 -0.0772 -0.1714 -0.0412
29395W        W45579  15.998   8.218  12.101 -0.0076  0.0938  0.2358
29396W        W45580   5.244  15.841   4.356  0.0757  0.4210 -0.0457
29397W        W45581  12.994  11.964   0.774  0.0279  0.2762  0.0597
29398W        W45582   1.043   7.081  15.714  0.3827  0.1106 -0.0666
29399W        W45583   2.426  12.408   2.118  0.0505 -0.2446  0.2057
29400W        W45584   7.783   9.620   5.016 -0.1160 -0.0823 -0.3253
29401W        W45585  10.398   0.845  11.225 -0.1465  0.0358  0.1123
29402W        W45586  13.783   0.710  13.338  0.1718  0.3755  0.1621
29403W        W45587   2.674   2.618   4.367 -0.2726  0.0085 -0.1523
29404W        W45588   2.750   4.814   4.692 -0.4180 -0.0609  0.0581
29405W        W45589   5.242   9.105   4.176  0.1193 -0.2246 -0.2123
29406W        W45590   8.689  17.853  16.643  0.2588  0.0161  0.1089
29407W        W45591  10.030  10.632  14.041 -0.2599 -0.0256 -0.2010
29408W        W45592   3.171  12.861  15.075  0.0993  0.1418 -0.1549
29409W        W45593   0.149  12.316   4.079 -0.2461 -0.0218  0.1333
29410W        W45594  11.951   2.412   0.786 -0.0079  0.0276 -0.1243
29411W        W45595  12.545   2.580  11.237  0.4005 -0.2561  0.0833
29412W        W45596  12.353   6.943   2.435  0.1200 -0.0465 -0.3396
29413W        W45597  11.402   2.870  12.167  0.0288  0.1632  0.0558
29414W        W45598   4.077   9.719   1.822 -0.0415  0.1260  0.0402
29415W        W45599   3.944   4.628  14.729  0.2774  0.0220 -0.1534
29416W        W45600   6.890  15.860  15.369 -0.0117 -0.0933 -0.0565
29417W        W45601   5.808   1.757  12.566 -0.0156 -0.2658 -0.3660
29418W        W45602   1.401   3.979  15.117  0.0577 -0.1627 -0.0731
29419W        W45603  17.498   9.026  14.404 -0.1543  0.3808  0.5685
29420W        W45604  12.011  13.557  15.665  0.3234  0.0099  0.0324
29421W        W45605   0.607   5.498   3.386 -0.0511  0.2169 -0.2740
29422W        W45606   4.966   5.453   0.558  0.3412  0.4965  0.1123
29423W        W45607   1.099  17.691   2.130 -0.1084  0.2152 -0.0780
29424W        W45608   5.462  11.572   2.857  0.1908 -0.0397  0.2143
29425W        W45609   7.073  17.873   3.341 -0.0056 -0.2707  0.1552
29426W        W45610   8.919  10.385   0.039  0.0527  0.1049 -0.1035
29427W        W45611  10.656   1.745  16.695 -0.2585 -0.4465 -0.0574
29428W        W45612   6.121  12.322   5.235  0.1821 -0.0401 -0.0239
29429W        W45613   9.697  14.364   1.541 -0.0096  0.1409  0.2768
29430W        W45614   2.398   9.787  12.089 -0.0886 -0.2449  0.2155
29431W        W45615   9.660  15.253   0.152 -0.2057  0.2890  0.1836
29432W        W45616   6.723  14.287   4.545  0.1849 -0.1113 -0.0619
29433W        W45617   1.913   7.860  12.042  0.1314 -0.6020  0.0116
29434W        W45618   9.619  17.527   4.569  0.0022  0.0607  0.0567
29435W        W45619   5.454   9.098   4.647  0.1150 -0.0745 -0.0993
29436W        W45620   2.545  14.642   2.061 -0.1580 -0.0346  0.0950
29437W        W45621  12.205  12.455  14.845 -0.0164  0.0260 -0.0976
29438W        W45622   7.108  15.298  11.872 -0.0516 -0.4477  0.1198
29439W        W45623   4.997  15.886   0.369  0.0274  0.0353 -0.1358
29440W        W45624   6.491  16.005   3.804 -0.1553 -0.1341 -0.0673
29441W        W45625  16.706   4.048   2.329 -0.2607 -0.2693 -0.1998
29442W        W45626  11.436   2.001   1.103 -0.0622  0.2154  0.1486
29443W        W45627  17.684  12.443   4.820  0.0671  0.2224 -0.1907
29444W        W45628  14.524  17.687  15.161 -0.0404  0.0892  0.2940
29445W        W45629  10.626   7.219   0.594 -0.0990 -0.3985  0.2540
29446W        W45630  14.176  13.093   3.987 -0.1927  0.1082  0.1504
29447W        W45631  17.436  10.162   5.136  0.1927  0.1030 -0.0348
29448W        W45632   3.969  16.523   3.817 -0.1621 -0.2979 -0.1772
29449W        W45633  14.551   2.319  12.629 -0.2589  0.0699  0.0472
29450W        W45634  14.259  16.480   2.874 -0.0459 -0.0007  0.2166
29451W        W45635   0.375   4.491   5.693  0.1563 -0.1440 -0.1760
29452W        W45636  15.569   0.710  11.891 -0.0664 -0.0632  0.2370
29453W        W45637  11.750  14.063  12.892 -0.4154 -0.2890  0.0473
29454W        W45638  15.442   0.173   5.209  0.1702  0.0997  0.0730
29455W        W45639   1.463  16.454   1.517  0.2842 -0.0326  0.0068
29456W        W45640   1.886   9.186  13.671 -0.2177 -0.0733  0.2652
29457W        W45641   1.551  12.229   0.928 -0.3064  0.0911 -0.0477
29458W        W45642  10.722   2.093  14.344 -0.2065  0.1383  0.3642
29459W        W45643  12.583  13.216   4.157 -0.1062  0.1738  0.0045
29460W        W45644  12.155   2.615   0.285  0.0398 -0.2836  0.2090
29461W        W45645   2.462  15.589   0.529  0.3511  0.2644  0.0553
29462W        W45646  17.005  12.281   0.083  0.0478  0.0786  0.1523
29463W        W45647   7.354   4.218  16.096  0.1594  0.1865  0.1772
29464W        W45648   9.206   5.176   0.679  0.1991 -0.0086 -0.1121
29465W        W45649  17.850  17.194  14.793  0.1554  0.0373  0.2844
29466W        W45650  13.475  17.211   6.119  0.0339 -0.1196 -0.1661
29467W        W45651   2.377  16.926  15.862 -0.1148  0.0953 -0.3368
29468W        W45652   4.411   4.298  14.279 -0.0147  0.1277 -0.2616
29469W        W45653   0.893   1.026   3.471 -0.1389  0.1338 -0.3228
29470W        W45654   9.098   4.615  14.585  0.0238  0.0757 -0.0015
29471W        W45655   6.550   5.224  15.380  0.0494  0.1469  0.3556
29472W        W45656   8.286  16.763   1.834  0.2018  0.0548 -0.2322
29473W        W45657  13.572  17.025   0.568  0.3162 -0.0850 -0.0767
29474W        W45658  12.321   5.075   0.912 -0.2067  0.1608 -0.1532
29475W        W45659  13.436  16.655   0.835  0.0736  0.1107  0.0058
29476W        W45660   0.609  15.341  15.250 -0.2430 -0.0341 -0.0052
29477W        W45661   9.925  16.293  13.481 -0.2555  0.2200  0.0925
29478W        W45662  11.959   9.798   1.320  0.3921  0.3056 -0.3632
29479W        W45663  12.792   3.579   1.591 -0.1550  0.3341 -0.1081
29480W        W45664   2.864   3.609  12.153  0.0038 -0.0638  0.2364
29481W        W45665  15.182  14.999  15.794 -0.0205 -0.0680 -0.1201
29482W        W45666   0.025   9.680   0.998 -0.2505 -0.1394  0.0341
29483W        W45667   6.395   3.198  12.310  0.2245 -0.1467 -0.0391
29484W        W45668   5.108   3.423  11.062 -0.1853  0.2042  0.1854
29485W        W45669  11.513   7.972   5.673 -0.1123 -0.0714 -0.0108
29486W        W45670  15.028   7.560  12.708 -0.0362 -0.4324  0.0401
29487W        W45671   1.665  10.504  15.332 -0.0099 -0.0980 -0.2596
29488W        W45672  16.475   6.758   4.903 -0.0354  0.0194  0.0412
29489W        W45673   9.985   7.050   3.112 -0.3644 -0.2154 -0.3408
29490W        W45674  15.278   4.575   3.169  0.2364 -0.1298 -0.4295
29491W        W45675   5.206   6.079   4.874 -0.1323 -0.0882  0.2956
29492W        W45676  11.281  14.666   1.258 -0.1333  0.1031 -0.0793
29493W        W45677   2.206   0.464   2.544 -0.1866  0.1905  0.1654
29494W        W45678   1.543  12.626   0.617 -0.0110  0.0276  0.2803
29495W        W45679   7.700  10.351  14.198  0.0317  0.1329 -0.1397
29496W        W45680   6.129  10.325   2.216 -0.1806  0.0234 -0.2409
29497W        W45681   7.501   8.351   4.563 -0.0546 -0.1709 -0.3234
29498W        W45682   6.748   4.397   4.375 -0.2002 -0.2794  0.2427
29499W        W45683  15.709   2.292   4.298 -0.1676 -0.0137  0.2254
29500W        W45684   6.867   1.526   0.775  0.1116  0.2975 -0.0323
29501W        W45685   5.299  10.197   2.641  0.0495  0.2512  0.2434
29502W        W45686   5.108   6.335   2.196  0.0164  0.1031  0.0341
29503W        W45687  12.072  12.730   5.259 -0.1956  0.0037 -0.0821
29504W        W45688  15.690  15.145   4.600  0.3741  0.0620  0.0697
29505W        W45689  12.366   6.069   4.701  0.0807 -0.1059  0.1649
29506W        W45690   2.323   6.520  10.886  0.3357  0.0203 -0.1176
29507W        W45691  14.575   4.320  10.993  0.1391 -0.4207 -0.4134
29508W        W45692   6.897  11.688   0.140 -0.2693 -0.1260  0.3158
29509W        W45693   8.018   0.708  15.764  0.1600 -0.3210  0.2493
29510W        W45694   1.776   0.004   5.213  0.1478 -0.2220  0.0696
29511W        W45695   3.754   7.967   0.329 -0.0486 -0.1592 -0.2583
29512W        W45696  12.312  15.237   4.589 -0.0480 -0.0577  0.2958
29513W        W45697  10.364   5.267  14.724  0.3505 -0.3802  0.0274
29514W        W45698   3.097  12.351  13.188  0.1947  0.2116 -0.0069
29515W        W45699  15.631   3.530   4.089 -0.0060  0.0573  0.2401
29516W        W45700  12.617  15.388   4.135 -0.3497 -0.1468 -0.0059
29517W        W45701   8.390   5.638  12.288 -0.2440  0.0909  0.2454
29518W        W45702  16.317  10.484   4.637 -0.1183 -0.0763  0.1350
29519W        W45703   5.120  15.753  14.297 -0.2117 -0.1245 -0.0749
29520W        W45704   5.898  11.358   5.527  0.0067  0.3785 -0.0048
29521W        W45705  10.616   4.078  16.077  0.0824 -0.1091 -0.0855
29522W        W45706   6.988  13.223  13.436  0.0329  0.1998  0.1063
29523W        W45707   8.517   1.828  14.952 -0.0627 -0.0901 -0.1281
29524W        W45708   7.321  16.876   5.442 -0.1100 -0.0487 -0.2924
29525W        W45709  15.653  15.576  13.490 -0.1968  0.3272  0.1723
29526W        W45710   9.923  12.195  12.500  0.2006  0.3266  0.0134
29527W        W45711   9.998   7.812  15.649  0.1229  0.2719 -0.0451
29528W        W45712   6.370   2.546   1.535 -0.0309 -0.1851 -0.0727
29529W        W45713   9.690  12.209  12.051 -0.0277 -0.0858 -0.0181
29530W        W45714  13.109  10.367   3.761  0.0280  0.2094 -0.0136
29531W        W45715   0.481   6.178  11.871 -0.1305  0.0750  0.0951
29532W        W45716   1.561  15.618  13.392  0.1097 -0.4432 -0.0230
29533W        W45717  10.809   9.338  15.004 -0.1273  0.1124 -0.2404
29534W        W45718  14.200  10.588  11.863 -0.2294 -0.1078  0.2151
29535W        W45719   6.125   2.766   4.724 -0.2515 -0.0976 -0.0107
29536W        W45720   2.116  13.762   0.017  0.0894 -0.0116  0.2389
29537W        W45721  12.164  11.686   5.414 -0.2180  0.1409  0.1242
29538W        W45722  10.125   4.640  13.719  0.1916  0.1598 -0.0880
29539W        W45723   5.036   6.977   0.680  0.3754 -0.2607  0.0376
29540W        W45724  17.120   3.519  14.627 -0.0122  0.0186 -0.1229
29541W        W45725  10.122  15.939   3.344 -0.3172 -0.1490 -0.1531
29542W        W45726   8.861   9.558  15.895 -0.1646  0.0884  0.0865
29543W        W45727  12.212  11.466  14.803  0.2519  0.2854  0.0708
29544W        W45728   4.267  15.990   2.768 -0.2460 -0.4278 -0.1478
29545W        W45729   3.696  13.823   4.761  0.3489 -0.0485  0.2485
29546W        W45730  13.358  12.856   0.183 -0.0635 -0.5462  0.4741
29547W        W45731   0.803   4.339  12.272  0.3333 -0.0961 -0.0887
29548W        W45732  13.502  17.434  11.838 -0.0531  0.0276  0.1026
29549W        W45733  10.397   5.616   2.526  0.3211  0.1015 -0.0950
29550W        W45734  14.601   4.861   3.540 -0.2665  0.2031 -0.0057
29551W        W45735  13.466  17.849  13.137 -0.2057 -0.0167  0.2188
29552W        W45736   8.938   6.049   4.674 -0.0988 -0.4203 -0.2097
29553W        W45737  10.903   3.164   0.502  0.3792 -0.0444 -0.1702
29554W        W45738   4.489   5.552   2.243 -0.2664 -0.1745  0.1932
29555W        W45739  11.234  11.049   2.675 -0.0310  0.0422  0.0574
29556W        W45740  12.383   8.925   5.000  0.0784 -0.0463 -0.0607
29557W        W45741  13.583  14.446   2.162  0.2452  0.0321  0.1709
29558W        W45742   6.922  16.653   3.945  0.1462 -0.0627  0.0546
29559W        W45743  15.928  13.341   1.056 -0.0370 -0.3670  0.2860
29560W        W45744   4.645   7.853   0.826 -0.1363  0.1336  0.0234
29561W        W45745   8.089   2.128   1.935 -0.1880  0.0257  0.1088
29562W        W45746   7.614   6.595   4.153 -0.3808  0.0158 -0.4527
29563W        W45747   9.493  17.976  12.957 -0.3771 -0.1498 -0.1323
29564W        W45748   6.539  10.569   3.835  0.2027  0.0127  0.3952
29565W        W45749  11.849   6.611  13.297 -0.0394  0.0398 -0.1472
29566W        W45750  12.605  17.363  13.303 -0.1495 -0.1570  0.0930
29567W        W45751   2.443   2.318   1.092  0.0001 -0.0053  0.0836
29568W        W45752   6.793   0.071  13.377  0.1439  0.2051  0.3598
29569W        W45753   1.013   4.734  15.692  0.2317 -0.2613  0.2086
29570W        W45754   1.199   8.351  12.349 -0.2123 -0.0914 -0.1663
29571W        W45755   9.337   3.006   1.874 -0.0206  0.1953 -0.4140
29572W        W45756   0.757  11.958  14.323 -0.1161  0.1158  0.0959
29573W        W45757  13.719   3.690  15.922  0.3078  0.5544 -0.1881
29574W        W45758  16.658   9.904  12.142 -0.0099  0.2101 -0.2172
29575W        W45759  11.172  13.343   4.781 -0.2988 -0.1055 -0.0478
29576W        W45760   6.607   7.951  15.911  0.2776 -0.0037 -0.0174
29577W        W45761   8.343   5.244  14.025  0.2405 -0.1064  0.2532
29578W        W45762   0.708   0.025   0.178  0.0219  0.2035  0.0267
29579W        W45763   3.582  16.221  13.869  0.0591  0.3022  0.1030
29580W        W45764  11.231   7.871   0.113 -0.2449 -0.0491  0.0003
29581W        W45765   0.224   4.554  12.372  0.1736  0.2696 -0.0529
29582W        W45766  17.432  12.352  13.735  0.3024  0.4920 -0.0646
29583W        W45767   7.437   9.529   4.640 -0.3220 -0.2846  0.1694
29584W        W45768   6.714   4.472   0.512  0.3654 -0.2937 -0.1080
29585W        W45769   0.197  13.837   0.362 -0.0323  0.1486 -0.2484
29586W        W45770   6.604  16.466   5.955 -0.0895 -0.1368 -0.0586
29587W        W45771  17.323   4.473  15.882 -0.2144  0.1953 -0.0941
29588W        W45772   1.582  12.567   3.999  0.2428 -0.3148  0.1325
29589W        W45773  15.109  15.065  11.846 -0.2945 -0.1281 -0.0585
29590W        W45774   9.126  17.027   4.146 -0.1891  0.2336  0.0184
29591W        W45775   3.276   6.504  16.619 -0.0525 -0.1478  0.0354
29592W        W45776   4.337   1.466   2.373 -0.1561  0.2199  0.1918
29593W        W45777   2.323  14.564  11.803 -0.0566  0.2166  0.0597
29594W        W45778   8.912  17.548  11.820 -0.1453  0.1876  0.1859
29595W        W45779  13.223   4.528   2.915 -0.1146 -0.1874  0.1552
29596W        W45780  10.510   7.930  12.841  0.0780  0.0516 -0.1170
29597W        W45781  11.648  15.840   0.622 -0.2640 -0.2649  0.3043
29598W        W45782   0.535   9.551   5.531 -0.1252 -0.0161 -0.0157
29599W        W45783  10.769  14.419   1.216  0.1075 -0.0845  0.0276
29600W        W45784  10.952   8.685  16.005  0.0632 -0.0907  0.1978
29601W        W45785   7.268  13.887   3.878  0.1484  0.1270 -0.0975
29602W        W45786   4.362   0.499  15.093 -0.0327  0.5581 -0.0842
29603W        W45787  13.672   9.518   5.640  0.3833  0.1388 -0.1190
29604W        W45788   7.556  12.640   1.590  0.2118  0.0706  0.2186
29605W        W45789  12.964  12.377  13.337 -0.2888 -0.2129 -0.1076
29606W        W45790  11.061   1.265  13.619  0.2781  0.0976  0.2751
29607W        W45791   5.429   3.307  16.688 -0.1113  0.4126 -0.0374
29608W        W45792  12.765  16.134   2.907  0.0093  0.2056 -0.3322
29609W        W45793  10.735   7.515  14.543  0.1847  0.0514 -0.1017
29610W        W45794  16.322   0.308  12.920  0.1312 -0.0195 -0.2550
29611W        W45795  12.122   2.705   3.649 -0.0504  0.1204  0.0890
29612W        W45796  11.073   2.392   1.276 -0.1384 -0.1489 -0.0456
29613W        W45797   4.064   8.637   1.743  0.1331  0.0582 -0.1406
29614W        W45798  13.371   2.365   4.871  0.0931  0.0888 -0.2179
29615W        W45799  17.207  11.691  14.476 -0.0318  0.0746 -0.2515
29616W        W45800  10.736   4.879  14.916  0.0589 -0.2967 -0.1567
29617W        W45801  16.691   3.721  14.791  0.0652  0.1339  0.3072
29618W        W45802   2.216   0.990  16.057  0.4015  0.0266  0.2699
29619W        W45803  11.850  17.521  16.037  0.1707 -0.1775  0.0236
29620W        W45804  13.585   6.852   3.069 -0.1207  0.1508 -0.2169
29621W        W45805  14.208  14.553   0.865 -0.0672 -0.1494  0.0616
29622W        W45806  15.737   0.794  15.769 -0.0539  0.1147 -0.0791
29623W        W45807   3.426   5.143  12.492  0.1448 -0.0120  0.1036
29624W        W45808   7.468   7.118   0.826 -0.0331 -0.0532  0.2672
29625W        W45809   0.072   1.637  14.093 -0.0356 -0.2708  0.0140
29626W        W45810   0.899   3.440  15.148  0.1059  0.1162 -0.1648
29627W        W45811  17.130  10.896  15.689 -0.0716 -0.0272  0.1166
29628W        W45812   8.863   6.847   0.035  0.2107 -0.0746  0.2217
29629W        W45813  10.701  15.665  14.981 -0.1962  0.3018  0.0445
29630W        W45814   4.458  17.013   2.484 -0.0173  0.2006 -0.0601
29631W        W45815   5.801   5.341  12.039 -0.0629  0.0591 -0.0544
29632W        W45816   8.641   9.447   5.689  0.1692 -0.0196 -0.1220
29633W        W45817   9.105   2.668  14.719  0.2232 -0.1216 -0.0025
29634W        W45818   3.009  10.994   3.460  0.1745 -0.2708  0.2374
29635W        W45819   8.268   0.153   2.029 -0.0281 -0.2801 -0.1475
29636W        W45820   3.944  10.741  14.643 -0.0113  0.0697  0.1958
29637W        W45821  14.882  11.591   3.237  0.5668 -0.0887  0.1414
29638W        W45822  14.393  10.557   2.459  0.2410  0.0896 -0.0551
29639W        W45823   0.858  17.895   5.457  0.0123 -0.0769  0.0661
29640W        W45824   6.446   0.293   1.617 -0.0219 -0.1096  0.1159
29641W        W45825   4.395  12.891   5.504  0.1448 -0.1505  0.0708
29642W        W45826   8.685   2.528   4.181  0.2068  0.0343 -0.4083
29643W        W45827   8.456   3.994   2.493  0.2615 -0.1920 -0.0456
29644W        W45828  10.490   1.339   0.312  0.2059 -0.2947  0.2684
29645W        W45829   7.651  14.468   2.725 -0.0085  0.0602  0.1254
29646W        W45830   6.984  13.130   0.967  0.0479 -0.1068  0.0352
29647W        W45831  15.056  15.906  13.062 -0.2204 -0.0722 -0.1872
29648W        W45832  12.628  13.488   2.515  0.3234 -0.1796  0.2037
29649W        W45833   7.834  13.767  15.906 -0.0070  0.1043  0.1615
29650W        W45834  11.434  12.941   5.002  0.0253  0.2095 -0.3515
29651W        W45835   4.873   6.610   3.090 -0.0776 -0.2665  0.3769
29652W        W45836  12.739   3.476   5.543  0.0635  0.1436  0.2342
29653W        W45837   0.597  14.417   1.569  0.0737 -0.0278 -0.1489
29654W        W45838   4.490  13.545   1.872  0.0175 -0.1618 -0.2253
29655W        W45839   1.715   0.953  11.562 -0.0336  0.1416 -0.0831
29656W        W45840   4.576   0.039  13.670 -0.0321  0.0130 -0.0515
29657W        W45841  16.418   0.869  13.332  0.3914  0.2946 -0.0421
29658W        W45842  17.009   2.625   3.808 -0.1131  0.1427  0.0868
29659W        W45843  11.765   0.322  15.406  0.1171  0.0567  0.1955
29660W        W45844   1.285  15.965  15.713  0.2799  0.2431 -0.2048
29661W        W45845   6.681   5.413  12.124 -0.4294 -0.0338  0.1094
29662W        W45846   0.722   9.105   5.372 -0.0034  0.0133  0.2275
29663W        W45847   0.391  12.796  15.518  0.0214 -0.0637 -0.1893
29664W        W45848   1.879  12.902  16.505 -0.3669 -0.0364  0.0157
29665W        W45849  13.599  15.959   5.938 -0.0085  0.0521  0.0474
29666W        W45850  12.352   7.440   2.338 -0.1516 -0.1108  0.1520
29667W        W45851   6.003  11.636   3.715  0.0346 -0.2318  0.0591
29668W        W45852   4.400   6.022   4.017 -0.0050 -0.0139 -0.1148
29669W        W45853   1.213   0.997  14.991  0.0184  0.0735  0.0331
29670W        W45854   2.347  11.923  13.706  0.0008 -0.3111 -0.0043
29671W        W45855  17.696   8.499  14.691  0.0696  0.2629 -0.1260
29672W        W45856   7.284  13.310  13.869  0.0941  0.1225  0.1697
29673W        W45857  17.727  10.531  16.557 -0.0981 -0.0458  0.0481
29674W        W45858   3.975  15.426   3.732  0.0380 -0.3945  0.1987
29675W        W45859   0.679  10.376   5.638 -0.1204  0.3926 -0.2492
29676W        W45860   8.010   3.981   5.600 -0.0007  0.1033  0.1497
29677W        W45861   3.776   9.894   6.180 -0.0188 -0.3153 -0.0260
29678W        W45862   8.155  17.479  14.394  0.2393 -0.0851  0.1112
29679W        W45863  16.638  12.544  11.810 -0.2193 -0.3201 -0.0410
29680W        W45864  14.501   4.312   4.325 -0.0971  0.0314 -0.0208
29681W        W45865   9.397   4.377  14.165  0.2524 -0.2768  0.0949
29682W        W45866   5.100  11.001  16.400 -0.1309  0.1808  0.0054
29683W        W45867   2.819  17.287  11.408 -0.3388 -0.0399 -0.1596
29684W        W45868  15.181  14.806   2.588  0.1910  0.1082  0.1257
29685W        W45869  10.688   4.528  13.953  0.1443 -0.1563 -0.0660
29686W        W45870  17.896   5.491  16.628  0.0917 -0.1762  0.0405
29687W        W45871   5.682   4.742  13.833  0.1514 -0.0213 -0.0587
29688W        W45872   8.049  17.708   4.550  0.0823  0.0582 -0.0956
29689W        W45873  11.594   8.353   3.287 -0.2268 -0.0961  0.1232
29690W        W45874  13.985   2.057  11.429  0.1925  0.1259  0.1482
29691W        W45875  10.566  16.121   0.852 -0.0094 -0.0598  0.1948
29692W        W45876   8.226   1.357  13.596  0.3663  0.0192  0.0390
29693W        W45877  15.464   5.033   3.353 -0.0129 -0.3304 -0.0505
29694W        W45878   0.956   7.967  14.812 -0.1890 -0.0003 -0.2380
29695W        W45879  16.205   7.873  13.653 -0.0584  0.0919 -0.0430
29696W        W45880  11.915   4.931  11.179 -0.1829 -0.1577 -0.2470
29697W        W45881  13.475   0.450  12.427 -0.1066 -0.0611 -0.0102
29698W        W45882   4.977   7.942   5.836  0.0284  0.2283  0.1763
29699W        W45883  14.731   2.755   0.522  0.2799 -0.1257  0.0447
29700W        W45884   9.214  14.509  16.581 -0.2779 -0.1045  0.2258
29701W        W45885   2.810  10.903   3.958  0.0251 -0.2735  0.0092
29702W        W45886  11.487   4.614   3.266  0.0617  0.3396 -0.0187
29703W        W45887   4.656   0.271   0.028  0.1899  0.2055  0.0088
29704W        W45888   2.107   0.182  12.154 -0.0341  0.1733 -0.1987
29705W        W45889  17.405  14.667  14.650  0.3163  0.3078  0.0063
29706W        W45890   0.566   6.676  15.104  0.2513  0.1904 -0.0009
29707W        W45891   9.735  13.166  14.087 -0.1975 -0.0473  0.0041
29708W        W45892   3.534   6.153   0.294  0.0339  0.0851  0.2407
29709W        W45893   4.466  11.276  15.194  0.0582  0.0836  0.2247
29710W        W45894   3.148  14.954  14.978 -0.0259  0.0187  0.0299
29711W        W45895  16.326  16.647  14.878 -0.1463  0.1075  0.2178
29712W        W45896  14.252  11.964   0.585 -0.1699  0.2489 -0.4044
29713W        W45897  12.398  10.353  13.491 -0.0915 -0.1546  0.3484
29714W        W45898   1.701   7.450   4.205 -0.2384  0.0270 -0.2960
29715W        W45899  10.810  11.260   2.478 -0.0857 -0.3066 -0.4052
29716W        W45900  16.865   6.002   5.676  0.0445  0.3995 -0.0649
29717W        W45901   6.642  12.570  12.210 -0.0955 -0.0540  0.1672
29718W        W45902   8.444  13.555   5.113 -0.0284 -0.1929  0.1569
29719W        W45903  14.660  16.432   3.911  0.2979  0.1978  0.1918
29720W        W45904   6.119   8.221  15.094 -0.0011  0.0844 -0.0993
29721W        W45905   0.466   3.241  15.900  0.2101  0.2671  0.0719
29722W        W45906  16.707   7.796   4.141  0.2605  0.5093 -0.0384
29723W        W45907   1.614  10.866   2.983  0.0396  0.1266 -0.3043
29724W        W45908  12.519   2.689   2.787 -0.1860 -0.0803 -0.0071
29725W        W45909  16.590   6.700   0.027 -0.0754  0.0066  0.2618
29726W        W45910  10.709  10.862  12.240  0.1162 -0.2203  0.1968
29727W        W45911   5.107  10.618   2.235 -0.2801  0.1863  0.1383
29728W        W45912   5.466  11.650  15.469  0.0407  0.1619  0.2111
29729W        W45913  15.160  12.968  12.698 -0.3331  0.0733 -0.1667
29730W        W45914   2.952   0.995  13.353 -0.1429 -0.1965  0.3306
29731W        W45915   0.951   0.997  14.051  0.1256  0.1154  0.1999
29732W        W45916  11.257   9.440   5.580 -0.2704  0.0629 -0.0342
29733W        W45917  13.916   1.056  15.105 -0.1834  0.2178  0.1419
29734W        W45918  10.438  10.514   3.907 -0.2139 -0.3779  0.0947
29735W        W45919  15.336  13.892  12.544  0.0885  0.0825 -0.0181
29736W        W45920  16.641  10.624  12.301 -0.2749  0.4432 -0.0669
29737W        W45921  17.382   4.845   4.687  0.1000  0.2050  0.0298
29738W        W45922  17.975  10.834  12.245  0.0655  0.2185  0.1116
29739W        W45923  15.130   9.031  15.824  0.1816 -0.2495 -0.3425
29740W        W45924   1.312  14.146   3.710 -0.0477 -0.3186  0.0142
29741W        W45925  16.755   9.056   4.690  0.0969 -0.1148  0.2269
29742W        W45926   3.615   6.801  16.334 -0.1463  0.0911  0.0704
29743W        W45927  17.055  14.254   4.988 -0.3047  0.0004  0.2003
29744W        W45928   8.660   1.196  13.747  0.0577 -0.0127 -0.1009
29745W        W45929   4.061   7.958   5.402  0.0392 -0.0195  0.1024
29746W        W45930  14.471  15.532  15.002  0.1478  0.2072 -0.0608
29747W        W45931   4.101   6.687   0.419 -0.0067 -0.0343 -0.0223
29748W        W45932   4.067  10.848   5.306 -0.0892 -0.0110 -0.0297
29749W        W45933   4.626  14.142   2.079  0.0349 -0.1490 -0.0057
29750W        W45934  11.026  13.705   1.713  0.3976  0.1900 -0.0593
29751W        W45935   5.303  14.975   0.638 -0.0439  0.0376  0.2808
29752W        W45936  16.261  15.635   1.601  0.0029 -0.0085  0.0563
29753W        W45937   5.216  13.171   4.628 -0.0973 -0.0505  0.3039
29754W        W45938  12.879   1.846  12.867  0.0956 -0.0332 -0.4471
29755W        W45939  16.436   4.737   2.033  0.0822 -0.3966 -0.1216
29756W        W45940   3.381   5.602   1.608  0.1433 -0.0874 -0.0441
29757W        W45941   7.302  16.806   2.959 -0.0662  0.1986  0.3008
29758W        W45942   3.804  17.498   4.060 -0.1474  0.2296  0.0789
29759W        W45943   2.555   3.129  13.475  0.1176  0.2294  0.1384
29760W        W45944   2.866  17.915  12.494 -0.2983  0.1565  0.1899
29761W        W45945  10.804  13.872  15.628  0.4483 -0.1217 -0.0311
29762W        W45946   9.635  14.350  14.208 -0.0179  0.2242 -0.0879
29763W        W45947  16.143   1.132  16.531 -0.1234 -0.2320  0.0973
29764W        W45948   6.625  16.428   1.605  0.2400  0.0881 -0.0860
29765W        W45949  11.234  12.906  13.427  0.1219  0.0461  0.0928
29766W        W45950  15.033  16.342  14.016  0.0063  0.0181  0.2095
29767W        W45951  15.715   3.012  12.350 -0.1514 -0.2310 -0.2223
29768W        W45952   4.667   6.749  15.950  0.0219  0.1091  0.1221
29769W        W45953   1.068   0.698  16.383 -0.0814  0.0173  0.1336
29770W        W45954   8.011  11.721  13.699 -0.0057 -0.0163 -0.0584
29771W        W45955   6.319   3.980   5.773 -0.2546  0.1365 -0.0480
29772W        W45956   1.980  13.910  13.053  0.2491  0.0769  0.1126
29773W        W45957   9.972  12.100   4.449 -0.2523  0.1755  0.2172
29774W        W45958   1.366   9.036  14.005 -0.0143  0.0004 -0.0305
29775W        W45959  16.602   1.812  12.826  0.1421  0.0683  0.0304
29776W        W45960  16.089   2.296   4.776  0.1444  0.1735 -0.0219
29777W        W45961   7.631  11.005  12.124 -0.0863 -0.1365 -0.0716
29778W        W45962   9.935  10.091  13.116  0.3165  0.1293 -0.1730
29779W        W45963   1.334   7.926   0.081  0.0504 -0.3033  0.0462
29780W        W45964  15.449  10.103  13.417 -0.0500  0.0994 -0.1214
29781W        W45965   5.423  13.585  12.877 -0.1031 -0.1341 -0.1820
29782W        W45966   3.582  17.358  16.573 -0.0893  0.0292  0.3408
29783W        W45967  11.150  17.119  13.471  0.0048  0.0242  0.1135
29784W        W45968  15.361  12.343   2.810 -0.4325  0.1206  0.1624
29785W        W45969  17.968  17.687  14.559 -0.0961  0.1677  0.1561
29786W        W45970   2.373   0.755   2.974 -0.1214  0.1229  0.0982
29787W        W45971   1.797   1.968  16.107 -0.4102  0.1453  0.0486
29788W        W45972   6.823  12.701   0.779 -0.0080  0.4015 -0.0740
29789W        W45973   7.754   8.549  13.624  0.0193  0.0819  0.1013
29790W        W45974  14.835  17.439  11.170  0.0975 -0.3458 -0.0183
29791W        W45975   1.005   0.919  15.880 -0.2142  0.1923  0.2176
29792W        W45976  10.070   7.748   1.236  0.0365 -0.0801  0.0477
29793W        W45977  13.290   6.197   3.702 -0.2192  0.1724  0.0933
29794W        W45978  14.715  13.145   5.609  0.2065  0.1172 -0.0810
29795W        W45979  15.546   3.067  11.718  0.0548 -0.2571  0.2166
29796W        W45980   7.497   9.203   0.528  0.0233 -0.1817 -0.0160
29797W        W45981   2.335  11.075   4.035 -0.0303 -0.1095  0.1881
29798W        W45982  16.075  15.460   5.595 -0.4844 -0.0478  0.1170
29799W        W45983  12.663   4.547   2.878 -0.0646 -0.0761  0.3338
29800W        W45984   2.005   0.714   3.335 -0.0613  0.0590  0.0361
29801W        W45985  12.569  13.286  15.370 -0.1659 -0.2557  0.2368
29802W        W45986  17.897  12.761  14.332  0.1395  0.0659  0.0434
29803W        W45987   5.825   3.806   5.870  0.1524  0.0154  0.2482
29804W        W45988   2.025   8.276  13.949 -0.0724  0.1816 -0.1686
29805W        W45989   4.680  16.879  15.798 -0.0048 -0.1325 -0.0218
29806W        W45990  12.013   6.270  11.767  0.0030  0.0503  0.2951
29807W        W45991   1.412  15.028  12.610 -0.1254  0.1377 -0.3738
29808W        W45992   4.136   7.445   0.423 -0.1507 -0.0225  0.0176
29809W        W45993  13.317  17.239   1.485  0.1571  0.1742  0.1349
29810W        W45994  16.425  17.024   0.509  0.2211 -0.0798 -0.0499
29811W        W45995   8.032   2.010   0.108  0.3873 -0.2492  0.0366
29812W        W45996   2.445   0.940   2.383 -0.1009 -0.0428 -0.0954
29813W        W45997  11.607  14.626  16.040 -0.0246  0.3495 -0.0331
29814W        W45998   8.034   6.291   0.154  0.0143  0.3181  0.2116
29815W        W45999   4.964   2.639   3.554 -0.0287  0.0355 -0.0824
29816W        W46000  12.710  12.430  12.442 -0.0661 -0.5113  0.1253
29817W        W46001   9.473   0.040   3.383 -0.4497  0.2209 -0.0603
29818W        W46002   9.574   8.734   2.739  0.0625 -0.2136 -0.0892
29819W        W46003   5.435  13.688   5.563  0.1219 -0.2856  0.2308
29820W        W46004   9.010  11.715  12.477 -0.0363  0.0562  0.2808
29821W        W46005  12.501   9.576   3.568  0.2862 -0.1407  0.3635
29822W        W46006  13.122  12.000   5.294  0.0040 -0.1098  0.2545
29823W        W46007  10.277   9.651   4.981 -0.0877  0.1200  0.0794
29824W        W46008   8.635   1.156   0.975  0.0266 -0.1137 -0.1539
29825W        W46009   2.632   7.423  15.419 -0.0725 -0.4546  0.0316
29826W        W46010   8.196   5.314   5.469 -0.0796  0.0924 -0.1271
29827W        W46011  16.984  13.132  14.733 -0.3525  0.1057  0.0785
29828W        W46012   0.086   2.688  12.912  0.2852 -0.1886 -0.0497
29829W        W46013   5.696  16.386   0.086  0.2455 -0.3025 -0.1200
29830W        W46014  14.718   8.445  14.653 -0.0592  0.1396 -0.1237
29831W        W46015   7.000   5.217  14.580  0.4287 -0.0636 -0.1779
29832W        W46016  17.856   0.319   0.594 -0.2483 -0.0614  0.4120
29833W        W46017   6.872   7.244  16.494 -0.2155 -0.4256  0.1586
29834W        W46018  17.462   6.513  11.326 -0.1718  0.1067 -0.0363
29835W        W46019  17.644   0.827   3.223  0.1593 -0.0639  0.0188
29836W        W46020   4.868   2.135   3.405 -0.2352 -0.0414 -0.1269
29837W        W46021  12.946  14.914   1.060  0.0459  0.2429 -0.0862
29838W        W46022  10.950   8.494  11.214  0.0566 -0.0065 -0.2611
29839W        W46023   7.132   5.925  12.685 -0.1046 -0.0789 -0.1518
29840W        W46024  17.836  14.813   5.008 -0.2942  0.0638 -0.0167
29841W        W46025  15.683  13.544   1.991 -0.0705 -0.3965  0.1629
29842W        W46026   2.531  10.140   4.478 -0.2989 -0.0686 -0.1471
29843W        W46027   0.898   7.415  14.639  0.0416 -0.2499 -0.1181
29844W        W46028  17.378   3.768  16.445  0.0102 -0.1768  0.0210
29845W        W46029   6.978  10.203  15.034  0.0228 -0.3179 -0.1695
29846W        W46030   9.600   9.228  16.526 -0.2300 -0.1200 -0.3022
29847W        W46031  14.785   4.233  16.647 -0.1504 -0.2289 -0.0036
29848W        W46032   1.725  15.740  15.847  0.0815  0.0321  0.1525
29849W        W46033  12.232  13.360   0.828  0.0245 -0.3019  0.1479
29850W        W46034  15.890   9.981   2.929  0.1047 -0.1025 -0.0721
29851W        W46035  17.341  11.461   3.825  0.0887  0.0000 -0.0175
29852W        W46036   5.064   8.848   5.715 -0.2550  0.0223  0.1376
29853W        W46037   7.685  16.051   2.878  0.4248  0.0974 -0.0551
29854W        W46038  14.534  17.822   4.417  0.0376  0.0316 -0.2052
29855W        W46039   6.289  15.598   4.477  0.2750  0.2038 -0.1280
29856W        W46040   7.135   2.842   1.980 -0.0457  0.3790 -0.0787
29857W        W46041  15.514  13.657  16.561 -0.0829 -0.1889  0.2713
29858W        W46042   0.711   2.075  16.607  0.1203  0.2943 -0.2482
29859W        W46043   7.145  16.854   0.536  0.0152 -0.2148  0.0577
29860W        W46044  17.182  14.374   0.774 -0.0181  0.0074  0.3103
29861W        W46045   4.817  16.205  11.682  0.0581  0.2371  0.3085
29862W        W46046   7.049   7.188   1.041 -0.1914  0.2010  0.2377
29863W        W46047   4.343  15.294  15.824 -0.4017  0.1027 -0.2623
29864W        W46048  15.489  13.743   4.503  0.0747  0.1265 -0.2290
29865W        W46049   7.270   1.705   2.378  0.0523  0.0374 -0.1589
29866W        W46050   8.507  13.657   2.305  0.0001  0.0864 -0.0460
29867W        W46051  10.874  16.342  13.620  0.2673 -0.1557 -0.0564
29868W        W46052   5.342  15.009  16.310 -0.1413  0.2725  0.3027
29869W        W46053   3.930  11.922  14.576  0.4313 -0.0484 -0.0893
29870W        W46054   8.210   6.183   5.363 -0.0847 -0.0170  0.0648
29871W        W46055   4.120  14.377   0.210  0.1981  0.2244  0.0341
29872W        W46056  14.438   3.162   0.419  0.2112  0.2533 -0.1540
29873W        W46057  15.789   5.122   4.468 -0.0928 -0.1480 -0.2785
29874W        W46058   3.567   5.894  14.735  0.0306  0.0118  0.1636
29875W        W46059  10.744  16.817   2.774  0.1896  0.0934 -0.0077
29876W        W46060   1.536  11.204   0.553 -0.0648  0.0591 -0.3696
29877W        W46061   7.768   1.277   0.806 -0.0788  0.0169  0.0215
29878W        W46062   8.511   1.962  13.120  0.1018 -0.4855 -0.2234
29879W        W46063  16.605   1.489  14.990 -0.0798  0.1587  0.0247
29880W        W46064   2.693  12.714   2.434  0.1144 -0.1890 -0.2214
29881W        W46065  11.288  13.209   0.022  0.3550 -0.3036  0.0097
29882W        W46066  14.453  17.306   0.914 -0.1758  0.2912  0.1744
29883W        W46067   2.503   6.414   5.087  0.1532 -0.2706 -0.1501
29884W        W46068  16.353  10.146   0.244  0.0925  0.1723 -0.0759
29885W        W46069   5.641  13.999   2.361  0.1730 -0.1398  0.0718
29886W        W46070  10.684   1.268  14.023 -0.2783 -0.0536  0.0558
29887W        W46071   1.258  11.100   3.773  0.1255 -0.0039 -0.0316
29888W        W46072   2.879   6.136   5.613  0.0367  0.2941 -0.1316
29889W        W46073   6.153   2.525  12.115  0.3546  0.1231  0.1714
29890W        W46074   3.164  16.971   3.478  0.2828 -0.0432 -0.1363
29891W        W46075  13.401  13.579  13.008  0.1764 -0.3429 -0.0599
29892W        W46076  10.737  12.461  16.153  0.0938  0.0073  0.1463
29893W        W46077   8.468   1.730   0.079  0.0856 -0.1459 -0.2572
29894W        W46078   6.885   5.140   2.608 -0.2738 -0.3649  0.1413
29895W        W46079  13.844  15.277   0.182 -0.0030 -0.0088  0.1948
29896W        W46080  16.416   5.942   2.705  0.1693 -0.1091  0.3577
29897W        W46081   5.974   0.146  13.955 -0.2028  0.2875 -0.2663
29898W        W46082  11.115   1.134   5.675  0.0665 -0.0117  0.1024
29899W        W46083   0.578  12.887  16.056 -0.4710  0.0804  0.1254
29900W        W46084   5.458   5.630   0.358 -0.0488  0.2345  0.0425
29901W        W46085   8.652   2.964   1.594 -0.0380  0.0956  0.0415
29902W        W46086   1.124   2.541   3.445 -0.0583 -0.1423 -0.5426
29903W        W46087  10.489  15.784  16.655  0.0018  0.3193 -0.1968
29904W        W46088   2.151   4.977   1.254 -0.1935 -0.2912  0.0495
29905W        W46089  13.443  14.695  13.062  0.0177  0.2838  0.1332
29906W        W46090   5.324   0.379  13.763  0.0705  0.2382  0.1311
29907W        W46091   3.901   5.906   3.734  0.1838  0.2974  0.2272
29908W        W46092  14.443   7.599   2.324 -0.0547 -0.2430  0.0532
29909W        W46093  16.135  10.868   2.224 -0.0445  0.2208 -0.1091
29910W        W46094   5.527  13.137  14.324  0.2552  0.0427  0.1998
29911W        W46095   6.877   1.322  16.448 -0.1310  0.0503 -0.0666
29912W        W46096  14.758   4.608  12.154  0.2491 -0.0120 -0.2079
29913W        W46097  13.045   6.660   0.263 -0.0371  0.1176 -0.0521
29914W        W46098   3.861   1.252  16.291 -0.3288 -0.2173  0.3038
29915W        W46099   5.261   4.226   0.318 -0.0159  0.0752 -0.0035
29916W        W46100   7.420   0.130   0.411 -0.1323  0.0746 -0.0561
29917W        W46101  11.592  12.636   3.619  0.0941 -0.1708  0.2105
29918W        W46102  11.593   9.989  12.821  0.0657  0.1567 -0.1580
29919W        W46103   4.076  13.496   4.625  0.1156  0.1354  0.1352
29920W        W46104  10.076   7.673   4.932  0.3047  0.1825 -0.0728
29921W        W46105   4.684  12.606   5.824  0.1457  0.3406 -0.2592
29922W        W46106   7.335   6.418  12.759 -0.0600  0.1926  0.2108
29923W        W46107  10.353   2.420   4.336 -0.0248  0.2839  0.1354
29924W        W46108   5.011  17.165  13.571  0.1181 -0.2831 -0.3141
29925W        W46109   1.951  10.268  13.546 -0.0647 -0.1614 -0.0151
29926W        W46110  12.649   6.347   0.437  0.1529 -0.0734  0.2271
29927W        W46111   2.885   4.535  15.605 -0.2184 -0.3083  0.0010
29928W        W46112  12.431  16.228   4.400 -0.2536 -0.0366 -0.0052
29929W        W46113  14.169   2.822  14.989  0.1463 -0.0098  0.0910
29930W        W46114  12.143   6.787   0.482  0.0589 -0.0717 -0.2235
29931W        W46115  16.471   7.490   5.320 -0.0881  0.1526  0.0988
29932W        W46116   2.548   2.202   1.599  0.0387  0.4059 -0.0316
29933W        W46117  10.875   3.754  12.840 -0.2664 -0.3015  0.1924
29934W        W46118   8.124  16.369   1.549  0.0991 -0.2918 -0.1746
29935W        W46119   8.511   6.914   0.462 -0.1906 -0.2082  0.1090
29936W        W46120  15.078   7.834  11.597  0.0221  0.0850 -0.1027
29937W        W46121  17.398   5.643   3.902  0.1640  0.0774 -0.1822
29938W        W46122  11.336   8.211  12.585 -0.0122  0.1560 -0.0627
29939W        W46123  13.764   8.910  15.718 -0.0335 -0.2786 -0.0557
29940W        W46124   3.546   5.653  12.105 -0.3002 -0.1377  0.1112
29941W        W46125   1.924  14.062   3.248 -0.1209  0.0122  0.0825
29942W        W46126  16.779   5.208  14.437 -0.1910 -0.1342  0.0338
29943W        W46127  10.438   6.943   4.527 -0.0103  0.0916 -0.0218
29944W        W46128  17.547   8.074  12.315 -0.0114 -0.1071  0.1149
29945W        W46129  13.450   6.477   0.076  0.0696  0.1128 -0.0791
29946W        W46130   9.034   3.507  13.308 -0.0310  0.1010  0.0795
29947W        W46131   8.821   9.585   1.221  0.0470 -0.0459 -0.0802
29948W        W46132  12.862  13.864   3.388  0.3047  0.0438 -0.1060
29949W        W46133  13.191  12.085   1.774  0.0975 -0.1433 -0.0393
29950W        W46134   8.919  14.224  12.189  0.2976 -0.2238 -0.0262
29951W        W46135   9.921  11.105  16.367 -0.0764 -0.0959  0.0428
29952W        W46136  10.034   8.287  13.177 -0.0243 -0.0709 -0.0235
29953W        W46137   5.550  16.732   0.507  0.2583  0.0654 -0.0220
29954W        W46138   5.935   1.675   1.301  0.1110  0.0891 -0.2762
29955W        W46139  11.326  10.135   1.996 -0.2388 -0.1833  0.2296
29956W        W46140  17.221   7.670  12.195  0.2923 -0.0559  0.0613
29957W        W46141  13.719   0.058   1.237 -0.0805 -0.0412  0.0932
29958W        W46142  11.305   1.625   5.715 -0.1507  0.3292  0.0572
29959W        W46143   1.445   6.323  16.612  0.3601 -0.0930 -0.3841
29960W        W46144   6.474   1.097  14.715 -0.0663 -0.2134 -0.2739
29961W        W46145   7.980   2.655   2.165 -0.3370 -0.0448 -0.0331
29962W        W46146  16.352  13.659   3.436 -0.5417 -0.1082 -0.1333
29963W        W46147   2.939   2.206   3.548 -0.0684 -0.2222  0.1527
29964W        W46148   2.149  18.003   6.249  0.1062 -0.0397 -0.1599
29965W        W46149  14.473   9.782   3.970 -0.0860 -0.0840 -0.0479
29966W        W46150  14.415  17.297  13.764  0.2605 -0.1150 -0.0224
29967W        W46151  16.021  11.680  14.619 -0.3065  0.1542 -0.0990
29968W        W46152   9.952  10.747   0.726 -0.2767  0.1650  0.1980
29969W        W46153   1.914  12.564   3.070 -0.0812  0.0106 -0.1015
29970W        W46154  16.823   9.569   2.829  0.0111  0.0228  0.2803
29971W        W46155   6.364   9.394   1.201 -0.0409 -0.3407 -0.1503
29972W        W46156  11.937   9.217  11.447 -0.2528 -0.1943  0.1464
29973W        W46157   8.465   9.244  15.675 -0.1073 -0.1022 -0.1087
29974W        W46158   4.277  15.895  16.616  0.0867 -0.0061  0.0795
29975W        W46159  16.809   9.693  16.122  0.1279 -0.5610 -0.0109
29976W        W46160  11.851   1.098   2.989  0.1289  0.0803  0.2936
29977W        W46161   9.893   5.817  15.037 -0.2386 -0.0177 -0.0874
29978W        W46162  14.467   0.310   3.352  0.1694 -0.0820 -0.3403
29979W        W46163   0.840  14.943   4.671 -0.2962 -0.0260  0.1412
29980W        W46164  13.200   2.688   1.307  0.1074 -0.0979  0.2164
29981W        W46165   0.909   1.836   0.768  0.0397  0.1733 -0.1621
29982W        W46166  17.465   9.770  12.746 -0.3007  0.2816  0.0618
29983W        W46167   4.301  14.497   4.212  0.0060  0.2223  0.0976
29984W        W46168   1.056   2.196  14.086  0.0356  0.0162 -0.2547
29985W        W46169  16.428  17.705  15.478 -0.1142 -0.0368 -0.2593
29986W        W46170   0.348   6.244  16.355  0.1748  0.3824 -0.1311
29987W        W46171   1.952   9.017  13.108  0.1350 -0.1570  0.1671
29988W        W46172   4.013   9.809   5.217  0.1887 -0.2621 -0.1627
29989W        W46173   4.899  10.188  13.030 -0.3294 -0.0709 -0.0693
29990W        W46174   0.590  10.004  15.400 -0.1530 -0.1456 -0.2689
29991W        W46175   9.706  12.005   4.018 -0.0924 -0.2507 -0.1005
29992W        W46176   1.381   2.354   2.523  0.1013  0.0776 -0.0536
29993W        W46177   4.645   9.190   2.311 -0.0265 -0.3234 -0.1007
29994W        W46178   1.889  16.077   2.159  0.0462 -0.1377  0.1956
29995W        W46179   7.762  16.407  15.581 -0.1893 -0.0127  0.1322
29996W        W46180   9.799  15.996   2.611 -0.0368  0.0422 -0.2221
29997W        W46181  10.394   5.593  12.892  0.0351 -0.1088  0.2052
29998W        W46182   3.010   5.241   4.552  0.0263  0.1081 -0.0864
29999W        W46183   1.313   8.182   1.463 -0.1177 -0.1940 -0.1015
30000W        W46184  14.490   7.701  11.543 -0.1518  0.0386 -0.1767
30001W        W46185   6.539   0.734  13.792  0.0099  0.0465 -0.0638
30002W        W46186  16.572  14.635  11.417 -0.2316  0.6193 -0.0997
30003W        W46187   4.735   0.185  15.068 -0.1979 -0.0081  0.0869
30004W        W46188  11.982  14.793   2.963  0.1204 -0.1216 -0.1305
30005W        W46189   5.854  11.561  12.684 -0.2087  0.0103 -0.2928
30006W        W46190  13.880  12.434  15.483  0.0747 -0.1502 -0.0201
30007W        W46191   3.819   0.591   4.628 -0.0857  0.0978  0.1750
30008W        W46192  12.561   6.911   5.267  0.2583  0.2006  0.0159
30009W        W46193  10.118  13.603  12.364  0.1273 -0.0832  0.0925
30010W        W46194   5.231   6.667  15.736  0.2333 -0.0247 -0.3894
30011W        W46195  15.250  17.257   0.339 -0.1543 -0.0089 -0.2904
30012W        W46196  14.514  15.685   2.816 -0.0891  0.1106 -0.2785
30013W        W46197   4.569  14.757   0.272  0.0798 -0.3109  0.0054
30014W        W46198  14.120   2.925  11.595  0.1325 -0.1419 -0.1414
30015W        W46199   0.243   9.819  13.153 -0.1326 -0.0599 -0.0831
30016W        W46200   0.478   1.597  12.352 -0.1817  0.1813  0.1860
30017W        W46201  11.100  17.912  13.068  0.0073 -0.0753 -0.1138
30018W        W46202   6.103   9.449  16.022 -0.0461  0.1074 -0.1143
30019W        W46203  15.495  14.012   1.287  0.2111 -0.0009  0.0418
30020W        W46204  15.710  13.314   4.348  0.0710  0.0302  0.0696
30021W        W46205   0.977   2.355   0.323  0.0962 -0.2209 -0.0915
30022W        W46206   5.014   1.984  15.458 -0.1139  0.0949 -0.0949
30023W        W46207   8.859  14.264  12.756  0.0412 -0.1692 -0.1037
30024W        W46208   7.481  13.815   0.344 -0.0574 -0.1261  0.1651
30025W        W46209   3.604   3.402  15.540 -0.1090 -0.0142 -0.1927
30026W        W46210  14.566   5.826   5.807 -0.4360 -0.0763 -0.2855
30027W        W46211  14.077   3.747  11.901 -0.0460 -0.0924  0.0808
30028W        W46212   9.648   4.811   3.034  0.1284 -0.3004  0.1669
30029W        W46213   7.969   0.003  12.030 -0.0921  0.2203 -0.0117
30030W        W46214  10.411   1.373  12.704  0.0735 -0.4130 -0.1064
30031W        W46215  12.078  13.571   0.100  0.1050  0.1905  0.0734
30032W        W46216  11.733  14.890  10.472 -0.2136  0.2528  0.0108
30033W        W46217   8.416   1.770   4.770  0.0111  0.1642 -0.1078
30034W        W46218   4.115   9.241   1.067  0.0966  0.1620 -0.0255
30035W        W46219   5.719  10.130  12.479  0.0866  0.2334 -0.1201
30036W        W46220  14.715  14.005   0.208  0.0550  0.0481  0.0581
30037W        W46221  14.346  16.757  16.072 -0.1148  0.3124  0.3542
30038W        W46222   0.761   4.060   1.800  0.1161  0.1424  0.1822
30039W        W46223  10.260  15.898   2.384 -0.1696  0.0202  0.0642
30040W        W46224   1.406  13.985   3.065  0.0003  0.1681 -0.3118
30041W        W46225   1.033   2.616  14.871  0.2734 -0.1129 -0.0607
30042W        W46226   7.945   4.592  14.377  0.1491 -0.0019  0.1710
30043W        W46227  17.937   0.591  15.323 -0.2748  0.0712 -0.0187
30044W        W46228   2.285  14.937  15.880 -0.0139 -0.1094 -0.2130
30045W        W46229  15.722   2.443  15.225  0.0184 -0.0954  0.0261
30046W        W46230   4.209   3.373   4.313 -0.1750  0.0339 -0.0166
30047W        W46231   6.517  11.377  14.024  0.1724 -0.0317  0.1988
30048W        W46232   5.061  15.284   1.577 -0.2318  0.2201  0.1836
30049W        W46233  13.982  12.832   5.289 -0.2265 -0.2209 -0.0584
30050W        W46234   1.001   2.038  11.631  0.1520 -0.0758 -0.1423
30051W        W46235   9.530  14.232  15.523 -0.0352 -0.0807  0.1940
30052W        W46236  12.992  14.032  12.942 -0.0764 -0.0225  0.2096
30053W        W46237   3.536  17.359  15.201  0.0721 -0.2242 -0.1160
30054W        W46238   3.027  14.582   4.198 -0.3974  0.0401 -0.1164
30055W        W46239  16.857   5.587   0.683  0.0340 -0.3257  0.0516
30056W        W46240   2.422  12.918   1.012 -0.0717  0.2153 -0.0722
30057W        W46241   3.235   4.193  15.322  0.0190  0.1228  0.3538
30058W        W46242   7.236  13.122  14.668 -0.1418  0.0687 -0.1546
30059W        W46243   2.145  15.006  14.720 -0.5080 -0.2439  0.1533
30060W        W46244   0.753   0.215   0.670  0.2518  0.4333  0.2315
30061W        W46245  14.783  16.997  13.662 -0.1515  0.0719 -0.1992
30062W        W46246  13.681  13.506   2.079  0.2151 -0.0796 -0.1310
30063W        W46247   8.405   7.268  13.851  0.0584 -0.1101  0.1419
30064W        W46248   7.548   7.034   6.211 -0.0912 -0.2364 -0.3659
30065W        W46249   5.857   0.281   3.687  0.0081 -0.0069  0.2804
30066W        W46250  17.978   7.779  16.356 -0.1330  0.0717 -0.0628
30067W        W46251  16.580  17.964  14.420 -0.0927  0.1675 -0.2655
30068W        W46252   8.172   1.893  13.534  0.3742  0.3382 -0.1105
30069W        W46253   1.609  17.098  11.872 -0.1026 -0.1248 -0.4327
30070W        W46254   5.799   8.560   6.329 -0.1540  0.3046 -0.0244
30071W        W46255  10.526  14.407   3.817  0.0344 -0.2445  0.1948
30072W        W46256  14.672  13.483  16.367  0.0568 -0.1814  0.2562
30073W        W46257   5.060   0.364  15.700 -0.0788 -0.3427  0.1539
30074W        W46258  13.378   4.124  16.016 -0.1284 -0.0011  0.3091
30075W        W46259   2.685   1.274  16.109  0.0008  0.2816  0.1774
30076W        W46260  15.486   5.027   3.890 -0.0694  0.0809 -0.0233
30077W        W46261   0.980   1.471  15.047 -0.0571  0.2339  0.1176
30078W        W46262  14.024   5.572  15.446  0.0032 -0.0590  0.1273
30079W        W46263   3.814   5.687  15.649  0.5320 -0.1874  0.0124
30080W        W46264  10.133  13.446   5.881 -0.2372 -0.0733  0.0393
30081W        W46265   0.123   8.105  14.722  0.0840  0.0594  0.2772
30082W        W46266   0.523  12.643   0.281  0.2952  0.0164 -0.1746
30083W        W46267  13.356   0.775  16.374  0.0866  0.3638 -0.0144
30084W        W46268  16.143   7.383   4.481  0.1971  0.3088 -0.1898
30085W        W46269  11.074   7.662   4.989 -0.0982  0.1484  0.0315
30086W        W46270   0.636   5.932   1.888 -0.0675  0.0973 -0.0425
30087W        W46271  10.839  12.843   2.487 -0.4711 -0.1175 -0.1138
30088W        W46272   8.917  14.341   3.080  0.1598  0.0880  0.0273
30089W        W46273   2.127  11.652   5.152  0.1236  0.0061 -0.0149
30090W        W46274   4.401  11.657  16.029 -0.1703  0.0416 -0.0725
30091W        W46275  15.108   3.432  16.051  0.0885  0.0340  0.0453
30092W        W46276  10.863  16.206  12.211 -0.0533 -0.1595 -0.0537
30093W        W46277   7.621  15.580   2.624 -0.2317  0.2675  0.0377
30094W        W46278   5.958   8.551  13.676 -0.0689  0.3141  0.0901
30095W        W46279   7.742  17.806  12.654 -0.3001 -0.0134  0.3041
30096W        W46280   6.270  13.722   5.458 -0.0261 -0.0398 -0.2613
30097W        W46281  11.080   9.709  13.794  0.1159 -0.0186  0.1845
30098W        W46282  13.212  11.239   1.276 -0.0472  0.1028 -0.1000
30099W        W46283  13.853   5.957   0.745 -0.0072 -0.1079 -0.0166
30100W        W46284   1.903   9.942   0.589  0.3710  0.0714 -0.1952
30101W        W46285   9.673   3.341   2.566 -0.1047  0.1942 -0.1287
30102W        W46286  12.353   8.740   0.870  0.0896  0.1769 -0.1130
30103W        W46287   6.745   4.269   3.703  0.0999  0.0207  0.0771
30104W        W46288   8.803  13.831   3.985  0.1209 -0.3125 -0.1046
30105W        W46289   5.560   8.786   5.798 -0.1201  0.2269 -0.0010
30106W        W46290   5.725   1.280   2.256  0.0133 -0.1975  0.0048
30107W        W46291   5.942  10.763  16.266  0.0936  0.1100  0.2092
30108W        W46292  13.764   1.199   1.344  0.0774 -0.0916  0.0970
30109W        W46293   7.981   4.440  13.880  0.0962  0.0119  0.4264
30110W        W46294   5.940  11.391   5.065  0.0689 -0.0177 -0.2135
30111W        W46295  13.937   5.232   1.519 -0.1665  0.2928  0.2367
30112W        W46296   8.799   5.704   5.834 -0.2857  0.0807  0.2419
30113W        W46297  13.765   0.555   1.343  0.2019 -0.4133  0.0679
30114W        W46298  16.564  11.276   4.956  0.1342  0.4357  0.0194
30115W        W46299  11.781   8.454  16.457 -0.0400  0.0306 -0.0063
30116W        W46300  16.031  16.646  15.353  0.2418 -0.2101  0.3152
30117W        W46301  16.390  15.008  12.217 -0.2148 -0.3322 -0.2552
30118W        W46302  17.701   8.031  15.578  0.3759  0.0459 -0.1820
30119W        W46303  16.055  12.747   2.364  0.0944  0.0482 -0.0366
30120W        W46304   1.378  17.052   1.434 -0.1786  0.0353 -0.1331
30121W        W46305   3.647  15.581   0.546  0.0689  0.2896 -0.0395
30122W        W46306  12.195  16.665  13.461 -0.2049  0.1069  0.1961
30123W        W46307  14.072   3.904  15.561 -0.0185 -0.0202  0.1062
30124W        W46308  17.649   8.460   1.444  0.0670  0.0952  0.1593
30125W        W46309  15.890   7.342  11.761 -0.2334  0.2818 -0.1444
30126W        W46310   6.327  14.279  13.900 -0.0541  0.0380  0.2339
30127W        W46311   5.982   2.122  15.181 -0.3846 -0.2100 -0.0452
30128W        W46312   4.981  17.956  12.416 -0.0316 -0.2088 -0.0548
30129W        W46313   0.295  12.833  16.570 -0.2667 -0.2334 -0.3475
30130W        W46314  15.478   8.737  11.491 -0.0587  0.0838  0.0516
30131W        W46315   9.173  13.181  13.335  0.1949 -0.0152  0.3277
30132W        W46316  14.689   0.229   4.189  0.1677 -0.0600 -0.4228
30133W        W46317   5.690   0.514  14.325 -0.0762  0.3872  0.1674
30134W        W46318  12.460   5.331   1.771  0.0541  0.3149  0.1969
30135W        W46319  11.046   5.694   0.784 -0.1662 -0.0024 -0.2311
30136W        W46320   2.623   3.882   1.663  0.1435  0.2037  0.0774
30137W        W46321   8.248  17.276  16.682 -0.1501  0.0313  0.0542
30138W        W46322   7.908   4.326  15.213 -0.0566 -0.2816  0.3786
30139W        W46323  11.363   6.100   5.596 -0.2656 -0.3617 -0.0803
30140W        W46324   8.842  13.734  13.993  0.2472 -0.5229 -0.1624
30141W        W46325   1.267  11.601   5.584  0.1140 -0.2262  0.1046
30142W        W46326   7.465   8.452  14.511 -0.0004  0.3152 -0.1846
30143W        W46327  10.410   2.500  12.244  0.1755  0.1849  0.0283
30144W        W46328   3.871  17.221  15.631  0.2612  0.3556 -0.0235
30145W        W46329  16.898  13.521   2.336 -0.0937  0.1082  0.1847
30146W        W46330   5.491   8.103   0.843 -0.3172  0.2287 -0.0609
30147W        W46331   8.273  10.812   2.699 -0.0275 -0.0011  0.0098
30148W        W46332  13.542  14.581   3.555  0.0204 -0.0290 -0.3611
30149W        W46333   9.940  12.890   5.593 -0.0520  0.1848 -0.1222
30150W        W46334   1.604   4.669   6.112 -0.3456  0.1821 -0.1113
30151W        W46335  15.194   1.112   1.826 -0.0352 -0.0173  0.1862
30152W        W46336   7.139  17.734  12.084 -0.3706  0.2522 -0.0600
30153W        W46337  14.683  16.881   2.740 -0.0454  0.2795  0.1410
30154W        W46338   5.172   4.389   2.951  0.1466  0.2689 -0.1847
30155W        W46339   4.844  10.570   2.647  0.1311  0.0992  0.1220
30156W        W46340   6.641   2.125   1.344  0.0207  0.2167  0.1299
30157W        W46341   6.634   7.808  16.392 -0.0980 -0.0909  0.0575
30158W        W46342   7.732  13.937   2.401 -0.2508 -0.0382  0.1658
30159W        W46343   1.956  15.635   5.096  0.0169  0.1414 -0.1796
30160W        W46344  13.113   4.574   4.237 -0.0548  0.2757 -0.1617
30161W        W46345   0.879   9.213   0.740  0.3592  0.1084 -0.1648
30162W        W46346  11.160   9.708   0.688 -0.0325  0.4763 -0.3991
30163W        W46347   1.598   1.864   0.758  0.0960  0.0119  0.1331
30164W        W46348  17.211  11.266  14.787  0.0114  0.0362  0.1935
30165W        W46349   8.021  17.326   0.459 -0.4579 -0.1534  0.2495
30166W        W46350   0.276  10.971   0.660  0.0656  0.2064  0.0721
30167W        W46351   0.857  13.178  15.182 -0.7097  0.2735  0.0443
30168W        W46352   6.799  13.739   2.361 -0.1288 -0.0329 -0.0101
30169W        W46353   3.079   0.343  12.659  0.0888  0.1134 -0.5309
30170W        W46354  11.340   9.022  14.239  0.1776 -0.1549  0.0717
30171W        W46355   6.326  13.119  10.682  0.0746 -0.0017  0.2977
30172W        W46356   9.003   0.656  15.501  0.0626  0.0949  0.0598
30173W        W46357  13.062  13.164   1.458 -0.0643  0.1108 -0.2591
30174W        W46358   5.833   9.627  11.834 -0.1589 -0.0243  0.0117
30175W        W46359  11.297   8.004   1.376  0.3244 -0.0950 -0.0639
30176W        W46360  14.716   2.709  14.225  0.0474 -0.2470 -0.3215
30177W        W46361  12.128   9.888  14.698  0.1511 -0.0611 -0.1324
30178W        W46362  13.303   4.859  13.565  0.0378  0.2747 -0.1798
30179W        W46363  13.546   8.647  16.653 -0.1644  0.0754 -0.0378
30180W        W46364   5.709   3.139   0.880 -0.3816  0.1575 -0.2594
30181W        W46365  10.854   7.894   0.445 -0.4385  0.0686  0.2070
30182W        W46366   9.246  15.117   4.129  0.1183 -0.2501  0.2764
30183W        W46367   0.596   3.698  13.175 -0.0147 -0.0569  0.1110
30184W        W46368   8.517   5.661   0.918  0.1187 -0.3319 -0.2342
30185W        W46369  11.461   4.098   1.398 -0.0854 -0.0452 -0.0264
30186W        W46370   5.341  17.490   1.571  0.1403 -0.0605  0.1638
30187W        W46371  12.539   1.133   3.753 -0.1293 -0.1689  0.0129
30188W        W46372  10.792   6.911  14.447  0.0441 -0.1513  0.2625
30189W        W46373   9.746  14.810  16.058  0.1184 -0.1933 -0.0470
30190W        W46374   2.477   5.643  15.590 -0.0057 -0.2430  0.0660
30191W        W46375  14.066   4.719   3.833  0.2036  0.6148  0.3244
30192W        W46376   8.427  13.644   4.548 -0.0572 -0.2209  0.2342
30193W        W46377   4.892   1.388  11.825  0.1331  0.0103 -0.0482
30194W        W46378  15.986  17.824  15.669  0.0518 -0.0214 -0.3466
30195W        W46379   1.125   7.439   1.926  0.0714  0.1220  0.1555
30196W        W46380   6.547  12.883  13.522 -0.2756  0.0034 -0.2500
30197W        W46381  11.299  14.958   3.857 -0.1264  0.0556  0.1377
30198W        W46382  11.962   4.757  12.849  0.1737 -0.1586  0.2089
30199W        W46383  11.170  15.669  14.400  0.0615  0.1513  0.3796
30200W        W46384   9.807   7.417  15.904  0.0640 -0.1248  0.2676
30201W        W46385   2.751  14.621  16.319 -0.0932 -0.1959  0.0594
30202W        W46386   0.663  17.207   1.552  0.0697  0.0456 -0.1820
30203W        W46387   9.696  10.869   2.657  0.1517 -0.1974 -0.0324
30204W        W46388  11.473  16.134   2.081  0.1220 -0.2632 -0.1322
30205W        W46389   2.912  13.904  12.815 -0.0673 -0.0884  0.1325
30206W        W46390   5.778   5.185   2.551  0.0948 -0.0774  0.0431
30207W        W46391  15.784   3.978  14.331  0.1592 -0.1023 -0.2124
30208W        W46392  15.418   8.964   2.245 -0.1142  0.3907  0.2100
30209W        W46393  15.812  15.668   4.254 -0.0063 -0.3369  0.0214
30210W        W46394  11.088   3.907  16.484  0.1343  0.2160 -0.0093
30211W        W46395  16.251  11.048   2.741 -0.0891  0.2936  0.1128
30212W        W46396  14.262  11.176   3.294  0.1078 -0.1788  0.1854
30213W        W46397  15.560   5.034   5.003 -0.4027 -0.0448  0.0574
30214W        W46398   0.496   7.093  12.221  0.1070 -0.1292  0.1899
30215W        W46399  14.563   7.094  14.144 -0.1411  0.0046 -0.0605
30216W        W46400  17.132  11.113  16.514 -0.3703 -0.2083 -0.0048
30217W        W46401   5.097   1.026   2.338  0.1181 -0.1565 -0.1892
30218W        W46402   0.388   9.315  12.057 -0.1810  0.1069  0.1664
30219W        W46403   0.814  12.442  12.078  0.0164  0.0094  0.1491
30220W        W46404   8.298  12.215   0.966 -0.2556  0.0876  0.0504
30221W        W46405  13.046   3.852  15.278 -0.1350 -0.2622  0.0525
30222W        W46406   3.245   3.516  14.388 -0.2025 -0.1552  0.1015
30223W        W46407   7.774  14.476  16.375 -0.1232  0.3685 -0.2262
30224W        W46408  17.082  17.039  11.940  0.0329  0.0934  0.0935
30225W        W46409   6.616  13.999   6.434  0.1748 -0.1661 -0.1035
30226W        W46410   9.605   3.960  16.291 -0.1233 -0.0331  0.0866
30227W        W46411   9.171   4.284  16.115 -0.2759  0.0579 -0.1481
30228W        W46412  12.595   6.393   1.429  0.1518 -0.2852 -0.0568
30229W        W46413   3.116   9.013  15.819 -0.2023 -0.0005 -0.1194
30230W        W46414   2.556   5.646  12.052 -0.0348  0.0042  0.3820
30231W        W46415  10.608   0.595  15.287  0.1061  0.0486 -0.2382
30232W        W46416  10.950  12.901   5.748 -0.1227 -0.2012 -0.2886
30233W        W46417  16.146  13.951  15.054  0.1738 -0.0702 -0.2172
30234W        W46418  13.569   9.117   3.924 -0.0688  0.0580 -0.0600
30235W        W46419  11.425  15.598   1.226  0.0497  0.1704  0.0798
30236W        W46420   3.627  14.736   4.649  0.0059 -0.0701  0.0033
30237W        W46421  17.118   0.971  15.694  0.0807  0.1511 -0.1116
30238W        W46422  12.011   8.933  12.441  0.0386  0.1716 -0.0952
30239W        W46423  10.956  16.827   1.339 -0.3367  0.3180  0.1502
30240W        W46424  15.561   5.447   3.580  0.1389 -0.1254 -0.0569
30241W        W46425   1.752   6.155  15.029  0.0030  0.1292 -0.1621
30242W        W46426   1.549   6.572   4.968  0.2747  0.1540  0.2132
30243W        W46427   4.784  15.530   5.161 -0.0928 -0.0750 -0.2023
30244W        W46428  11.930  14.563  12.720  0.1492  0.1083  0.1686
30245W        W46429   6.048   1.578  15.409 -0.4378  0.1735 -0.3931
30246W        W46430  10.224   3.775   3.662 -0.0804  0.0125 -0.0768
30247W        W46431   7.478  11.316  14.154 -0.1583  0.2204  0.2617
30248W        W46432   6.187   0.510   4.147  0.0152  0.2436 -0.1014
30249W        W46433   5.201   0.619   4.133 -0.0486  0.0791  0.0884
30250W        W46434  16.995  16.267   5.176  0.1776 -0.0096 -0.1593
30251W        W46435   7.084  11.244   3.680  0.2681 -0.1317  0.1846
30252W        W46436   9.643   2.364  13.881  0.0765  0.2433 -0.0754
30253W        W46437  11.621  10.032  12.294 -0.1154 -0.1235  0.1379
30254W        W46438  13.148  10.449  16.195 -0.0958  0.1420 -0.2284
30255W        W46439  14.125  17.507  14.876  0.0479  0.0103  0.1925
30256W        W46440   9.237   0.545   5.597 -0.0341 -0.1804 -0.0815
30257W        W46441  17.151   3.170   0.433 -0.1010 -0.0700  0.1080
30258W        W46442  13.404  10.075   4.992  0.1782 -0.2247  0.0024
30259W        W46443   1.893   8.824  11.771  0.2462  0.0811  0.0172
30260W        W46444  17.864   9.815  14.880  0.0271 -0.4492  0.1059
30261W        W46445   1.823   6.350   1.910 -0.1733 -0.0271  0.0454
30262W        W46446   3.910   9.341   5.482  0.1447  0.1084  0.2461
30263W        W46447  12.398  16.303  11.915  0.0544 -0.1815 -0.3889
30264W        W46448   8.609   3.867  14.163 -0.1121 -0.1414  0.1508
30265W        W46449   2.601  11.273   0.669 -0.0190 -0.0019 -0.0640
30266W        W46450   2.633   4.264   5.453  0.1506 -0.1058 -0.2150
30267W        W46451   7.539  13.755   5.327  0.4539  0.2798  0.1682
30268W        W46452   9.640   1.318  14.988 -0.2852  0.1704 -0.0755
30269W        W46453  15.814  17.421  13.062  0.0111 -0.2708 -0.0643
30270W        W46454  14.294   5.642  14.638 -0.0945 -0.2122 -0.0579
30271W        W46455  16.169  15.509   2.142 -0.1882 -0.1316  0.0184
30272W        W46456  14.397  13.337  13.869 -0.2845  0.0843 -0.1955
30273W        W46457   4.833   3.623   6.479  0.0037 -0.0058  0.0788
30274W        W46458   6.112   5.629   1.142 -0.2048  0.0662  0.4607
30275W        W46459   1.328   8.653   1.892  0.2445  0.1591 -0.0280
30276W        W46460  13.956  11.271  11.575 -0.2304  0.1239 -0.0568
30277W        W46461   7.542   0.908  12.609  0.0342  0.0908 -0.0913
30278W        W46462  14.330   8.652  14.981 -0.0469 -0.0704  0.0768
30279W        W46463  16.968  10.625  16.088  0.0990  0.1131 -0.2646
30280W        W46464   4.291  12.672  16.165 -0.1193  0.1034  0.0158
30281W        W46465   5.072  17.638  11.979  0.0167  0.0080 -0.1324
30282W        W46466   2.278   8.054  15.010 -0.1413 -0.0003  0.1396
30283W        W46467  15.717  12.836   4.842 -0.1502  0.1732  0.0948
30284W        W46468  12.378  13.524  15.977  0.0889 -0.1475 -0.0076
30285W        W46469   5.077   5.676  13.841  0.1624  0.1293  0.3145
30286W        W46470   8.784  16.463   3.991 -0.0269  0.1618 -0.1235
30287W        W46471  10.132  13.122   1.010  0.1765  0.1319 -0.0162
30288W        W46472   9.816  16.021   1.640 -0.2964 -0.2646 -0.1199
30289W        W46473  10.206   3.498  14.074 -0.2021 -0.1421  0.0582
30290W        W46474  12.533   0.704   3.451  0.1249  0.1631  0.1149
30291W        W46475   6.519   3.957   1.801  0.0490  0.2250 -0.1794
30292W        W46476   6.800   2.414   0.964  0.1193 -0.0967 -0.0271
30293W        W46477   1.723   5.189   4.464  0.3763  0.1296  0.0705
30294W        W46478   4.908   6.497   1.558 -0.2990 -0.0079 -0.1422
30295W        W46479   5.810   4.923  14.327  0.0263  0.0514  0.0074
30296W        W46480  12.195  10.664   3.323  0.1799  0.0570 -0.0924
30297W        W46481   0.117   7.065  15.246 -0.0246  0.0554  0.0335
30298W        W46482  15.238   6.180   3.290  0.1423  0.0073 -0.0195
30299W        W46483   3.890  13.173  13.459 -0.0605 -0.2142 -0.0922
30300W        W46484  13.470   1.120   5.604  0.2666  0.5799 -0.0967
30301W        W46485  10.629   6.967  13.062 -0.0137  0.0944  0.0942
30302W        W46486   9.608  15.245   4.439 -0.0130 -0.1712  0.1507
30303W        W46487   9.123   0.561  14.095 -0.1243  0.0572 -0.3364
30304W        W46488   6.289   5.638  15.302 -0.0489 -0.1072  0.0128
30305W        W46489   6.605  14.436   5.456  0.1184  0.1277  0.2985
30306W        W46490   3.367   6.889  14.367 -0.2798  0.0568  0.0690
30307W        W46491  16.950   8.190  14.769  0.0094  0.0788  0.1489
30308W        W46492   9.078   8.823  13.449 -0.1577 -0.1290 -0.3383
30309W        W46493  12.002  13.948  10.958  0.0659  0.0045  0.1699
30310W        W46494  13.639  14.961  14.997 -0.0664 -0.1509  0.0957
30311W        W46495   8.559  10.999   1.973 -0.1021  0.0076  0.2498
30312W        W46496  16.747  12.825  13.340 -0.1018  0.0614 -0.0934
30313W        W46497   5.828   7.482  16.381 -0.1039 -0.1881  0.1163
30314W        W46498   0.673   1.327  15.461  0.2387  0.1547 -0.1883
30315W        W46499  16.985   1.577  16.060 -0.0282 -0.3461  0.2168
30316W        W46500  14.289  14.032  13.231  0.5054  0.1321 -0.1369
30317W        W46501  17.328  12.304   2.627  0.2278  0.0014  0.2427
30318W        W46502   3.080  17.767   5.531  0.0812  0.0476 -0.2302
30319W        W46503  13.682   1.207   2.654 -0.2153  0.1859 -0.0242
30320W        W46504   0.923   7.421   0.918  0.1163  0.1952 -0.5011
30321W        W46505   8.184   8.984  11.933 -0.0134 -0.0056  0.0396
30322W        W46506   3.974   2.105   1.747 -0.2246 -0.1741  0.0405
30323W        W46507   4.606  10.359  14.752 -0.1101 -0.2477  0.2295
30324W        W46508   9.802  17.274  10.563 -0.2534 -0.0646 -0.1977
30325W        W46509   4.220  11.927   1.607 -0.0389 -0.2246  0.2642
30326W        W46510  13.132   5.811   1.352 -0.0118 -0.0312 -0.1285
30327W        W46511   7.325   6.542  11.814  0.1961 -0.0909  0.2048
30328W        W46512   6.325   9.615   1.695 -0.1678  0.0922  0.2625
30329W        W46513   6.984   5.654   2.671  0.3211  0.0259 -0.2770
30330W        W46514   1.442   2.363   1.738 -0.1722 -0.2712  0.1776
30331W        W46515   6.173   4.066  12.080 -0.2560  0.2297  0.1752
30332W        W46516  12.429   4.084   5.407  0.2330  0.1662  0.0368
30333W        W46517  17.084   9.563   4.053  0.0236  0.1176 -0.2571
30334W        W46518   4.159   1.563   5.068  0.0699 -0.0598  0.1303
30335W        W46519   4.367  10.450   2.628 -0.1427  0.0563 -0.1199
30336W        W46520   7.770   6.856  11.891 -0.1191  0.4471 -0.1160
30337W        W46521   2.213   3.551   2.935 -0.0946 -0.1012  0.2414
30338W        W46522  16.911   5.955  16.547  0.2982 -0.1460 -0.0365
30339W        W46523   3.942  16.550   1.047 -0.0712  0.0710 -0.1141
30340W        W46524   2.263  17.361   0.617  0.1777 -0.0032 -0.1983
30341W        W46525   7.346   0.943   5.355 -0.2181 -0.2269  0.0712
30342W        W46526  10.880  14.117   2.036  0.1319 -0.3441 -0.1250
30343W        W46527   4.960   8.676   1.509 -0.0011  0.1711  0.0433
30344W        W46528   4.225  15.035   3.979 -0.0290  0.0156 -0.1226
30345W        W46529   9.431  16.891  12.889  0.1231 -0.3357  0.2511
30346W        W46530   3.787   6.204   6.186 -0.0576 -0.2358  0.2049
30347W        W46531  17.942   0.004   5.512 -0.0220 -0.0694  0.1990
30348W        W46532   9.045   4.341   1.175 -0.2628 -0.0629 -0.0613
30349W        W46533  11.295  16.985  15.512  0.0489 -0.2799  0.2106
30350W        W46534   0.014   2.925  11.234  0.1527 -0.0978  0.4206
30351W        W46535  13.222   7.583   3.787  0.0149  0.3156 -0.0997
30352W        W46536  13.904   1.070   3.702 -0.0302 -0.1852  0.0599
30353W        W46537   1.617  13.249   1.176 -0.0670 -0.0064  0.0528
30354W        W46538   8.287  13.172   3.121  0.1954 -0.2618  0.0939
30355W        W46539   5.729   3.231  16.197 -0.2397  0.1628 -0.2911
30356W        W46540  13.886  15.556   1.160  0.2318 -0.2524  0.0316
30357W        W46541   4.804   2.003  13.352 -0.2146 -0.3535 -0.3639
30358W        W46542   0.455   8.798  14.385 -0.1966 -0.0993 -0.1421
30359W        W46543   7.053   1.772  16.661  0.1391 -0.2086 -0.1227
30360W        W46544  17.432  10.296  12.934 -0.2285 -0.2522 -0.0451
30361W        W46545   8.861   8.407   4.160  0.0346  0.0208  0.1817
30362W        W46546   3.880  14.971  13.849  0.1718  0.1027 -0.0438
30363W        W46547  12.506   8.151  11.316  0.4474 -0.1430 -0.1655
30364W        W46548   3.154   6.342   3.401 -0.0915  0.3354  0.0246
30365W        W46549  14.570  11.244  15.876  0.1078  0.1259 -0.0554
30366W        W46550   4.535  17.014   0.954 -0.1526  0.3763  0.0134
30367W        W46551  15.652  12.352   3.718 -0.0319  0.0155 -0.0297
30368W        W46552  14.693  11.718   4.371 -0.2164 -0.1095  0.1932
30369W        W46553  11.083   4.362  14.700  0.2341 -0.0814 -0.0381
30370W        W46554  13.875  10.854  16.105  0.2801 -0.4705 -0.2728
30371W        W46555   8.817   5.496  14.504 -0.1925 -0.2037 -0.0464
30372W        W46556  17.846  10.641   0.331  0.1303 -0.1445  0.1779
30373W        W46557  15.971   5.563   2.108 -0.0702 -0.0841 -0.1693
30374W        W46558   4.064   2.961   0.463 -0.0959 -0.1277  0.1545
30375W        W46559   6.278   9.884  11.848  0.3833  0.1016 -0.1567
30376W        W46560  17.360   2.092   3.203 -0.1952  0.1097  0.2002
30377W        W46561  11.782  17.701   3.136 -0.1951 -0.0866 -0.0114
30378W        W46562  12.367   4.825   3.142  0.0756  0.1033  0.0527
30379W        W46563   6.918   8.277  13.746  0.1694 -0.2958 -0.2580
30380W        W46564   0.857   0.242  12.139  0.0379 -0.1165  0.3349
30381W        W46565  14.868  16.175   3.492 -0.1530  0.0682 -0.2056
30382W        W46566   2.728   1.769  12.689  0.0994  0.0348  0.2210
30383W        W46567   0.472  11.477  12.747  0.0445 -0.3193 -0.1667
30384W        W46568  16.151  15.611  16.570 -0.0800 -0.3585 -0.2785
30385W        W46569   8.515   8.102  13.888 -0.2826 -0.0179  0.0240
30386W        W46570   6.699   3.086  14.647 -0.2949 -0.1522  0.2639
30387W        W46571  14.611   0.340   5.214 -0.5978 -0.0967  0.1508
30388W        W46572  11.920   2.279   4.050  0.3087 -0.2680  0.2134
30389W        W46573   1.155   7.323   1.423 -0.0528 -0.2685  0.0893
30390W        W46574  11.309  15.309  16.128  0.0602  0.0296 -0.1194
30391W        W46575   6.404  17.438   5.308  0.1223 -0.0295  0.5117
30392W        W46576  17.562  11.426  14.221 -0.2601  0.0475  0.0692
30393W        W46577   7.046  11.378  14.894 -0.0109  0.1656 -0.1339
30394W        W46578   0.374  13.010   4.989  0.0298 -0.1436 -0.2372
30395W        W46579  13.107   0.401  15.584 -0.0795  0.2095 -0.0005
30396W        W46580   7.047  16.486  14.777 -0.1637 -0.1900 -0.0446
30397W        W46581  13.338   9.213   5.466 -0.0707 -0.0764  0.4824
30398W        W46582  11.558   2.695   0.909 -0.1186 -0.1172 -0.2477
30399W        W46583   7.537  10.098  12.281  0.3599 -0.0001 -0.0512
30400W        W46584  13.105  10.823   2.635  0.0872  0.1651 -0.0161
30401W        W46585  11.241  12.338   1.043 -0.1340 -0.2422 -0.0710
30402W        W46586   1.397  11.960  13.499  0.0663  0.0032 -0.2222
30403W        W46587   9.697   0.066   2.610 -0.0500  0.0579  0.0938
30404W        W46588   0.677  10.453  15.578  0.2137  0.0174  0.0024
30405W        W46589   1.208   1.607   2.143 -0.0475 -0.0288 -0.2809
30406W        W46590   6.034   8.395  14.168  0.1268 -0.1321  0.0439
30407W        W46591   6.359   0.450   2.775  0.1702 -0.0718  0.1270
30408W        W46592   6.366  11.997  12.386  0.3056  0.1128 -0.1586
30409W        W46593  16.882   4.783   3.099 -0.1445  0.1188  0.1171
30410W        W46594   3.505   8.231   1.751  0.0356 -0.0758 -0.1412
30411W        W46595   2.240   5.102  16.456 -0.0895 -0.3936 -0.2428
30412W        W46596  15.430  11.434   4.200  0.0481 -0.0049  0.0973
30413W        W46597   6.045  16.716  12.523  0.1953  0.1076 -0.3212
30414W        W46598  15.271   3.295   1.041  0.0677 -0.2643 -0.0964
30415W        W46599   0.081   7.774  11.626 -0.4234  0.0298  0.1759
30416W        W46600   0.799  13.994   3.882  0.0993 -0.0669  0.0658
30417W        W46601  11.640  11.304   0.960 -0.1227 -0.1178  0.1305
30418W        W46602  17.145  13.316  15.784  0.0287 -0.0098  0.1036
30419W        W46603   1.526   9.570   0.233  0.0804 -0.0721  0.1677
30420W        W46604  14.449   1.838  12.560  0.3127 -0.1096 -0.0559
30421W        W46605   1.384   2.541   3.879  0.0230 -0.0530  0.2489
30422W        W46606  13.927  13.450   3.075  0.2589  0.1832  0.1845
30423W        W46607   7.496   4.391   2.727  0.1174  0.0814  0.3021
30424W        W46608  14.234   8.940   3.679 -0.0074 -0.0039 -0.1680
30425W        W46609   1.368   3.589   0.143  0.4307  0.3200 -0.0853
30426W        W46610  12.687  14.856   1.481  0.0531  0.1661  0.2793
30427W        W46611  13.723  12.047   3.220 -0.0406 -0.0563 -0.1219
30428W        W46612   8.902  12.645   1.299  0.0335  0.0037  0.0596
30429W        W46613  15.832   1.671  15.407  0.0324 -0.0263  0.2947
30430W        W46614   4.901   9.715   1.513  0.1127  0.2437 -0.1211
30431W        W46615   4.347  13.343  15.145  0.5929 -0.0708 -0.2490
30432W        W46616  14.593   5.118   4.663  0.0877  0.1552 -0.2805
30433W        W46617  11.773   1.252   1.007  0.1525  0.0588  0.0098
30434W        W46618   5.659  13.624  15.441  0.0523  0.2781  0.0882
30435W        W46619   7.141   9.776  14.605  0.0357  0.0847  0.0401
30436W        W46620   3.737   0.671   5.206  0.1149  0.1871 -0.1391
30437W        W46621   8.050   7.667   2.486  0.0066  0.1151  0.4334
30438W        W46622  13.620   2.066   1.573 -0.2364  0.0366 -0.0141
30439W        W46623  14.009   3.411   3.504 -0.0141 -0.1637  0.0738
30440W        W46624   4.973  14.251  13.553 -0.0822  0.1209 -0.0299
30441W        W46625  17.626  14.612  16.346 -0.0245 -0.2700  0.1082
30442W        W46626   3.120   5.734   2.610  0.0534  0.0910 -0.1126
30443W        W46627  15.649   3.436  14.433  0.1217 -0.1978  0.0308
30444W        W46628   4.534   7.556  11.938  0.3432  0.1348  0.2530
30445W        W46629   6.636  15.842   5.079 -0.1785 -0.0845 -0.0706
30446W        W46630  16.174  13.251   4.501 -0.1625 -0.1601  0.0687
30447W        W46631  12.684  12.302  13.795  0.2304  0.4342 -0.0992
30448W        W46632  17.639  16.046  14.845  0.0717 -0.3243  0.0350
30449W        W46633   4.168   4.357   6.601  0.1625  0.1189  0.2184
30450W        W46634   9.275   5.517  14.308 -0.1707  0.1721 -0.0795
30451W        W46635  12.791  10.377  16.506 -0.0667 -0.0068 -0.3278
30452W        W46636  11.344   0.499  13.751  0.3093 -0.0283  0.0266
30453W        W46637   5.406   6.628  14.666 -0.1227 -0.1445 -0.2559
30454W        W46638  14.659   0.908  12.157  0.0375 -0.0259 -0.0213
30455W        W46639  16.064   7.915  14.203 -0.0911  0.1401  0.1702
30456W        W46640  10.261   5.960  15.375  0.2080  0.0428 -0.0913
30457W        W46641  15.979   7.320  12.535  0.2061 -0.1429  0.2834
30458W        W46642  13.374  14.034   1.899 -0.4120  0.1783  0.0385
30459W        W46643   5.367   1.064  12.298  0.0235  0.2359 -0.1429
30460W        W46644  11.194   7.452   6.283 -0.2575 -0.1408 -0.0703
30461W        W46645  13.795   5.640   2.841 -0.1523  0.0260 -0.1847
30462W        W46646   7.654  11.943   4.710 -0.2819  0.1273 -0.0678
30463W        W46647   0.856   5.827   1.352  0.0709  0.0310 -0.0089
30464W        W46648  10.665   5.813  14.507  0.0051 -0.4663 -0.1416
30465W        W46649  14.184   2.752   5.132  0.0240  0.2972 -0.0693
30466W        W46650   1.226   0.205   0.982  0.0492 -0.2318 -0.1509
30467W        W46651   3.204   9.676   4.897  0.0252  0.0408 -0.1555
30468W        W46652   1.751   2.962   0.828  0.0422 -0.1979  0.3165
30469W        W46653   7.969   3.989  16.396  0.1466 -0.2351 -0.0546
30470W        W46654   9.324   1.483  16.134  0.0557 -0.3118 -0.3148
30471W        W46655   4.090  17.502  13.682 -0.2294  0.3813  0.3523
30472W        W46656  16.349   1.319  12.994 -0.0860  0.3472  0.3356
30473W        W46657  17.569   2.584   3.131  0.2837  0.0302 -0.0648
30474W        W46658  14.595   3.606   4.809  0.1363 -0.0859 -0.1659
30475W        W46659  12.503   5.418   0.534 -0.2476  0.0357  0.2126
30476W        W46660  12.302   0.227   4.059 -0.0947  0.2926  0.1182
30477W        W46661   3.271   0.901   2.486 -0.1602  0.0647  0.0676
30478W        W46662  15.447  10.998  14.878 -0.1509  0.0986  0.2983
30479W        W46663  14.679  14.253  13.902 -0.0180 -0.1176 -0.0917
30480W        W46664  13.690  14.863  15.977 -0.3663  0.1280  0.2154
30481W        W46665  14.613  12.170  13.575 -0.0715 -0.0602  0.0050
30482W        W46666   0.751   6.126   2.596 -0.1025 -0.1276 -0.1337
30483W        W46667   6.571   0.980  10.769  0.0694  0.0935 -0.2186
30484W        W46668   1.643  10.097  14.514 -0.1805  0.0672 -0.2569
30485W        W46669   9.414   5.850   4.724 -0.2959  0.4762  0.0799
30486W        W46670   0.539   9.181  16.068  0.0588  0.0949 -0.3438
30487W        W46671  10.603   9.263   4.235  0.0825  0.0394  0.4216
30488W        W46672   4.913  13.797  16.668  0.0429 -0.0116 -0.0777
30489W        W46673   4.126   2.134  13.914 -0.0045 -0.0408 -0.0885
30490W        W46674  17.770  15.780   1.865  0.2136 -0.0376 -0.2650
30491W        W46675  15.394   1.174  15.807 -0.2728  0.0184 -0.0499
30492W        W46676   9.344   3.802  13.579 -0.2574 -0.2635 -0.1872
30493W        W46677  11.038  10.225  16.041 -0.4760 -0.0405  0.0375
30494W        W46678   1.084   0.919   1.601  0.2217 -0.0041  0.0369
30495W        W46679   6.968   7.531   5.614  0.1106 -0.0496  0.1634
30496W        W46680   0.434   8.188   0.957 -0.2735  0.2732 -0.1336
30497W        W46681  14.215   8.277   1.231  0.4490  0.2273  0.2864
30498W        W46682  10.041   3.363   4.257 -0.2070  0.0942  0.3351
30499W        W46683  13.224  12.873   3.263  0.3697  0.1839  0.0041
30500W        W46684   8.197   0.267   1.233 -0.1558  0.1599 -0.1060
30501W        W46685   7.845   7.007   1.692  0.2205  0.0478 -0.0026
30502W        W46686  16.432  14.300  13.469 -0.0764  0.1128 -0.1842
30503W        W46687  16.526   2.998  10.089 -0.1633 -0.0551  0.1180
30504W        W46688   2.782   4.585   0.428 -0.0856 -0.2779 -0.1343
30505W        W46689  13.290   7.809  10.880 -0.0976 -0.0780  0.1055
30506W        W46690   6.056  14.818   4.409  0.1920 -0.2204  0.0553
30507W        W46691  17.617   1.572   4.620 -0.2077 -0.0074 -0.1457
30508W        W46692  16.449  16.188  13.286  0.0412 -0.1053 -0.1676
30509W        W46693   4.745   1.999   0.648 -0.0672  0.1616 -0.0556
30510W        W46694  17.258   2.345  13.498 -0.4787  0.1118 -0.0524
30511W        W46695  15.530   4.644  13.781 -0.0887  0.1650 -0.2867
30512W        W46696  13.878   0.134  13.230  0.3057  0.1614 -0.0442
30513W        W46697  10.380   0.530   1.981 -0.0849  0.0486  0.0247
30514W        W46698   9.780   6.517  15.072  0.2555  0.3083  0.1438
30515W        W46699   1.278   9.236  14.525  0.3550 -0.1440 -0.0743
30516W        W46700  13.552  17.558   2.615  0.2515  0.4686  0.0515
30517W        W46701  11.193   9.952   4.845  0.0566 -0.1821  0.2101
30518W        W46702  13.340  13.058   1.856  0.2906 -0.3707  0.2538
30519W        W46703   9.436   4.826  13.047  0.1862 -0.0546 -0.0048
30520W        W46704  12.624  16.978  16.249 -0.0069  0.2011 -0.1666
30521W        W46705  14.181  17.984   2.072  0.3192  0.2597  0.2811
30522W        W46706  13.831  12.046   1.673  0.0548 -0.1241 -0.0787
30523W        W46707  13.172   2.553   5.727  0.1011 -0.0548  0.0403
30524W        W46708   2.039   6.512  12.445 -0.3085 -0.0438  0.1116
30525W        W46709  16.388   2.150   2.141  0.1542 -0.2494  0.0796
30526W        W46710   1.887   2.217  16.498 -0.1527  0.1040  0.2414
30527W        W46711  13.864  10.510   2.034  0.2366  0.3694  0.3192
30528W        W46712  12.319  11.931   0.422  0.0324 -0.1183 -0.0290
30529W        W46713  15.321  11.456  16.127  0.4221 -0.2273 -0.0787
30530W        W46714   2.156  16.024  15.899 -0.2769  0.2326 -0.0526
30531W        W46715   1.160  17.131  11.531 -0.2310  0.1244  0.0356
30532W        W46716   5.333   5.022  14.605  0.0719 -0.0241  0.2276
30533W        W46717   0.058  10.895  13.308  0.2104 -0.1318 -0.2488
30534W        W46718  12.094  17.999  15.109  0.0737 -0.1218 -0.1853
30535W        W46719  14.780   6.415   4.675 -0.0321  0.1037 -0.0716
30536W        W46720  14.417  10.621   1.341  0.3764 -0.1905 -0.0034
30537W        W46721  10.000  16.833  15.106  0.0609 -0.0502 -0.0733
30538W        W46722   1.302  16.518   2.263 -0.1759  0.1356 -0.1619
30539W        W46723   8.016  16.180  12.324  0.0459  0.2266 -0.0626
30540W        W46724   5.008  11.392   4.449  0.3044  0.1069  0.0692
30541W        W46725  14.422   7.808   2.823  0.2801  0.2025 -0.0250
30542W        W46726   7.661   8.139   2.755  0.1902 -0.2743 -0.0275
30543W        W46727   7.646  12.459   0.974 -0.3050  0.2103 -0.0115
30544W        W46728  17.879  13.431  11.473 -0.0649 -0.0955  0.0128
30545W        W46729  16.386   1.632   3.977 -0.0894  0.0794  0.1428
30546W        W46730   0.523  14.074   3.506  0.1820 -0.2056 -0.0610
30547W        W46731  11.286   6.781  16.085 -0.0972  0.1844  0.3358
30548W        W46732  17.317   4.027  14.861 -0.3295  0.5940 -0.1760
30549W        W46733   5.385   7.294   4.771  0.2683  0.0720 -0.3395
30550W        W46734   9.086   8.041   3.920  0.0326  0.1411  0.4404
30551W        W46735   3.540   6.387   3.850 -0.2421 -0.0713 -0.3339
30552W        W46736   6.976  17.687   0.795  0.3551 -0.3317 -0.1298
30553W        W46737  12.085   8.510   2.433 -0.2355 -0.0366  0.0150
30554W        W46738  12.457  10.398  11.119 -0.2020 -0.0594  0.1361
30555W        W46739   8.705  17.329  15.063 -0.1816 -0.1502  0.0015
30556W        W46740  12.069  14.847   4.243 -0.1781 -0.2231 -0.2703
30557W        W46741   5.389   4.098   4.850 -0.0723 -0.3696 -0.3268
30558W        W46742  12.788  14.492   2.749 -0.2279  0.3277 -0.2935
30559W        W46743  14.522  12.751   3.873  0.1902 -0.1840 -0.0915
30560W        W46744  12.803   7.192  13.271  0.2604 -0.1012 -0.1496
30561W        W46745   4.067  14.620  11.438  0.3007  0.1680 -0.2777
30562W        W46746  17.671  12.238   4.314 -0.0605  0.1092 -0.2518
30563W        W46747  17.197  12.109  12.844  0.3142 -0.3962 -0.0744
30564W        W46748   1.589   4.773  13.667  0.2485  0.1412 -0.1816
30565W        W46749  13.905  13.553   0.029  0.2697 -0.1460  0.0107
30566W        W46750   8.558   4.142  12.156 -0.2533 -0.1259 -0.1410
30567W        W46751   8.982  10.080  11.938 -0.0617  0.0700  0.0404
30568W        W46752   1.969   6.212  12.929  0.1963  0.1190  0.0270
30569W        W46753  17.602   1.592  14.711 -0.0496  0.1038  0.0140
30570W        W46754  11.574   8.821  14.681 -0.0462  0.0943  0.4361
30571W        W46755   4.464   2.099   5.151 -0.1755 -0.0546 -0.0321
30572W        W46756   8.711  16.993   1.563 -0.0036  0.1267  0.1668
30573W        W46757   3.330  11.730  15.211 -0.1110 -0.2193  0.2107
30574W        W46758   8.338  11.643   2.932 -0.0687 -0.0965 -0.1411
30575W        W46759   0.817   7.787  16.339 -0.3563 -0.1092  0.1179
30576W        W46760   6.376  13.149   3.301  0.1545 -0.1806  0.2302
30577W        W46761  15.332   1.592  11.633 -0.0413 -0.1762  0.0018
30578W        W46762  12.314   4.809  11.827 -0.3161 -0.0692  0.1286
30579W        W46763  10.912  17.710   4.232  0.0740  0.1611 -0.1282
30580W        W46764   0.533  14.299   2.548  0.0212 -0.1297  0.0134
30581W        W46765  17.688  17.006   1.290 -0.0246  0.2946 -0.0581
30582W        W46766   5.336   5.849   2.244  0.1256 -0.2224 -0.4957
30583W        W46767  16.639   7.626  15.518  0.0277  0.1494 -0.1537
30584W        W46768  11.515  14.118   1.256  0.0842  0.0731 -0.1518
30585W        W46769  12.709   4.099  13.042 -0.2141 -0.0097 -0.0816
30586W        W46770   1.500   1.588   3.240  0.2895  0.1963  0.2396
30587W        W46771   2.875   9.662   5.298 -0.1226 -0.1070  0.0920
30588W        W46772   9.321   1.551   1.422 -0.2228  0.1922  0.1308
30589W        W46773   4.727  13.541  12.244 -0.2337  0.1165  0.0083
30590W        W46774  15.991   3.048   3.317  0.2967 -0.0621  0.2599
30591W        W46775  16.319   0.247   3.803  0.0574  0.0348 -0.0865
30592W        W46776  13.480   4.820   2.046 -0.0906  0.0347 -0.0004
30593W        W46777  15.831  10.917  12.678 -0.0698  0.2940  0.0555
30594W        W46778  11.246   7.487   5.401 -0.2539 -0.0628 -0.0420
30595W        W46779   5.972  16.299   1.854 -0.0287  0.0340  0.2273
30596W        W46780   8.830   8.195   0.600 -0.2518 -0.0112  0.1289
30597W        W46781  10.544  17.605  15.331 -0.0315  0.0392 -0.2948
30598W        W46782  12.207  10.271   1.493  0.2639 -0.1523  0.1060
30599W        W46783   4.042  12.258   1.956  0.4277 -0.1204  0.1747
30600W        W46784  15.301  10.761  15.668  0.2117  0.0684 -0.0293
30601W        W46785  10.910   0.836   5.204  0.3315  0.0701  0.1347
30602W        W46786  11.857   7.683   3.124 -0.0259  0.1356  0.0196
30603W        W46787   0.837  14.184  12.832 -0.1232 -0.1535  0.4599
30604W        W46788   6.994   7.710  15.543  0.1024  0.0179  0.4528
30605W        W46789  11.582  12.140  13.720 -0.2329 -0.1582  0.0287
30606W        W46790   7.900   6.781   0.104  0.1036 -0.1445  0.1525
30607W        W46791   0.788  17.146   4.608  0.0430  0.0487 -0.1858
30608W        W46792   5.482   1.856  14.652 -0.1008 -0.2326  0.2372
30609W        W46793  16.320   5.230   0.771  0.2430 -0.1489 -0.1957
30610W        W46794   4.449  10.080   4.854  0.2844  0.2478 -0.0564
30611W        W46795   3.224   2.822   0.057  0.1255  0.0823 -0.1578
30612W        W46796   6.726   7.121   0.243 -0.1164 -0.0115  0.1770
30613W        W46797  15.435   6.768  15.641  0.0933 -0.2105  0.3472
30614W        W46798  11.498   9.870  15.245  0.1080 -0.3072  0.0280
30615W        W46799  16.257   5.909  13.486  0.1113 -0.2089  0.0564
30616W        W46800  15.612  14.866  13.572  0.1652  0.0459 -0.0152
30617W        W46801   4.469  15.177   2.086  0.3360 -0.0329  0.1169
30618W        W46802   4.328  12.964  13.738  0.1324  0.2150  0.2418
30619W        W46803   2.996  17.093  15.369  0.1518  0.0906  0.0953
30620W        W46804   1.345  11.865  13.952 -0.0315  0.0389 -0.0237
30621W        W46805   2.711   5.406  16.399 -0.1248 -0.1603 -0.0016
30622W        W46806   0.684  15.926   1.595 -0.0130  0.0041  0.4034
30623W        W46807   0.477   1.259   5.669  0.0626 -0.2534  0.0992
30624W        W46808  16.847  16.078  15.513  0.1647  0.1956  0.0222
30625W        W46809  17.173   7.493  11.147  0.0623  0.0959  0.1444
30626W        W46810   0.499   8.891  13.060 -0.2143 -0.0919  0.0072
30627W        W46811  15.467   3.238  13.684 -0.1460  0.2217  0.0789
30628W        W46812   0.815   0.875   4.537  0.1412  0.2319 -0.2541
30629W        W46813   2.038  14.168   4.607  0.0389  0.1070 -0.2938
30630W        W46814   4.338  10.424   5.230 -0.0105  0.4859 -0.0819
30631W        W46815   7.419  12.244  12.603 -0.1275  0.1322 -0.1949
30632W        W46816   0.565  12.456   0.776  0.1221  0.4640  0.2302
30633W        W46817   8.947   6.561   2.251  0.1808  0.0618  0.0103
30634W        W46818   2.434   7.883  13.750 -0.0694  0.0526  0.1093
30635W        W46819   3.603   5.127  11.418  0.1538 -0.0540  0.0555
30636W        W46820   2.861   8.250  13.830 -0.1031 -0.3416  0.2935
30637W        W46821   4.969  16.940  14.871  0.0499  0.1085 -0.2536
30638W        W46822   2.124  15.511   4.128 -0.1913  0.0407  0.0391
30639W        W46823   2.696   0.561   2.597 -0.0285  0.2006  0.2664
30640W        W46824  14.846   2.501   4.726  0.1812 -0.1170  0.1072
30641W        W46825   9.800   1.685  16.269 -0.1049  0.3670 -0.2262
30642W        W46826  13.532  11.813  14.127 -0.2488  0.0765  0.1673
30643W        W46827  15.422   7.940   4.333 -0.1117 -0.0856  0.3079
30644W        W46828   5.628   9.138  15.358 -0.0446  0.0048  0.0538
30645W        W46829   6.342   8.069  11.925 -0.1382 -0.1230 -0.2867
30646W        W46830   1.299  16.064  14.160 -0.1364  0.1189  0.1802
30647W        W46831  11.718   8.589  13.399  0.0386 -0.1129 -0.1652
30648W        W46832  11.388   1.636   0.399  0.2067 -0.1616 -0.1253
30649W        W46833   5.557  12.692  15.755  0.1313 -0.2682 -0.1754
30650W        W46834   1.930   9.723  14.301  0.1515  0.1103  0.1422
30651W        W46835   4.779   3.859  14.585 -0.0008  0.2985  0.2734
30652W        W46836   3.410   0.152  13.088 -0.0205 -0.0177 -0.0948
30653W        W46837   8.804   3.848   1.113 -0.0691 -0.2272 -0.0378
30654W        W46838   2.748   9.192   1.512 -0.0119  0.0320  0.1120
30655W        W46839   1.106  11.832   6.078  0.2691  0.0011 -0.1231
30656W        W46840   5.638   6.039   5.635 -0.1632  0.1259 -0.2345
30657W        W46841   9.171   6.146   2.769  0.1743  0.2157  0.1013
30658W        W46842   8.548   7.031  15.681  0.0339  0.0321  0.1674
30659W        W46843  10.252  16.176   1.535 -0.2175  0.3128  0.1230
30660W        W46844  12.862   9.294  16.507 -0.0092  0.0841  0.0709
30661W        W46845  16.848  16.826  14.516  0.1392  0.1329 -0.2785
30662W        W46846  16.103   3.114   2.432  0.0550  0.0029 -0.0235
30663W        W46847   1.137  17.815   3.992  0.2875  0.3118 -0.2068
30664W        W46848   6.419   8.341   1.005 -0.2553  0.0318 -0.0020
30665W        W46849   1.668  12.979   0.230 -0.1161 -0.2244  0.0863
30666W        W46850  16.902  14.175  13.075 -0.0079 -0.0085  0.1164
30667W        W46851  10.348   1.549  13.145  0.1385  0.1776  0.0663
30668W        W46852   3.716   8.733   0.904  0.4196  0.0945 -0.0884
30669W        W46853   8.834  11.528   3.034 -0.0399  0.0231  0.0362
30670W        W46854   1.888  15.812   3.023  0.0100 -0.4307 -0.1411
30671W        W46855  11.434   9.285   0.761  0.0471  0.1509  0.1905
30672W        W46856   8.100   1.745  12.857  0.2359  0.1121 -0.0028
30673W        W46857  13.740   2.784   2.121  0.0665  0.2830  0.2479
30674W        W46858   4.870   5.151  13.928 -0.2164  0.0964  0.0664
30675W        W46859   5.591  16.052   4.122  0.0467 -0.0401 -0.1135
30676W        W46860   5.354  10.247   1.650 -0.1245 -0.3317 -0.0183
30677W        W46861  10.279   1.320  14.532 -0.3208 -0.0637 -0.2473
30678W        W46862   9.101   7.237  14.877 -0.1990 -0.0143  0.1189
30679W        W46863  12.370   6.490   3.817 -0.1496  0.1234  0.2532
30680W        W46864   0.372   2.310  15.735 -0.1289  0.0240  0.0061
30681W        W46865   6.884  13.139   4.423  0.0613  0.2024  0.0514
30682W        W46866  15.298   6.853   4.571 -0.1692 -0.2825 -0.2545
30683W        W46867  16.194  14.094   3.244 -0.0279  0.0039 -0.1363
30684W        W46868   4.732   1.535   4.465 -0.1469  0.0174  0.0282
30685W        W46869  17.562   6.573   3.749 -0.4351 -0.0149 -0.1612
30686W        W46870   6.141  16.149   3.306 -0.4300 -0.1241  0.3322
30687W        W46871   5.084   1.359  12.783 -0.0569  0.1129 -0.0968
30688W        W46872   6.027   5.788  13.072 -0.3756  0.0620  0.1036
30689W        W46873   1.941   1.762  12.501 -0.1058  0.4431 -0.1520
30690W        W46874  17.844   3.395   4.142  0.1047 -0.1259  0.2689
30691W        W46875   9.973   3.528   0.441  0.0323  0.0400  0.0594
30692W        W46876   9.703   5.834  16.676 -0.0143  0.2274  0.1968
30693W        W46877   6.693   5.527  14.855 -0.1272 -0.2348  0.1123
30694W        W46878  12.416  14.218   0.682  0.0894  0.0677 -0.2373
30695W        W46879  15.807   1.167  15.336  0.1831  0.1889 -0.0037
30696W        W46880  13.633   6.890  14.296  0.4724  0.0228  0.0071
30697W        W46881   7.516  11.517   4.387  0.1712  0.0123 -0.0777
30698W        W46882   3.041  13.272  14.584 -0.2377  0.0247 -0.1616
30699W        W46883  11.552   9.266   2.092  0.1296 -0.1029  0.4017
30700W        W46884   0.360   3.781   2.090 -0.0012  0.1320  0.0553
30701W        W46885   0.446   8.911   4.234 -0.1228  0.1130 -0.2606
30702W        W46886  17.666   9.804  12.254  0.4295 -0.1676 -0.1912
30703W        W46887  15.935  16.074   0.922  0.0702 -0.0318 -0.2757
30704W        W46888   0.953  13.578  14.891  0.3466  0.0753  0.2359
30705W        W46889  16.707  16.055  16.202 -0.1861  0.0089 -0.2094
30706W        W46890   3.022   6.464   3.891 -0.1692 -0.0450 -0.1490
30707W        W46891   9.203  13.270  15.690 -0.1023  0.0208  0.1626
30708W        W46892   9.604  11.230  13.029 -0.1339  0.0586  0.2458
30709W        W46893   9.685  17.341   5.401  0.2016  0.1176 -0.2254
30710W        W46894  10.186   7.276   1.848 -0.0847 -0.2007  0.5272
30711W        W46895   5.278   5.810  13.394  0.4665  0.1184  0.1579
30712W        W46896   5.191   9.502  13.798  0.0287 -0.2754 -0.0005
30713W        W46897   4.215  12.386   5.235 -0.0378 -0.1190  0.2638
30714W        W46898  13.764  16.677  11.203  0.2329 -0.0349 -0.2457
30715W        W46899   1.276   9.622   1.478  0.1918 -0.1648 -0.0765
30716W        W46900   8.284  11.177  15.282 -0.0302 -0.0862 -0.2562
30717W        W46901  17.387  17.503  11.998 -0.3132  0.0228 -0.3755
30718W        W46902  11.162   7.106   0.141 -0.2574 -0.3650  0.3927
30719W        W46903  12.063  16.273  12.334 -0.0752 -0.1140  0.1370
30720W        W46904   2.801   3.795  14.454  0.2347 -0.0731  0.1641
30721W        W46905   7.231  12.469   0.025  0.0354 -0.0411  0.2125
30722W        W46906  14.254  14.353  14.943  0.1049  0.0681  0.1394
30723W        W46907   0.124   3.086   1.450  0.2293 -0.3417 -0.0707
30724W        W46908  10.461   0.486  16.342  0.0003 -0.2281 -0.3229
30725W        W46909   8.332  11.675  13.267  0.1011  0.0322  0.0441
30726W        W46910   4.972   3.913   0.006 -0.3546  0.3296  0.1488
30727W        W46911  10.631   3.527   2.867 -0.0060  0.2578  0.1641
30728W        W46912   6.134  17.379  13.306 -0.3339  0.5011  0.1720
30729W        W46913  10.973   4.082  13.211 -0.0037  0.2054  0.2316
30730W        W46914  15.381   8.985  14.144 -0.1463  0.1077  0.2240
30731W        W46915  13.425   5.611  16.212  0.0388 -0.0795  0.1818
30732W        W46916   8.239  16.700  13.822  0.0831 -0.0407  0.0560
30733W        W46917   6.563  16.392  14.594 -0.1185  0.1085  0.3917
30734W        W46918   1.166  13.725  13.978  0.2066 -0.2448  0.0887
30735W        W46919  13.114   8.639  13.783 -0.1838 -0.0038 -0.0016
30736W        W46920  10.365  13.658  15.473 -0.0335  0.2787 -0.6951
30737W        W46921   2.824  17.312  13.643 -0.2564  0.0175  0.0031
30738W        W46922  12.557   3.934  15.436  0.0462  0.0316  0.0112
30739W        W46923   5.724   8.593   4.566 -0.0195  0.1500  0.1653
30740W        W46924   0.237   7.009  16.189  0.0926 -0.0739  0.3629
30741W        W46925   7.257  11.403  16.070  0.0767 -0.0498  0.1045
30742W        W46926  11.209  13.890  11.887 -0.1031 -0.2667 -0.0319
30743W        W46927  14.938  14.710   0.996  0.1425  0.0478 -0.2284
30744W        W46928  13.021   5.863  13.129 -0.0552  0.1455  0.0702
30745W        W46929  13.285   9.301   1.207 -0.0383  0.2594 -0.2554
30746W        W46930  16.693  13.622  14.549 -0.0443  0.0790  0.1981
30747W        W46931  14.102  11.463   0.376  0.0735 -0.0378  0.4883
30748W        W46932  12.318   5.061  12.273 -0.0300  0.0646 -0.0484
30749W        W46933   7.636   8.170   3.700  0.1111  0.0414 -0.2073
30750W        W46934  15.178   9.602  11.915 -0.0248  0.2545  0.2877
30751W        W46935  13.320  15.978  13.914 -0.1054  0.1980  0.1144
30752W        W46936   9.703   8.842   6.453  0.0194  0.0268 -0.0200
30753W        W46937  11.575  14.733   5.063  0.4392 -0.3042  0.0272
30754W        W46938  14.992  16.208  12.520  0.0868 -0.1406 -0.2108
30755W        W46939   6.143  12.015  13.407  0.1236  0.1050  0.1690
30756W        W46940  15.511   0.425   4.657 -0.2342  0.1300  0.1814
30757W        W46941  15.522   0.892  16.199 -0.0142 -0.0560 -0.2318
30758W        W46942  15.553   8.307  13.229  0.0611 -0.2942  0.0890
30759W        W46943   0.771   0.853   2.877  0.2151  0.2884 -0.1032
30760W        W46944   7.907   9.896  12.985  0.0066  0.0581  0.2576
30761W        W46945   2.052  15.397  14.184  0.0768  0.0779  0.2112
30762W        W46946   7.888   8.135  14.578 -0.1011 -0.0629  0.1960
30763W        W46947   4.614   6.433   3.769 -0.0555  0.1236  0.0889
30764W        W46948   6.478  15.637   1.378  0.2249 -0.0500  0.0853
30765W        W46949  17.954  15.883  15.823 -0.1517  0.1335 -0.3216
30766W        W46950  10.642  17.294  13.463  0.0590 -0.1187 -0.2528
30767W        W46951   1.281  13.504   6.203 -0.1532  0.1218  0.2096
30768W        W46952   1.942  11.335  15.284  0.1045  0.2539 -0.3268
30769W        W46953  17.521   5.224   0.021  0.4067 -0.0573  0.2289
30770W        W46954   8.966  16.349   0.885  0.1698 -0.0078 -0.0793
30771W        W46955  16.550  16.943   3.092 -0.0911  0.2563 -0.1626
30772W        W46956   0.526  17.461  13.660 -0.1819 -0.0760  0.1007
30773W        W46957   1.366   1.806  11.864  0.1873  0.0284  0.1469
30774W        W46958  11.579  15.313  16.669  0.0033 -0.0449 -0.3293
30775W        W46959  11.731   8.736   5.260 -0.1068  0.1398  0.2911
30776W        W46960  14.145  12.869   3.490  0.1085  0.0113 -0.2474
30777W        W46961   4.050  14.065   2.286  0.0251 -0.2563  0.0612
30778W        W46962  10.461  10.408  12.034  0.0154 -0.2002 -0.0992
30779W        W46963  10.091   9.548   2.017  0.2109 -0.1290  0.1832
30780W        W46964  17.834   6.571   4.523 -0.1076  0.1800  0.2220
30781W        W46965  13.072   7.761  15.559  0.0746 -0.0116  0.1360
30782W        W46966  12.118   9.404  15.852 -0.0043  0.2620  0.0882
30783W        W46967  14.996  17.664   2.261 -0.0199  0.3583  0.0726
30784W        W46968   5.606   4.182   4.326 -0.0429  0.0532  0.2739
30785W        W46969   4.582   8.213   5.677  0.0279 -0.0701 -0.1037
30786W        W46970   1.780  10.913  12.949  0.1521  0.1031 -0.0741
30787W        W46971   7.343   4.817   1.725 -0.0302 -0.0807 -0.2265
30788W        W46972  13.148   5.517  14.299 -0.1021  0.1608 -0.0835
30789W        W46973   3.631  12.804   2.921  0.1585  0.1253 -0.1067
30790W        W46974   9.239   0.502   0.760 -0.0544  0.1190 -0.0870
30791W        W46975   2.484  11.111  16.050 -0.0981 -0.0253 -0.2225
30792W        W46976   1.260  12.519   0.221  0.2291 -0.1731  0.0640
30793W        W46977  12.266   8.334  11.748  0.0916 -0.3673 -0.1940
30794W        W46978  11.338  11.604   2.731 -0.1961  0.1562 -0.0793
30795W        W46979  11.439   1.043   0.081 -0.1768  0.1396  0.0781
30796W        W46980  10.815   1.790  13.909  0.1104  0.1550 -0.1412
30797W        W46981  15.585   6.134   4.846 -0.1904  0.1306 -0.2123
30798W        W46982   9.113  17.225  12.516  0.0340 -0.0205  0.1793
30799W        W46983   4.344  11.907   3.646 -0.0012  0.0155 -0.0384
30800W        W46984   9.915   7.111  14.269 -0.2807 -0.1551  0.3514
30801W        W46985   9.512   5.581  13.869  0.1188  0.1179  0.0966
30802W        W46986  15.577   7.004  13.369  0.0289  0.2152  0.1236
30803W        W46987  15.434   8.770   2.724 -0.0249 -0.2453  0.0319
30804W        W46988   3.118   0.123  13.978  0.0153 -0.3808 -0.2085
30805W        W46989   4.370  13.461   0.614 -0.0172 -0.1464 -0.0414
30806W        W46990  13.496  10.042  14.392  0.5045 -0.3298 -0.0675
30807W        W46991  14.667  11.815   2.180 -0.0635  0.0171  0.0670
30808W        W46992  15.749  15.200   0.404 -0.1037  0.0970  0.2752
30809W        W46993  11.285   2.478   4.283 -0.3659 -0.1561  0.0635
30810W        W46994  16.985   2.081   1.255 -0.1607  0.3152  0.2931
30811W        W46995  17.356  16.822   2.584 -0.1052 -0.1592 -0.1819
30812W        W46996   6.673  12.359  15.324 -0.0018  0.1678 -0.2301
30813W        W46997  14.028   4.837   1.879  0.0342 -0.0326 -0.0302
30814W        W46998  11.301   1.425  13.180  0.1835  0.1164  0.0016
30815W        W46999  16.612   1.764   0.383 -0.1566  0.1349 -0.0501
30816W        W47000   8.326   2.356  15.007 -0.3122  0.1612  0.1782
30817W        W47001   8.010   6.407  15.010  0.1723 -0.0292  0.0495
30818W        W47002   6.208  10.432   2.780 -0.3078  0.0324 -0.0797
30819W        W47003  14.175   7.368   2.680  0.0999 -0.0169 -0.2355
30820W        W47004  13.474   5.961   1.049 -0.1241  0.0887 -0.5930
30821W        W47005   8.658   7.617  14.035 -0.2280  0.1120 -0.0642
30822W        W47006   9.247   7.520  13.446 -0.2275 -0.1435 -0.1725
30823W        W47007   9.246  16.326   4.950  0.4363 -0.0069  0.0294
30824W        W47008   2.286  17.498  15.977 -0.0716  0.0548  0.0897
30825W        W47009   6.552   7.543  14.342  0.0636 -0.1371 -0.1106
30826W        W47010   7.958   8.564   2.828 -0.0550  0.0074  0.3355
30827W        W47011   2.945  14.138  11.757  0.1089  0.2041  0.1848
30828W        W47012   3.037   2.478   5.227 -0.0720  0.0731  0.1315
30829W        W47013  14.179   4.748  15.422 -0.0865 -0.3172 -0.0366
30830W        W47014  17.397  16.016   3.707  0.0297  0.0480  0.2325
30831W        W47015   6.675   6.069   3.875 -0.0817 -0.1004  0.0494
30832W        W47016  14.895   9.772   2.953 -0.3914  0.1758 -0.4317
30833W        W47017   0.947   2.754   4.299 -0.0961  0.1749  0.3418
30834W        W47018   5.623   8.729  13.989  0.2519 -0.0810  0.1201
30835W        W47019  12.623   2.713  13.695  0.1211 -0.0444 -0.0059
30836W        W47020   1.200  12.765   2.474  0.2964 -0.3002 -0.2391
30837W        W47021   5.971   9.650  14.721  0.1187  0.5285 -0.2069
30838W        W47022  15.513  17.706  15.583 -0.1430  0.0323  0.1987
30839W        W47023  12.359   2.253   5.999 -0.0856 -0.2323 -0.2185
30840W        W47024   4.035   2.617  16.246 -0.0341 -0.0023  0.4662
30841W        W47025   7.338   4.677  13.961  0.2673  0.0371 -0.2564
30842W        W47026  10.283  11.911  12.913  0.1053 -0.0283  0.0875
30843W        W47027   7.200   7.217   0.157 -0.2160  0.0579 -0.0874
30844W        W47028   7.497   7.383   3.270 -0.1904  0.0136  0.1661
30845W        W47029   1.038  10.744  13.394 -0.0072 -0.0704 -0.2028
30846W        W47030   0.847   4.281   6.304 -0.0190 -0.0687 -0.1052
30847W        W47031   0.060   0.810  16.672 -0.0787 -0.2993 -0.0616
30848W        W47032  14.389  13.573   0.251 -0.0291 -0.0439  0.1443
30849W        W47033  14.860   9.677   0.610  0.2145  0.0755 -0.1975
30850W        W47034  15.288   2.202   2.894 -0.4285 -0.3201  0.2478
30851W        W47035   6.438  12.892   4.128 -0.0405 -0.1072  0.1518
30852W        W47036  16.933   2.397   0.910 -0.1340  0.0589  0.1323
30853W        W47037   7.670   0.233   0.821  0.1860  0.2895  0.0703
30854W        W47038   3.566   8.805  14.523  0.1420 -0.0924  0.0205
30855W        W47039  15.953   9.581   0.351 -0.0469  0.1674 -0.0499
30856W        W47040   6.911   4.949  16.242 -0.2024  0.1537 -0.3249
30857W        W47041   8.315  13.978  15.012 -0.0954  0.2594  0.1589
30858W        W47042  16.230   8.288  13.353 -0.1171 -0.0853 -0.0704
30859W        W47043  11.547   8.889   1.101  0.1746  0.0333 -0.0061
30860W        W47044   2.014   8.307  15.820 -0.2235 -0.0047  0.0875
30861W        W47045   5.848   1.689   3.970  0.0247 -0.2777 -0.0930
30862W        W47046   7.611   4.705   0.146  0.0771 -0.0376  0.2685
30863W        W47047  17.618  17.097  13.922  0.0714  0.1352  0.0996
30864W        W47048   6.071   9.301  13.301 -0.2197 -0.1699 -0.1205
30865W        W47049   9.440  14.708   5.232  0.0562  0.0647 -0.1964
30866W        W47050  12.184   6.248   0.246  0.1322  0.0907  0.1001
30867W        W47051   1.124   8.347  14.552  0.0925  0.2786  0.1373
30868W        W47052   5.762   5.817   3.737  0.2217  0.1063 -0.2337
30869W        W47053  13.853   9.348   2.421  0.2736  0.1403  0.1273
30870W        W47054   7.383   6.359  14.996  0.0814  0.0665  0.0727
30871W        W47055   4.715   6.833   4.941 -0.0382 -0.0927 -0.1864
30872W        W47056   5.387   3.730   1.546 -0.0141 -0.1844  0.0767
30873W        W47057   5.541  15.272  14.399 -0.0793  0.0088 -0.1345
30874W        W47058  12.935  11.928   1.310 -0.0377  0.0580  0.3546
30875W        W47059   4.311  12.130  14.885  0.0765 -0.0690 -0.0907
30876W        W47060  17.481  13.291   1.613  0.2923 -0.4175 -0.1998
30877W        W47061  11.854   1.688  12.808  0.2694  0.0400 -0.3817
30878W        W47062   1.475   2.048   2.132  0.1092  0.4318 -0.0032
30879W        W47063  15.402   4.167  16.468 -0.0948 -0.1890 -0.2629
30880W        W47064   0.885  15.783  15.932  0.2937  0.1224 -0.3355
30881W        W47065   7.209  10.761  15.481  0.1110 -0.0217 -0.1982
30882W        W47066  15.045   7.602  15.952 -0.3914  0.0913 -0.0535
30883W        W47067   9.429   1.558   1.924  0.3115  0.0468  0.0225
30884W        W47068  17.022   8.201   4.038  0.0744  0.0576 -0.3338
30885W        W47069  10.198   3.680  11.956 -0.0167  0.2651  0.1873
30886W        W47070  16.374  10.143  11.411 -0.1039  0.1177 -0.0081
30887W        W47071   1.761  14.659  12.669  0.3667 -0.0771  0.1105
30888W        W47072  14.378  17.065   1.908 -0.1218 -0.1086  0.2499
30889W        W47073   7.977  13.276  15.892 -0.0775  0.2946  0.2226
30890W        W47074  12.874   8.661  12.255  0.0991  0.1835  0.0723
30891W        W47075  11.666   2.990  14.736  0.0158  0.1807 -0.0226
30892W        W47076   9.274   3.183  14.585  0.0316  0.0458 -0.0822
30893W        W47077  14.706  12.007  16.294 -0.0893 -0.0103  0.0767
30894W        W47078   7.882   2.105  12.102 -0.0107  0.0589 -0.0647
30895W        W47079  11.017   0.052   1.073  0.3181 -0.0556  0.3201
30896W        W47080  14.145   6.432  12.258 -0.1353 -0.0626  0.0974
30897W        W47081   0.163   2.169  11.368  0.0708 -0.0716  0.0730
30898W        W47082  11.126   9.462   4.226  0.0042 -0.1540  0.1446
30899W        W47083   1.458   7.671  14.017  0.3285 -0.0945  0.0177
30900W        W47084  13.282   2.142   1.994  0.0761 -0.1263 -0.1131
30901W        W47085  17.621  16.117   4.125  0.0935 -0.2138 -0.1456
30902W        W47086   3.724   5.280  12.895  0.0345  0.0870 -0.0903
30903W        W47087   4.928  15.251  16.285  0.2385  0.2370 -0.1501
30904W        W47088   6.814   4.884   0.120  0.2657  0.1956 -0.0960
30905W        W47089   1.462  13.259  16.212  0.0061  0.0718  0.3037
30906W        W47090   5.875   5.229  13.799  0.1496 -0.1649 -0.0881
30907W        W47091   7.411   7.427   3.971 -0.0490 -0.1518  0.2912
30908W        W47092   6.494   5.418   1.391  0.1337 -0.0709  0.0004
30909W        W47093   1.167   8.773  11.151  0.2795 -0.0665 -0.0683
30910W        W47094   5.629  16.340  15.919 -0.1309  0.2805 -0.1311
30911W        W47095   5.065   1.609   0.569 -0.0027  0.0274  0.3046
30912W        W47096   3.240  16.983  13.939 -0.0248 -0.4956  0.3214
30913W        W47097  15.230  17.907   3.928  0.0154  0.1086 -0.2710
30914W        W47098   8.109   2.338   2.947  0.1576  0.2760 -0.1481
30915W        W47099  17.141  12.498  15.305  0.1320  0.0422 -0.0622
30916W        W47100  16.065   0.649  16.330 -0.0391  0.0868  0.0571
30917W        W47101   7.327   7.614  12.517  0.0451 -0.0485 -0.0649
30918W        W47102  10.310   4.993   2.298  0.0018 -0.0142 -0.0331
30919W        W47103  13.914  14.088  12.304 -0.1037  0.0368 -0.0041
30920W        W47104  15.781   8.952   0.951  0.3217 -0.6599  0.2618
30921W        W47105   3.280  15.573   0.124 -0.4038 -0.0632 -0.1214
30922W        W47106  16.106  15.917   2.897  0.0058 -0.1249  0.2029
30923W        W47107   2.818   6.109  15.024  0.0797  0.4574 -0.1452
30924W        W47108  10.171   0.524  14.928  0.0863 -0.2105 -0.0808
30925W        W47109   8.674   1.224   0.291 -0.0122  0.0952 -0.4195
30926W        W47110  12.575   9.203   0.957 -0.0118 -0.0773  0.0058
30927W        W47111   3.006  13.712  15.410 -0.2317 -0.0007 -0.1388
30928W        W47112   6.754   3.146   2.783  0.3043  0.0016  0.1946
30929W        W47113  15.935  14.668   1.871 -0.0148  0.3035  0.2909
30930W        W47114  17.335  11.122   3.351  0.3311  0.0136 -0.1222
30931W        W47115   6.209   2.411  11.352 -0.1925 -0.2296  0.1095
30932W        W47116  15.847  17.667  14.678  0.0137  0.1712  0.0179
30933W        W47117   1.091   0.479  14.943 -0.1750 -0.0588  0.2567
30934W        W47118  17.186   0.975  13.584  0.1088 -0.1881  0.0921
30935W        W47119  10.425  11.672   1.954 -0.0142 -0.0386  0.0862
30936W        W47120   2.791   3.955   4.593  0.0548 -0.2844 -0.0221
30937W        W47121  11.804   6.498  14.498  0.1129  0.1404 -0.0871
30938W        W47122   9.600   8.787  13.659  0.4457  0.0221  0.0162
30939W        W47123  10.638  13.361   5.783 -0.2235  0.0425 -0.2165
30940W        W47124  17.416  12.951  15.534  0.0792  0.1432 -0.0362
30941W        W47125  16.745  12.229  15.133  0.2787  0.2308 -0.1915
30942W        W47126  11.992  16.282  13.225 -0.0930 -0.0266  0.4882
30943W        W47127   8.690   4.283  12.997  0.0214 -0.0015  0.2740
30944W        W47128  16.369  16.724  14.339  0.1177  0.0943  0.1784
30945W        W47129  14.534  15.393  12.541  0.3056  0.4899  0.0250
30946W        W47130   9.771  10.059  12.561  0.0094  0.2232 -0.0132
30947W        W47131   0.912   5.765  12.174  0.0239  0.5490 -0.0321
30948W        W47132  17.541  10.595  12.127 -0.0285 -0.1568  0.0371
30949W        W47133   6.868  16.917  15.417 -0.0734 -0.1918 -0.1437
30950W        W47134   0.204  10.224  14.630  0.1615  0.4396 -0.1728
30951W        W47135   2.909  12.561  14.795 -0.2663  0.0542  0.4203
30952W        W47136  15.605   5.955  12.087 -0.1764  0.0854 -0.1579
30953W        W47137  13.190   4.449  13.263  0.0418  0.1737  0.1569
30954W        W47138  17.289  11.549   5.719 -0.0101  0.1780  0.0606
30955W        W47139  10.240  11.351   2.347  0.0480  0.0807 -0.3082
30956W        W47140  15.018   4.484  13.079 -0.0672 -0.1348 -0.2271
30957W        W47141   2.866   8.374   4.098 -0.0367 -0.1643  0.2993
30958W        W47142  15.405   7.022  15.217  0.1353 -0.1785  0.1407
30959W        W47143   2.672   9.740   4.839 -0.1708  0.0106  0.0804
30960W        W47144   1.750  11.960  16.598 -0.1363 -0.3660 -0.0617
30961W        W47145   3.208  17.109  16.348  0.2797 -0.1291  0.1858
30962W        W47146  14.666   1.167  12.940 -0.0881  0.0431  0.0969
30963W        W47147  11.592  16.947  12.780 -0.3504  0.1861 -0.0166
30964W        W47148   5.404  15.508   2.083  0.3541 -0.1161  0.1082
30965W        W47149   1.165   5.101   2.019 -0.0798  0.0065  0.0835
30966W        W47150  12.414   5.785   2.074 -0.3918  0.1820 -0.6738
30967W        W47151  13.062   2.254   3.077 -0.2972 -0.0303  0.0259
30968W        W47152  17.039   3.445   1.422 -0.0138 -0.2597 -0.4049
30969W        W47153  16.393   6.283   0.975 -0.0911  0.1153  0.0456
30970W        W47154   7.009  15.048  11.464 -0.0308  0.1236 -0.1135
30971W        W47155   1.296  12.929  14.424  0.1493 -0.1502  0.0096
30972W        W47156   9.937   8.616   6.034  0.2336  0.2224 -0.3510
30973W        W47157   1.468   7.267   3.799  0.0126 -0.0079 -0.1087
30974W        W47158   5.448   2.940   2.268  0.3494 -0.1264  0.1621
30975W        W47159  13.542  17.539  13.637 -0.0039 -0.2479 -0.0574
30976W        W47160   6.243   0.605  13.422 -0.0711 -0.3207  0.0364
30977W        W47161   8.566   2.008   1.076  0.0086  0.2062  0.2803
30978W        W47162   1.942   7.282  11.925 -0.2411  0.1663 -0.0626
30979W        W47163  11.932  14.160  12.374  0.1418  0.1613  0.0290
30980W        W47164   4.306  12.436   3.958  0.0242  0.1152 -0.0347
30981W        W47165   2.762   0.027  11.631  0.0476  0.1086 -0.1353
30982W        W47166  10.360  10.952  11.864  0.0406 -0.1405 -0.0782
30983W        W47167   3.677  11.886   1.698  0.0867  0.0281 -0.0623
30984W        W47168  11.310   1.058  12.367  0.0468 -0.4385  0.1320
30985W        W47169   8.810   6.927  12.186 -0.0625 -0.1102  0.1153
30986W        W47170   7.048   0.173   6.118 -0.1167 -0.1469 -0.3742
30987W        W47171  10.622   7.188  10.592 -0.2639 -0.0847 -0.0365
30988W        W47172   9.754  10.002   5.132 -0.1653  0.3250 -0.1251
30989W        W47173  13.623  11.428   0.242 -0.0379  0.0551  0.0157
30990W        W47174   7.269   1.501  14.973 -0.1051  0.3071  0.0276
30991W        W47175  12.688  10.536   0.305 -0.3093  0.1507  0.0003
30992W        W47176  12.318   1.060   1.130 -0.2149 -0.0205  0.0473
30993W        W47177   6.867   0.259  15.129  0.1815 -0.1546  0.2815
30994W        W47178   0.727  16.007   0.224 -0.1438 -0.0718  0.1550
30995W        W47179  14.037  15.040   6.317 -0.0914  0.3941  0.3232
30996W        W47180   6.664  12.741  12.990  0.0772 -0.0155  0.1844
30997W        W47181  12.787   6.398   4.999  0.1114  0.2375  0.4842
30998W        W47182   1.947   0.950   1.010  0.0410 -0.1108 -0.2260
30999W        W47183   1.967  14.716  10.771 -0.3358  0.0201 -0.1667
31000W        W47184   2.102   1.031   4.436 -0.1191 -0.4287  0.1232
31001W        W47185  14.634  18.003   2.479 -0.0842 -0.1891  0.1110
31002W        W47186  16.188  11.977  13.220  0.2987 -0.0590  0.0829
31003W        W47187   0.539  10.141  13.373 -0.1798  0.0558 -0.0601
31004W        W47188  13.051   9.105  13.614 -0.0089  0.1839  0.1391
31005W        W47189   1.654  15.511  12.549 -0.0320 -0.3603 -0.1154
31006W        W47190   2.158   0.647   2.112  0.0271  0.3015  0.0992
31007W        W47191   3.605  17.717  13.609  0.1052 -0.1661  0.3350
31008W        W47192  12.863  16.017   4.703  0.3082 -0.0210  0.2504
31009W        W47193  13.242   3.488  12.579 -0.2767  0.0377  0.0693
31010W        W47194   8.311  11.534   1.497  0.5335 -0.1753  0.1815
31011W        W47195   5.787  15.262  16.066 -0.1802 -0.1065  0.1026
31012W        W47196   8.511   5.040   3.235 -0.2315 -0.2522  0.0904
31013W        W47197   6.696   3.098   3.243 -0.0252 -0.0863  0.0782
31014W        W47198   4.393   4.786  11.875 -0.1075 -0.3764 -0.0581
31015W        W47199  10.910   9.803   3.068 -0.0419 -0.0385  0.1407
31016W        W47200  13.053  15.478   1.048  0.1889 -0.1825 -0.0847
31017W        W47201   1.530   4.818  12.701 -0.2560  0.1223  0.1292
31018W        W47202   0.316  13.298  12.202  0.0135  0.3293 -0.0607
31019W        W47203   4.486  10.526  12.914  0.2542 -0.1340 -0.1629
31020W        W47204  10.459   5.114  12.308 -0.0761  0.1587 -0.1766
31021W        W47205   8.783  10.684  12.742 -0.4919  0.2345 -0.1653
31022W        W47206  17.451   2.783   5.212 -0.1243  0.0680 -0.3461
31023W        W47207  14.955  14.812   1.959 -0.0469 -0.1694  0.1883
31024W        W47208  13.016   2.998  12.848  0.0506 -0.1940  0.0323
31025W        W47209   8.009   3.362   4.761  0.4570 -0.0560 -0.0582
31026W        W47210  15.621   1.606   0.455 -0.0126 -0.0855  0.0852
31027W        W47211  11.605  15.444  12.538 -0.0524 -0.1104  0.0682
31028W        W47212   7.321   3.814   1.059 -0.0182  0.1954 -0.1353
31029W        W47213   2.267   3.903   4.417 -0.0916  0.1174  0.3707
31030W        W47214  17.637   5.235   2.574  0.2335  0.0048  0.0333
31031W        W47215  11.035   2.186   2.000 -0.1472  0.1094 -0.0543
31032W        W47216  14.890   8.215  13.381 -0.0677  0.1351  0.0109
31033W        W47217   7.395  10.776  16.210 -0.1260 -0.0636 -0.0453
31034W        W47218   5.410  17.046   0.874  0.2055  0.0616  0.0500
31035W        W47219   9.624  17.075   4.904  0.0443 -0.3407  0.5239
31036W        W47220  11.258  10.869  12.181 -0.0875  0.0214  0.0909
31037W        W47221  11.380   6.052   0.656 -0.1418 -0.2360  0.0275
31038W        W47222   8.571   3.423  15.382 -0.0253  0.1576  0.0868
31039W        W47223  16.127   3.585  14.342  0.2536 -0.0245  0.0895
31040W        W47224   6.638  13.504   3.684 -0.1119  0.1401 -0.0399
31041W        W47225   7.857  12.779  13.682  0.0277  0.2698  0.2829
31042W        W47226  11.996  17.422  11.699  0.0603 -0.0598  0.1526
31043W        W47227  11.714  15.436  15.784 -0.1018  0.0844 -0.4063
31044W        W47228  17.447   4.325  11.549 -0.0069  0.0526  0.0288
31045W        W47229   8.122  11.683   2.496  0.1455 -0.3684  0.1763
31046W        W47230   4.749   4.526   3.909  0.0119  0.2621 -0.0382
31047W        W47231   4.743   3.647  16.262  0.3212  0.2149 -0.0279
31048W        W47232   6.624   9.077   6.070 -0.2869  0.1352 -0.1942
31049W        W47233   8.756  14.359   1.274 -0.2465  0.2856 -0.3149
31050W        W47234  17.919   6.084  16.554  0.1221 -0.2518 -0.0571
31051W        W47235  14.127  11.838   3.004  0.0809 -0.2972  0.0447
31052W        W47236   8.107  15.962   4.514 -0.0588  0.0050 -0.0362
31053W        W47237  10.071   9.890  14.743 -0.0758  0.0651 -0.0104
31054W        W47238  10.683   6.263  11.791 -0.4239 -0.0686 -0.2485
31055W        W47239   6.684   8.245   3.506  0.0454 -0.1291  0.1882
31056W        W47240  11.455   0.042   4.032  0.0209  0.0513 -0.1861
31057W        W47241   6.305   6.988   1.756  0.3002 -0.0873  0.0482
31058W        W47242   7.463   8.692  16.418  0.0624  0.1838 -0.0852
31059W        W47243  10.813   6.231  14.810  0.1426  0.1230 -0.1391
31060W        W47244   3.499  14.518   5.795 -0.0415  0.0298  0.2805
31061W        W47245  17.616   3.781   5.127 -0.0040 -0.1727 -0.1151
31062W        W47246   3.262   4.861   2.328  0.1148  0.0487 -0.0012
31063W        W47247   7.011  11.655   5.335 -0.1314 -0.0812  0.0970
31064W        W47248   2.680  16.183  14.291  0.1186  0.1588  0.1143
31065W        W47249   3.331   7.076  12.407  0.1876  0.0041  0.1757
31066W        W47250   0.200  11.022  11.316 -0.1077 -0.0757  0.1122
31067W        W47251   8.154   2.935   1.793  0.2336  0.2412  0.4153
31068W        W47252  12.594  11.797  13.607  0.2841  0.1796  0.3265
31069W        W47253   2.057   8.145   3.855 -0.1621 -0.1085 -0.0064
31070W        W47254  17.855   2.134  16.470  0.3146  0.0271 -0.0896
31071W        W47255   2.179   2.487   3.550 -0.1260 -0.1225 -0.2323
31072W        W47256   2.054  15.052  11.943  0.0470 -0.1845  0.0606
31073W        W47257  11.185   3.777  14.526  0.2411 -0.0483 -0.2358
31074W        W47258  12.931  11.569  13.203  0.1428  0.0694  0.0209
31075W        W47259   1.009  12.328   4.460  0.0210  0.0481  0.0539
31076W        W47260  13.545  14.780   0.391  0.0301 -0.0153  0.2554
31077W        W47261   7.203   5.725   1.967  0.0427  0.1331 -0.1713
31078W        W47262   9.883   6.815   1.214  0.0126  0.0763  0.0694
31079W        W47263  15.559   4.508  12.360  0.0244  0.0095 -0.0195
31080W        W47264  14.685   3.991   3.962 -0.0869 -0.0834  0.1611
31081W        W47265  16.047  17.413   1.329 -0.2067 -0.2205 -0.0473
31082W        W47266   6.550   7.425   4.895 -0.0073 -0.1648 -0.0397
31083W        W47267  14.392  10.432   0.351 -0.1265 -0.0255  0.1788
31084W        W47268  13.735   1.082   4.540  0.0466  0.0096 -0.0271
31085W        W47269  15.861   5.231  12.918 -0.1417 -0.2409  0.0990
31086W        W47270  12.641  16.013  15.925 -0.1904  0.3998 -0.2032
31087W        W47271   5.037  13.506  16.127  0.2547  0.0559 -0.0458
31088W        W47272   3.895  14.664   1.038 -0.1129  0.0363  0.1823
31089W        W47273   9.177   1.562  12.028 -0.0881  0.2195  0.0472
31090W        W47274   2.225  15.147  13.717 -0.1796  0.1376 -0.0802
31091W        W47275   9.117   5.472  14.897  0.2265 -0.2174 -0.0618
31092W        W47276   1.043  16.788   3.265  0.2169 -0.1855  0.1975
31093W        W47277  16.601  13.087   1.259 -0.4535 -0.3889  0.2654
31094W        W47278   9.576   4.671  14.757  0.3979 -0.0009 -0.1585
31095W        W47279   5.852   3.154  14.477  0.1926 -0.0579  0.0504
31096W        W47280   4.431  13.904  12.537  0.1794 -0.1754  0.1572
31097W        W47281  14.212  16.803   1.508  0.0469 -0.0260 -0.1449
31098W        W47282   8.222  10.242  12.447  0.1239  0.1152  0.1123
31099W        W47283   5.743   4.458   0.583  0.2111 -0.3265 -0.1603
31100W        W47284   0.296  16.007  16.638 -0.0640  0.1316  0.1358
31101W        W47285  14.980  10.034   3.971  0.1672  0.0928 -0.1742
31102W        W47286  10.564   8.915   4.625 -0.2112  0.0822  0.4188
31103W        W47287   4.730   5.356  15.815  0.0726 -0.0534 -0.2302
31104W        W47288   2.000  17.166   6.040  0.3058  0.3972 -0.2107
31105W        W47289   8.169  10.226  16.092  0.0503 -0.0062 -0.2941
31106W        W47290   4.425   8.975  10.915  0.1404 -0.0624 -0.0783
31107W        W47291   0.649   6.197  15.940  0.0160  0.0502  0.0754
31108W        W47292  17.511  13.053   5.592  0.0126  0.2290 -0.0458
31109W        W47293   7.681   8.558  11.868  0.1355  0.0181 -0.3028
31110W        W47294   3.947  10.908   1.725  0.1771  0.1263 -0.0372
31111W        W47295   4.139   9.697   4.670  0.2297  0.2095 -0.0460
31112W        W47296   2.570  17.634  13.429  0.3508  0.1804  0.3362
31113W        W47297  17.177   2.073   1.768  0.0428 -0.1820  0.2046
31114W        W47298   3.784   8.977  13.569 -0.0894  0.0857 -0.0146
31115W        W47299   7.690   1.908   2.819 -0.0070  0.2738  0.4079
31116W        W47300  18.000   4.672  11.912 -0.1397  0.1227 -0.0382
31117W        W47301  17.172   8.458  16.636  0.0287 -0.3158  0.2867
31118W        W47302  10.039   0.260   4.454 -0.0712  0.0128 -0.0649
31119W        W47303   6.935   8.554  15.804 -0.0439 -0.1730 -0.0124
31120W        W47304   3.530   2.197   1.408 -0.0556  0.1219  0.3394
31121W        W47305  15.031   0.438  10.899 -0.2346  0.1138 -0.3008
31122W        W47306  16.705  13.331  13.111 -0.0069 -0.2599 -0.3058
31123W        W47307  16.584   6.270  13.280  0.1029  0.4424 -0.1358
31124W        W47308   7.370  17.363  11.832 -0.2609 -0.1390  0.0392
31125W        W47309   4.053   7.288  14.213 -0.0285  0.0411 -0.1324
31126W        W47310  10.236  10.460   2.646 -0.1687  0.4819 -0.1126
31127W        W47311   4.762  11.064   0.069  0.1620  0.0413 -0.5029
31128W        W47312   8.849  11.472   4.048 -0.1184  0.0327 -0.2155
31129W        W47313   7.119   9.268   4.259  0.4494  0.1335  0.0740
31130W        W47314  14.524   2.421  16.325 -0.0782  0.1285  0.2148
31131W        W47315  16.109   6.289  15.957 -0.1734 -0.1101  0.3807
31132W        W47316   5.349  17.346  12.308 -0.2251  0.0291 -0.3878
31133W        W47317  11.465   6.649  15.327 -0.0307 -0.1362  0.0848
31134W        W47318  10.652   4.819   2.742 -0.0459 -0.0475 -0.2031
31135W        W47319   7.418  14.699  15.688  0.0795 -0.3226 -0.1634
31136W        W47320  11.500  13.453   3.216  0.1642  0.0141  0.0073
31137W        W47321   6.555   0.403   3.858  0.0476  0.2523 -0.0714
31138W        W47322  13.269   2.222  15.650 -0.1213  0.0451 -0.0166
31139W        W47323  14.585   0.413   2.873 -0.1999 -0.1952  0.0734
31140W        W47324  11.732   3.751   2.215 -0.2451 -0.0896  0.0535
31141W        W47325  15.876   2.099   2.017  0.2058 -0.2039 -0.0434
31142W        W47326  11.007  15.178   5.825 -0.0965 -0.1317  0.0398
31143W        W47327  12.838  15.951  15.426 -0.1976  0.1700 -0.0792
31144W        W47328  15.548  15.681   4.743  0.0628  0.3640 -0.0257
31145W        W47329   2.817  13.353   5.662  0.1114  0.0194 -0.2550
31146W        W47330   6.604   2.991   0.098  0.0115  0.0573  0.1862
31147W        W47331  14.628  15.880   5.788 -0.0278  0.0922  0.0759
31148W        W47332   8.736  14.936   4.159  0.0105 -0.1546  0.1690
31149W        W47333  17.251  16.770   1.204 -0.1177  0.0534 -0.0959
31150W        W47334   7.295   9.560   1.069  0.0688 -0.1138 -0.1941
31151W        W47335   0.131  16.675  12.619 -0.2437 -0.4849 -0.0038
31152W        W47336  13.699  13.056   3.286 -0.4337  0.0572 -0.0774
31153W        W47337   8.565  11.575  15.680 -0.0795 -0.0786 -0.2496
31154W        W47338  11.221   6.991   5.262 -0.2200 -0.1068 -0.1932
31155W        W47339   2.781   2.047  12.000 -0.2262  0.1706  0.0187
31156W        W47340   4.627  17.177   1.967  0.0568  0.1243 -0.2039
31157W        W47341  11.329  16.830  14.470  0.0856 -0.2289 -0.1425
31158W        W47342  16.641   7.772  14.958  0.3056 -0.0190  0.0263
31159W        W47343  13.766  16.985  12.798  0.2767  0.4724  0.2095
31160W        W47344  16.504   6.262  13.789 -0.0966  0.0277  0.0561
31161W        W47345   0.956  12.855  11.760 -0.3224  0.2709 -0.1348
31162W        W47346   0.894   2.283  13.546 -0.0778  0.0414  0.0588
31163W        W47347  11.518   4.205  12.210 -0.3502  0.0347  0.0817
31164W        W47348  10.298   3.840   4.227  0.2095  0.2051  0.2508
31165W        W47349  15.026  16.412   4.272 -0.0963  0.3269 -0.0060
31166W        W47350  17.108   0.244   1.611  0.3447  0.0500  0.1589
31167W        W47351   6.676  13.397  15.085  0.1218 -0.1692 -0.1860
31168W        W47352  13.598  15.734  14.328  0.0667 -0.0007 -0.1846
31169W        W47353  14.974   2.025   3.579  0.0901 -0.0153  0.1050
31170W        W47354   1.667   4.577  13.217  0.2827 -0.0101 -0.1664
31171W        W47355  16.125   8.375   1.077 -0.2092 -0.2461  0.2297
31172W        W47356  10.673  15.545  15.460 -0.2932 -0.0157 -0.0818
31173W        W47357   7.954   8.186   2.325 -0.2338  0.0461  0.1061
31174W        W47358   8.082  16.917   0.818  0.1068 -0.0438 -0.4061
31175W        W47359   3.731  13.197   2.577 -0.0637 -0.1057  0.1573
31176W        W47360   1.558   6.343  13.708  0.1242  0.2569  0.0652
31177W        W47361  17.239  13.564   0.348  0.2332  0.1686  0.0691
31178W        W47362  13.721  12.491  12.663 -0.1917  0.1909 -0.0246
31179W        W47363   0.611  14.291  11.689  0.0965  0.3983 -0.0955
31180W        W47364   9.916   2.554  14.306 -0.2641  0.0221 -0.0911
31181W        W47365   9.960  11.714   2.499 -0.2442 -0.1131 -0.1561
31182W        W47366  11.745   9.661   5.715  0.2274 -0.3025  0.0025
31183W        W47367   5.461  12.150  12.183  0.2869 -0.2355 -0.0396
31184W        W47368   3.393  15.529  16.293 -0.1817 -0.1649 -0.0258
31185W        W47369  10.471   6.908   3.019  0.2179  0.0322 -0.0298
31186W        W47370   4.521  11.845   1.172 -0.0268  0.1329 -0.1219
31187W        W47371  17.204   6.952  13.937 -0.3600  0.1833 -0.0318
31188W        W47372  17.588  11.340   6.316  0.2122  0.0965 -0.1018
31189W        W47373   3.052  10.540   3.316  0.0359  0.3691  0.2944
31190W        W47374  10.976   0.652  13.323  0.1008  0.0122 -0.0466
31191W        W47375  10.726   9.228   5.662  0.2628 -0.1387 -0.1149
31192W        W47376  16.072  10.090  13.798 -0.5915 -0.0843 -0.0850
31193W        W47377   5.209  11.448   3.890  0.3068 -0.2649  0.0910
31194W        W47378   0.319   8.558   0.286 -0.2477 -0.3630  0.1221
31195W        W47379   1.716  13.657  16.053 -0.2919 -0.2998 -0.1152
31196W        W47380  10.162   3.542  14.960 -0.0342 -0.2979  0.3263
31197W        W47381  11.355  12.450  12.204 -0.2175  0.0206  0.1921
31198W        W47382   1.068  14.760  12.967  0.0771  0.1052  0.0895
31199W        W47383   9.584  10.147   4.226  0.0265 -0.0874  0.1284
31200W        W47384   7.852   7.451   6.124 -0.2391 -0.2247  0.2637
31201W        W47385  17.389  12.034   5.692 -0.0350  0.2074  0.2120
31202W        W47386  12.714   5.112  14.702  0.0263  0.1626 -0.1934
31203W        W47387  17.841  11.850   3.143  0.1646  0.1644 -0.0891
31204W        W47388  12.243  16.279  16.000  0.1970 -0.1103  0.0114
31205W        W47389  11.963   7.333   4.094  0.0713  0.1977 -0.1603
31206W        W47390   8.068   1.400   3.996 -0.1726  0.3293  0.1627
31207W        W47391   9.951  10.114   3.540  0.1181  0.1791 -0.1145
31208W        W47392  15.024   6.611   2.187 -0.1945  0.1041 -0.0374
31209W        W47393   1.038   6.514  15.949 -0.1679 -0.3681 -0.1930
31210W        W47394   1.456  12.411  15.702 -0.0078  0.0193  0.2376
31211W        W47395   6.243  10.093  12.362 -0.2702  0.0641  0.0128
31212W        W47396  13.940   0.056  12.297  0.0208  0.3679 -0.2013
31213W        W47397   1.261  16.916   4.743  0.1787 -0.1284 -0.2152
31214W        W47398  17.841   2.696   1.606  0.0530  0.1570  0.1212
31215W        W47399  10.654  13.033  14.485 -0.2682  0.1715 -0.2671
31216W        W47400  15.150  15.567  12.044 -0.0060  0.1811 -0.0991
31217W        W47401  13.101  10.229  11.742 -0.1622  0.0871  0.1342
31218W        W47402   2.126   9.403   4.575  0.0740 -0.0326  0.0498
31219W        W47403  14.197   5.202   3.608 -0.0593 -0.0831 -0.0230
31220W        W47404  10.599   0.305  14.174 -0.2515 -0.1115  0.1163
31221W        W47405   8.810   3.563  14.594  0.3308  0.2774 -0.1051
31222W        W47406  13.127  15.091  15.305  0.0509  0.0951  0.0746
31223W        W47407  13.600  17.378  16.426 -0.2382 -0.0762 -0.2325
31224W        W47408  13.221  16.561   4.905 -0.1001 -0.2568 -0.0396
31225W        W47409  16.124  11.791   4.359  0.2592 -0.1898  0.1556
31226W        W47410  17.422  11.440   4.799  0.1119  0.0012  0.0314
31227W        W47411   2.897   9.667   0.678 -0.3237  0.0202  0.3065
31228W        W47412  11.838   0.753  13.230 -0.1374 -0.0478  0.1674
31229W        W47413   2.746   5.238  11.819  0.0072  0.2761  0.2905
31230W        W47414  16.318  11.059  13.129 -0.0640 -0.0235  0.2297
31231W        W47415   2.292  15.457   3.569 -0.2179 -0.4111 -0.1527
31232W        W47416   5.995  12.736  13.506 -0.3403 -0.2376 -0.0626
31233W        W47417  11.539  10.490  12.977 -0.2221 -0.0507 -0.0594
31234W        W47418   3.406   1.326  11.520  0.0858  0.4680  0.1745
31235W        W47419   1.186   1.206   3.050  0.1241 -0.0383  0.1564
31236W        W47420  13.113   1.140  14.062 -0.2083  0.2201  0.0425
31237W        W47421   2.190  14.868  14.134 -0.2867 -0.0496  0.1148
31238W        W47422  16.759   6.670  15.909 -0.0187 -0.0124 -0.1972
31239W        W47423   1.796  17.546  14.924 -0.1116  0.1019 -0.1435
31240W        W47424   7.157   8.029   4.754 -0.2308 -0.2078 -0.0659
31241W        W47425  15.625  12.913   1.257  0.0857 -0.0058  0.0133
31242W        W47426  16.782   3.465   3.661  0.0464  0.0193 -0.2068
31243W        W47427   4.215  17.799  12.048  0.0203 -0.1262 -0.1050
31244W        W47428   8.704  11.533  12.828 -0.2111  0.1287 -0.3174
31245W        W47429   2.410  10.751  14.703 -0.1573  0.0187  0.0853
31246W        W47430  13.412  17.804   0.182 -0.0382  0.1372 -0.0989
31247W        W47431   7.863   5.079   5.035  0.4990  0.1651 -0.2566
31248W        W47432   0.358   8.888   1.907  0.3263 -0.0484  0.3679
31249W        W47433  12.510   5.393   0.061  0.1652 -0.0792 -0.0164
31250W        W47434   2.282   4.377   2.599  0.0692 -0.0277 -0.1595
31251W        W47435   7.050  11.262   3.117 -0.1667  0.2185 -0.2435
31252W        W47436  13.055  16.017  11.470  0.0346 -0.3807  0.0551
31253W        W47437   3.494   6.347   2.919  0.2139  0.1819  0.0047
31254W        W47438  12.467   7.511  12.538 -0.2252  0.1124  0.1698
31255W        W47439   5.710  10.167   5.784 -0.0043  0.0804 -0.1361
31256W        W47440   4.644   6.566   2.439  0.1489  0.1093  0.0696
31257W        W47441   7.193   7.103  12.576 -0.1805  0.2516  0.1850
31258W        W47442   4.647  17.841  11.149 -0.0221  0.2788  0.3687
31259W        W47443   5.727   0.280  13.099  0.1873  0.0318  0.4817
31260W        W47444   4.269  10.642  11.528 -0.0935  0.0284  0.0765
31261W        W47445  15.798   8.108  15.687 -0.3092 -0.0528 -0.5372
31262W        W47446  17.361  13.654  13.724  0.2238  0.1019  0.0301
31263W        W47447  16.704  16.479  16.537 -0.2311  0.1206  0.0407
31264W        W47448  13.699  16.450   2.947  0.3129  0.3688  0.0083
31265W        W47449   8.021   0.866  11.530  0.0217 -0.1641 -0.1095
31266W        W47450   1.274   1.721  15.355  0.0116 -0.0705  0.2092
31267W        W47451  13.125   2.674   2.763  0.2224  0.0709 -0.1385
31268W        W47452   0.232   5.489  13.827 -0.4051 -0.1362  0.1875
31269W        W47453   5.528   5.597   4.240 -0.2184  0.1824 -0.1654
31270W        W47454  15.668   0.674  13.717 -0.3674  0.4668  0.1143
31271W        W47455  17.360   4.970   2.122  0.0318  0.0259  0.1602
31272W        W47456   9.682   3.015   2.215 -0.0620  0.0768 -0.0613
31273W        W47457   2.098   5.168  14.719 -0.0669  0.0750  0.0785
31274W        W47458   4.448  10.524  13.405  0.3344 -0.0997  0.0049
31275W        W47459   8.278  14.304  12.849  0.2982 -0.3351  0.0043
31276W        W47460  15.026  13.592  15.624  0.0708 -0.1874 -0.1963
31277W        W47461   2.340   4.808  14.405  0.0087  0.1579  0.3572
31278W        W47462  10.293   8.174   4.935  0.3220 -0.3610 -0.2815
31279W        W47463   9.619  16.969   3.644  0.0116  0.0368  0.1593
31280W        W47464  10.802  11.678  12.955  0.2952 -0.1792  0.2447
31281W        W47465  16.578  15.780   2.397  0.0812  0.2255 -0.2366
31282W        W47466   1.155  16.231  16.191  0.0592  0.0619  0.1323
31283W        W47467  10.120  15.602  12.455  0.1594 -0.2581  0.2592
31284W        W47468  16.462  10.880   0.256  0.2365 -0.1280  0.1236
31285W        W47469   6.394   4.687   5.289 -0.1811 -0.0731 -0.2586
31286W        W47470   3.761  14.363  12.942 -0.0746  0.0420  0.1053
31287W        W47471  14.955  11.749   5.081 -0.1002 -0.1399  0.1940
31288W        W47472  11.871  17.258   5.274  0.2312 -0.0757 -0.2124
31289W        W47473  10.870   3.179  12.638  0.1708 -0.0570 -0.2486
31290W        W47474   8.264   9.491  12.061 -0.0876 -0.1096 -0.2166
31291W        W47475   3.755  14.609  15.951 -0.1328 -0.2776  0.3291
31292W        W47476   7.733   8.035  13.631  0.2251  0.1985  0.0374
31293W        W47477  17.649  17.049   4.809  0.1563  0.0889  0.1732
31294W        W47478  11.459   3.207   0.461 -0.0246  0.0338  0.3428
31295W        W47479  13.171  15.017   5.168  0.0680 -0.0053  0.1389
31296W        W47480  16.911   0.105   0.490 -0.0588 -0.0345 -0.3840
31297W        W47481  11.561   7.494   1.828  0.0472  0.2635  0.1958
31298W        W47482   8.909   2.007   0.176  0.2470 -0.5502 -0.0499
31299W        W47483  16.876  15.437  11.290 -0.1420 -0.0713  0.1392
31300W        W47484   9.687  13.340   1.010  0.0374  0.0911 -0.3227
31301W        W47485   0.269  17.457  11.962  0.1268  0.1511  0.1832
31302W        W47486   5.836  11.188   1.842  0.0384  0.1344 -0.4651
31303W        W47487   8.215   3.091  13.889  0.0647 -0.1553 -0.2453
31304W        W47488  15.557   5.629   2.501  0.3302  0.0063 -0.1010
31305W        W47489  12.060   7.265   4.682 -0.0043 -0.1284  0.3455
31306W        W47490  14.120  15.208  15.030  0.0811 -0.1133  0.1950
31307W        W47491   1.946  15.118   5.078 -0.1644 -0.3025  0.0057
31308W        W47492  10.806   6.096   1.588 -0.2830 -0.2559  0.3374
31309W        W47493  17.506  10.263   0.486  0.0991  0.2574  0.0517
31310W        W47494   5.321  10.675  16.139  0.2802  0.0694 -0.1436
31311W        W47495  16.553   9.551   6.299  0.2118 -0.2341 -0.2523
31312W        W47496   7.480  15.248   0.211 -0.2335 -0.2347  0.1531
31313W        W47497  10.562  16.861   5.276  0.3502  0.1108 -0.1982
31314W        W47498  10.661   6.060   4.555  0.2430  0.1026 -0.1975
31315W        W47499   8.984   1.619  13.867  0.0158  0.1197 -0.1985
31316W        W47500  13.369  14.071   3.438  0.3278 -0.0241  0.1582
31317W        W47501  10.604   0.012   0.068  0.0118  0.1871  0.0217
31318W        W47502   7.255   0.291   4.396  0.0122 -0.1034  0.0256
31319W        W47503   0.007  13.859   2.127 -0.2379 -0.0437  0.1506
31320W        W47504   8.635   5.749   4.273  0.1165 -0.1132  0.0292
31321W        W47505   4.388  12.803   3.609 -0.0657 -0.1446 -0.1758
31322W        W47506  12.390   5.792   1.544  0.0254 -0.0582  0.0033
31323W        W47507  11.582   7.277   2.890 -0.3505 -0.1260 -0.0067
31324W        W47508  10.915   8.832  11.635  0.1532  0.1567 -0.0603
31325W        W47509  14.586   8.435  15.384  0.0046 -0.1345 -0.0808
31326W        W47510  14.098   3.504   2.991 -0.0973  0.0313  0.1983
31327W        W47511   7.981  11.475   3.306 -0.2395  0.2943 -0.1234
31328W        W47512   9.396   5.235   2.386 -0.0841  0.0481  0.1938
31329W        W47513   6.170   3.895   0.787  0.0085  0.0014  0.0935
31330W        W47514   3.562  11.498  16.184  0.0340  0.0209 -0.1942
31331W        W47515   4.369   5.975  14.398  0.0233  0.0012 -0.0684
31332W        W47516   0.824  14.802   1.724 -0.2051 -0.1568  0.0372
31333W        W47517   5.140  16.490   1.417  0.2667  0.0422 -0.1474
31334W        W47518   0.860  13.537  13.444 -0.1761  0.1297 -0.0591
31335W        W47519   7.446   6.672   1.962  0.0217  0.1964 -0.1551
31336W        W47520   5.441  10.020  11.697 -0.3459 -0.0392  0.1320
31337W        W47521   7.883  10.970   3.639  0.1868  0.0654 -0.3236
31338W        W47522   6.522   2.876  13.177  0.2939 -0.1056  0.5499
31339W        W47523   4.231  16.353   1.846  0.3005  0.0617  0.0763
31340W        W47524  16.880  12.969  11.585 -0.4132  0.0702 -0.2208
31341W        W47525  17.529  12.069  11.953 -0.1524  0.0700  0.3034
31342W        W47526  12.324  13.828   3.684  0.2499 -0.1966  0.0339
31343W        W47527   8.920   2.017  12.302  0.0385 -0.1688  0.0897
31344W        W47528  14.831  17.132  16.665  0.1314 -0.0320  0.2380
31345W        W47529  17.799   8.214  11.476  0.2571 -0.0560  0.3299
31346W        W47530  14.341  17.125  11.843 -0.1911 -0.4075 -0.4001
31347W        W47531   2.122   7.491  16.179  0.2248 -0.1200 -0.1340
31348W        W47532   6.295  14.765  14.004 -0.4485 -0.0713 -0.0683
31349W        W47533   8.864   6.478  16.445 -0.1282 -0.4357 -0.0922
31350W        W47534   3.536   0.719  15.194 -0.0167 -0.1176  0.2467
31351W        W47535  12.668   1.821   3.229  0.2097  0.0557 -0.1142
31352W        W47536  10.965  11.391   0.417 -0.1866 -0.3174 -0.1756
31353W        W47537  15.276  15.625  16.479  0.2101  0.0284 -0.0544
31354W        W47538   2.599   4.190   4.166  0.1856  0.0612 -0.1785
31355W        W47539  10.753   4.200   1.153 -0.0762 -0.1477  0.2271
31356W        W47540  12.908   1.044   4.670 -0.0521  0.2690 -0.1087
31357W        W47541   7.109  12.909  12.163 -0.2188  0.0553  0.0934
31358W        W47542  14.938  13.151   1.114 -0.3298 -0.1643 -0.1006
31359W        W47543   2.787  15.693  12.378 -0.0465 -0.3193  0.2567
31360W        W47544   7.873   5.626  12.347 -0.1734 -0.1984 -0.1949
31361W        W47545   4.045  11.734   2.799  0.0945 -0.1484 -0.0157
31362W        W47546   6.107   3.714  12.897 -0.0907  0.1921  0.1521
31363W        W47547  12.652  13.748  15.539  0.1238 -0.4631 -0.1068
31364W        W47548  10.875   6.781   1.596  0.4641  0.3113  0.3475
31365W        W47549   6.594   1.052   5.896  0.0328  0.0512 -0.3649
31366W        W47550  11.304   2.976  12.653  0.1148 -0.1384 -0.1066
31367W        W47551  12.004   4.250   1.345 -0.0388  0.1347  0.2826
31368W        W47552   1.099   7.640   6.188  0.2963 -0.0564 -0.2303
31369W        W47553   7.272  10.903   1.040  0.3160 -0.2166  0.0984
31370W        W47554   6.601  10.162  14.042  0.2794  0.2586 -0.1668
31371W        W47555   4.838  10.100   1.866  0.1631 -0.0579  0.0797
31372W        W47556  13.644   4.175  13.501 -0.0979  0.0209 -0.0989
31373W        W47557  14.698  13.334   4.270  0.2057  0.2263 -0.0793
31374W        W47558   0.727  16.981  13.593  0.1746 -0.0627  0.1063
31375W        W47559   1.374   6.506   2.077  0.0218  0.1649  0.1422
31376W        W47560  12.665  10.097  11.465  0.0804  0.0996  0.0241
31377W        W47561   8.115  10.627   5.469 -0.2905  0.1189 -0.1984
31378W        W47562  11.935  11.728   1.693 -0.3785 -0.2153 -0.0108
31379W        W47563   0.662  10.990  11.579 -0.2586 -0.2257 -0.0593
31380W        W47564   3.127  12.307   5.050  0.1704  0.1888 -0.0185
31381W        W47565  17.591  13.692  14.195 -0.1075 -0.2150  0.0582
31382W        W47566   7.739  13.221   3.950 -0.0556  0.0857  0.4458
31383W        W47567   1.243  11.050  16.006  0.4131  0.0358  0.1227
31384W        W47568   2.084  15.142  11.443 -0.1306  0.0092 -0.1459
31385W        W47569   5.466  14.351  13.460 -0.1141  0.1164  0.1534
31386W        W47570  16.909   5.750  13.188  0.2114 -0.2089  0.1048
31387W        W47571  12.860   7.104   4.753  0.0215 -0.0532 -0.4153
31388W        W47572  12.769   3.960  14.371  0.0758 -0.0960  0.1838
31389W        W47573   9.250  14.053  13.933  0.1489 -0.2242 -0.1286
31390W        W47574  16.202  16.792  15.804 -0.0912 -0.0665  0.1558
31391W        W47575  16.857  16.050  13.989 -0.2016 -0.3127 -0.4711
31392W        W47576   5.525   7.314   3.107  0.2238 -0.2776  0.0507
31393W        W47577   3.992  17.608   0.263 -0.2037  0.0104 -0.0570
31394W        W47578  16.065  15.599  15.746 -0.0139 -0.0534  0.1184
31395W        W47579  11.615   7.750  12.919 -0.4185 -0.3426  0.0882
31396W        W47580  10.203   0.965  15.413 -0.1040  0.1614  0.0519
31397W        W47581  12.283  11.224  12.992 -0.3256 -0.0308  0.0008
31398W        W47582   4.037  11.410   1.933 -0.0860  0.1045  0.0938
31399W        W47583  14.562  14.874   0.731 -0.1057 -0.0074  0.0928
31400W        W47584   9.192   7.768  12.386 -0.1119 -0.0826 -0.1425
31401W        W47585  12.145   6.682  15.956 -0.1347 -0.0906  0.0713
31402W        W47586   5.849   9.782  16.392 -0.0089  0.1772  0.0846
31403W        W47587   3.938   5.475   2.512  0.0016 -0.1926  0.2432
31404W        W47588  17.542   0.904  13.997  0.1140  0.1340 -0.1159
31405W        W47589   2.854   5.004  12.802  0.2226  0.0216  0.1950
31406W        W47590   3.610   9.623   1.856 -0.2138 -0.1125  0.2212
31407W        W47591  13.117  11.387  16.200 -0.0457 -0.0558  0.2524
31408W        W47592  14.740  17.146   2.273 -0.2272  0.2294 -0.1761
31409W        W47593   6.896   3.546   3.044 -0.1895 -0.2239 -0.0985
31410W        W47594   3.203   7.649   5.282 -0.0490  0.1282 -0.2714
31411W        W47595   4.265  14.004   0.696  0.3727 -0.0007 -0.0976
31412W        W47596  12.232   4.599   5.831  0.1946  0.0778  0.4520
31413W        W47597   0.992   3.453  15.644 -0.5570 -0.1024  0.2824
31414W        W47598  11.360   9.049   5.236 -0.4729  0.1169 -0.1369
31415W        W47599  12.036   1.670   6.264 -0.2106  0.0241 -0.0328
31416W        W47600   3.426   1.621  12.270  0.2064  0.3419 -0.0490
31417W        W47601  14.858  17.567   0.186 -0.1457  0.1813  0.0837
31418W        W47602   1.174   7.699   3.852 -0.0179 -0.1779 -0.0907
31419W        W47603   4.513  13.735   2.367 -0.0923  0.2118 -0.1591
31420W        W47604   5.121  17.779   1.205 -0.1721 -0.3208 -0.0527
31421W        W47605   1.795   8.054  15.453  0.0762 -0.0492 -0.0262
31422W        W47606  17.744   2.229  13.601 -0.0045 -0.3713 -0.0227
31423W        W47607  10.023   3.457  13.176  0.2025  0.2251 -0.0148
31424W        W47608   8.568   4.192   1.932  0.2210 -0.0222 -0.0894
31425W        W47609   1.691   1.436  12.126  0.0243  0.0109  0.0446
31426W        W47610   0.850  14.437   3.495  0.1380 -0.0667 -0.0074
31427W        W47611   4.851   8.146   3.831 -0.1272  0.0704  0.3220
31428W        W47612  15.292   5.135   1.588 -0.1034 -0.1058 -0.0559
31429W        W47613   6.015   5.513  16.522  0.3115 -0.0226  0.1195
31430W        W47614  10.776   2.580  13.557 -0.0722 -0.1388 -0.0501
31431W        W47615   5.459   3.706  15.497 -0.0714  0.1670  0.1338
31432W        W47616   7.766  14.119  12.721  0.0660  0.0987 -0.2343
31433W        W47617   6.910   2.833  13.449 -0.0880 -0.0344  0.1098
31434W        W47618   3.194  17.628  14.471 -0.1722 -0.3415  0.0353
31435W        W47619   4.656  13.006  11.872  0.3013 -0.2236  0.2047
31436W        W47620   8.833   1.916   3.373  0.1324 -0.1606 -0.1612
31437W        W47621  13.892   8.928  12.517  0.0802 -0.5547 -0.1255
31438W        W47622   4.904   5.012  13.238 -0.0065 -0.0723  0.1382
31439W        W47623   4.362   0.475   4.536  0.2448  0.3348  0.2224
31440W        W47624   0.967  14.078   2.320  0.0225  0.1544  0.1529
31441W        W47625   9.065  10.221  14.045 -0.1723  0.0444  0.4098
31442W        W47626  11.611  13.880   3.085 -0.1612 -0.0787 -0.0350
31443W        W47627   3.927   5.449   2.993  0.0388 -0.1237 -0.1536
31444W        W47628   0.187  12.024   2.780  0.2962  0.0369 -0.2355
31445W        W47629   9.271   2.867  13.215  0.2724  0.0115 -0.1242
31446W        W47630   6.039  16.292   2.817 -0.0596  0.1995 -0.1078
31447W        W47631  17.613   4.670   5.842  0.1304 -0.0560  0.2565
31448W        W47632  16.250   4.780  16.563  0.4938  0.1078 -0.1871
31449W        W47633  10.009   0.565   2.681  0.2555  0.0425  0.1501
31450W        W47634  15.328   1.041  11.573  0.0293 -0.0157 -0.1911
31451W        W47635  13.051   8.694   2.186  0.2539  0.2086 -0.0802
31452W        W47636   2.126   4.418  13.123 -0.2024 -0.2194 -0.2487
31453W        W47637   0.194   8.166   3.097 -0.1756 -0.0690  0.0906
31454W        W47638  14.309  11.448  14.856 -0.1151  0.3631 -0.3164
31455W        W47639   8.677   8.088   1.124  0.0166  0.0960 -0.2581
31456W        W47640   9.212   8.654   0.592  0.0376  0.0758  0.2265
31457W        W47641  13.570   3.035  13.383  0.0703  0.0317  0.0077
31458W        W47642  14.024  12.694  13.208  0.0400 -0.0678  0.1939
31459W        W47643   3.812  13.342  14.336  0.1519  0.2623  0.0843
31460W        W47644  12.507   2.792   2.005  0.2098  0.1121 -0.0817
31461W        W47645  17.229   7.635  12.706  0.0065 -0.0671  0.0910
31462W        W47646  11.691  13.186   1.009 -0.0409 -0.0368 -0.0638
31463W        W47647   7.384   9.953  16.563 -0.1640 -0.0199  0.1164
31464W        W47648   7.559  13.155   3.324 -0.0308 -0.2186  0.0147
31465W        W47649  15.265  12.946   2.889 -0.2742 -0.2475 -0.2211
31466W        W47650  11.782   7.679  11.928  0.2012 -0.1193  0.2640
31467W        W47651  13.523  17.634  10.902 -0.2874  0.1402  0.2158
31468W        W47652   0.806   6.506   4.617  0.1252  0.0403 -0.2149
31469W        W47653   5.744   2.985   3.661 -0.0014  0.0981  0.0316
31470W        W47654   9.809   9.675  15.264 -0.1309 -0.2125 -0.1925
31471W        W47655  15.363   8.439   4.470  0.2913  0.0709 -0.0323
31472W        W47656  15.256  15.211   2.835  0.1337  0.1852 -0.0424
31473W        W47657  17.786   5.672  15.725 -0.0862  0.1046 -0.2403
31474W        W47658  14.709  12.844   2.119  0.2646 -0.0595 -0.1258
31475W        W47659   0.759  14.318  14.218  0.3890 -0.1753  0.1425
31476W        W47660  13.676   1.932  15.883 -0.0372 -0.1207  0.1764
31477W        W47661   9.668   0.231   3.757 -0.0750  0.2351 -0.0617
31478W        W47662   9.945   0.836  15.790 -0.2267  0.1125 -0.1170
31479W        W47663  16.021  11.593   4.825 -0.0882  0.2505  0.1177
31480W        W47664   6.282   7.864   4.854  0.0733 -0.0219  0.2615
31481W        W47665   9.098   4.512  12.370  0.0572  0.1245  0.0826
31482W        W47666   4.525  17.772  14.797  0.2664  0.4107  0.2351
31483W        W47667  14.102  17.325  12.853  0.1742  0.1185  0.3640
31484W        W47668   1.286   1.663   5.625 -0.1587  0.4244 -0.0760
31485W        W47669  11.529   0.209   0.360  0.0612 -0.2606  0.4141
31486W        W47670   8.306   5.248   0.895 -0.0960  0.0496  0.0573
31487W        W47671   6.014  16.744   0.316 -0.1356  0.4179 -0.1644
31488W        W47672   7.824   1.020  16.472  0.1755 -0.1138 -0.0145
31489W        W47673   7.041  14.442   4.086 -0.1609 -0.2151 -0.0205
31490W        W47674   7.077   3.639   0.577  0.1514 -0.2456  0.1029
31491W        W47675  12.803   7.659   4.084  0.0439  0.2993  0.0753
31492W        W47676  10.641  14.057   5.226 -0.0856 -0.0853 -0.0462
31493W        W47677   0.131   2.643  15.311 -0.0686  0.2143 -0.0077
31494W        W47678  12.890  10.940  15.288  0.2215 -0.0374  0.4372
31495W        W47679   0.953   7.577  13.658 -0.1037  0.2778 -0.2508
31496W        W47680  15.855   3.122   5.298  0.2912 -0.3543  0.1358
31497W        W47681   5.099  14.388  13.116  0.3240  0.0609  0.2141
31498W        W47682   5.203  16.200  14.589 -0.2655  0.0801 -0.0122
31499W        W47683  12.777   7.659   2.502 -0.0874 -0.1066 -0.1142
31500W        W47684   0.145   8.290  16.532 -0.1570 -0.0505  0.1481
31501W        W47685  14.581  12.022   2.848  0.0318  0.2082  0.0909
31502W        W47686   3.117  14.690   5.543 -0.0541  0.1102 -0.0302
31503W        W47687  11.743  16.495  16.049 -0.5106 -0.0065  0.3082
31504W        W47688  16.876  12.137   2.277  0.0639  0.2025  0.0064
31505W        W47689   1.451   9.845  11.433 -0.3409 -0.0951  0.1955
31506W        W47690  14.774   8.870  14.912 -0.2049 -0.0525 -0.1524
31507W        W47691  13.291   9.225  14.084  0.1051  0.0003  0.1929
31508W        W47692   8.165   5.644   5.060 -0.0911  0.0178  0.0943
31509W        W47693   1.440  10.884  14.273  0.0021  0.2989 -0.0650
31510W        W47694   4.308   3.891   0.020 -0.1767 -0.0446 -0.0010
31511W        W47695  17.899  11.462   4.580 -0.2889 -0.1658  0.0083
31512W        W47696  12.795  13.435  12.838  0.0285  0.2688 -0.1151
31513W        W47697  14.571   9.307  14.700  0.1327  0.3059 -0.0860
31514W        W47698   3.021   2.562  13.016 -0.2533  0.1504  0.1192
31515W        W47699   9.881  14.449  16.405 -0.2102  0.2043 -0.1960
31516W        W47700  11.728   0.634  12.404 -0.0484  0.1170 -0.3096
31517W        W47701  12.977  12.545   0.197 -0.2525 -0.3900 -0.1932
31518W        W47702   0.786   4.626  14.904  0.3527 -0.2104  0.2289
31519W        W47703   4.976  15.313  14.607 -0.1400 -0.0939 -0.0570
31520W        W47704   9.383  12.322  13.716  0.0602 -0.1625  0.0487
31521W        W47705   5.794   5.612  15.447  0.1967 -0.0647 -0.1023
31522W        W47706   4.400  10.874  16.486 -0.0052  0.0416  0.0335
31523W        W47707   2.325   5.269   5.376 -0.1267  0.2662 -0.2995
31524W        W47708  14.139  12.992  12.788 -0.0552 -0.1065  0.3226
31525W        W47709   4.658   5.150   1.924  0.0019  0.0721  0.0200
31526W        W47710   9.766  11.442   4.009 -0.1125 -0.1317 -0.0070
31527W        W47711   4.734   2.993   0.161  0.0477  0.0789 -0.0834
31528W        W47712  15.736   9.591  12.027  0.0086 -0.1155 -0.0361
31529W        W47713   8.868   6.253   1.897 -0.0422  0.0067 -0.1004
31530W        W47714   4.155   8.847   2.249  0.0420 -0.0647  0.1757
31531W        W47715   4.153   1.154  11.268 -0.2363 -0.0607  0.0530
31532W        W47716  13.628  13.559  16.338  0.0227  0.4937  0.0463
31533W        W47717  13.828   9.973   1.321  0.0039  0.0014 -0.1179
31534W        W47718   9.916   3.825  15.355  0.0419  0.1220 -0.2183
31535W        W47719  12.573  14.032   2.456 -0.0533 -0.0972  0.1391
31536W        W47720   9.812  17.219  15.888  0.1955  0.3882 -0.2459
31537W        W47721  14.754  17.098   3.192  0.1777  0.1460 -0.0618
31538W        W47722  10.321  10.759   1.470 -0.0617 -0.5959  0.1096
31539W        W47723  16.991   5.484   5.752 -0.3483 -0.0639  0.2315
31540W        W47724   4.541   7.758   5.503 -0.1878  0.2627 -0.0761
31541W        W47725  11.412   6.634   2.383  0.1121 -0.0190  0.1580
31542W        W47726   5.797   8.193   2.983  0.4716 -0.0382  0.3947
31543W        W47727   3.114   3.088  15.401  0.1108  0.0819  0.0546
31544W        W47728  14.661   8.892  15.507  0.2961  0.1564 -0.1590
31545W        W47729   7.384  14.387   5.941 -0.2694 -0.1220 -0.1358
31546W        W47730   8.474  10.804  14.317  0.0960  0.1515  0.1969
31547W        W47731   4.705   1.216   1.291  0.3250  0.1450 -0.3430
31548W        W47732  10.230  16.758   4.885  0.0693 -0.0906  0.1547
31549W        W47733   7.542   3.657   3.342 -0.0976 -0.0146  0.1814
31550W        W47734  15.962   5.179   3.453  0.0649 -0.1429 -0.1036
31551W        W47735   3.159  14.069  14.135  0.0548  0.1950 -0.2889
31552W        W47736   8.814   2.964  14.450  0.1043 -0.1327 -0.0347
31553W        W47737   9.522   2.699   5.281 -0.0087 -0.1307 -0.0881
31554W        W47738  10.553   4.861   3.337 -0.0233 -0.2070 -0.0257
31555W        W47739   6.386   2.820   6.182 -0.1140 -0.0777  0.0169
31556W        W47740   0.106   0.224   4.620 -0.1546  0.0448 -0.1885
31557W        W47741  11.926   6.029   2.165  0.0915 -0.1044  0.0192
31558W        W47742   7.807  13.474   0.530 -0.0723 -0.0522 -0.1615
31559W        W47743   1.291   1.165  11.970 -0.0983  0.5066 -0.0329
31560W        W47744   0.836  16.115  15.058  0.3906 -0.2712 -0.1463
31561W        W47745   0.058  17.814  16.203 -0.1461  0.2298 -0.1070
31562W        W47746   5.280   0.920   2.839  0.1668 -0.2124 -0.0430
31563W        W47747  17.893  15.579  11.728  0.0918 -0.2102  0.2212
31564W        W47748   1.919  10.827  14.521 -0.2764  0.0008  0.1509
31565W        W47749  16.064   3.316   4.484  0.1476  0.3092 -0.0671
31566W        W47750   9.724  16.903  13.766  0.0666 -0.2013  0.3231
31567W        W47751  12.869   8.865   4.807 -0.0055  0.0257 -0.1251
31568W        W47752  12.772   2.523   0.600 -0.0930  0.1134  0.3940
31569W        W47753  13.992  12.720  15.997  0.1737  0.1953  0.2338
31570W        W47754  11.059   4.544   1.347  0.1318 -0.1678  0.2418
31571W        W47755   3.580   7.290  13.018  0.0059 -0.1262  0.1066
31572W        W47756  15.090  13.264   2.001  0.1365  0.0491 -0.1022
31573W        W47757  10.286  13.880  11.881 -0.0290  0.3058 -0.2390
31574W        W47758  14.545   2.639   2.862  0.1330 -0.1520 -0.0059
31575W        W47759   5.176   1.730  14.288 -0.2032  0.4132  0.0211
31576W        W47760  15.400  12.745   3.845  0.0916  0.3294  0.1105
31577W        W47761  11.437   2.368  15.494 -0.0246 -0.1655 -0.3305
31578W        W47762   7.660   6.650  13.670 -0.0220  0.0270  0.3624
31579W        W47763   8.096   6.403   1.305 -0.0370 -0.1574 -0.0602
31580W        W47764   1.647   8.887   1.022 -0.1613 -0.0041 -0.0365
31581W        W47765  13.344   6.890  16.511  0.3983 -0.0334 -0.0444
31582W        W47766  15.394  15.118  14.666 -0.0170  0.0799 -0.1138
31583W        W47767  10.113   1.817  12.772 -0.0059  0.2919  0.0939
31584W        W47768  11.114  17.916   0.075 -0.1650 -0.0215 -0.2103
31585W        W47769  13.919   7.243   0.902 -0.1891  0.0932  0.2965
31586W        W47770  17.779   1.150  16.430 -0.1074 -0.0208  0.0735
31587W        W47771   6.782   5.489   2.248  0.0120 -0.1704 -0.3042
31588W        W47772   3.366  12.456  15.923 -0.1458  0.0794  0.3416
31589W        W47773  10.045  16.502  14.729  0.1058  0.1363 -0.0678
31590W        W47774   2.280  16.561  11.635  0.0497  0.0044 -0.0150
31591W        W47775   0.729   7.682   4.208  0.1670  0.1709  0.0252
31592W        W47776   5.890  15.243   4.678 -0.0327  0.2970 -0.0018
31593W        W47777   2.412  10.743  13.094 -0.4302 -0.0110 -0.1173
31594W        W47778   1.518  17.402  15.692  0.2178  0.4303 -0.1978
31595W        W47779   4.610  15.924   3.638 -0.1965 -0.1243 -0.1776
31596W        W47780  15.471   6.561   3.506 -0.0719 -0.0182 -0.0598
31597W        W47781   0.035   9.483  16.621 -0.1094 -0.2849 -0.0224
31598W        W47782  13.086   3.476   0.630 -0.0548 -0.2369  0.3028
31599W        W47783  10.750   5.213  11.653 -0.2717  0.0091 -0.1076
31600W        W47784   8.990   6.799   5.271  0.1205 -0.0458  0.1007
31601W        W47785  15.501   5.140  15.439  0.2680  0.0747  0.3477
31602W        W47786   8.937  13.810   0.581  0.1287 -0.0259  0.0091
31603W        W47787  17.751   2.850   1.136 -0.0026 -0.1958  0.3783
31604W        W47788  16.995   6.612   2.782  0.4436 -0.0098  0.0125
31605W        W47789  10.580  10.114  16.240 -0.0193  0.0634 -0.0908
31606W        W47790  15.175   0.937  12.082  0.0577 -0.0458 -0.3277
31607W        W47791  11.659   5.041  15.142 -0.3614  0.0142 -0.2412
31608W        W47792  15.372   8.948   0.068  0.0024 -0.0251 -0.0293
31609W        W47793   9.299   6.208  14.159 -0.2690 -0.1304 -0.1471
31610W        W47794   1.974   9.858  16.325 -0.2278 -0.1973 -0.1905
31611W        W47795   9.513  11.652  14.841  0.1282 -0.0971  0.0223
31612W        W47796   1.089  13.761   4.293  0.2820 -0.1185 -0.0704
31613W        W47797   3.959   1.086   2.090 -0.0931  0.0064 -0.0880
31614W        W47798   8.241  12.754  11.263 -0.0896  0.0872  0.0868
31615W        W47799   4.461  13.102  12.328  0.1030  0.3990 -0.1008
31616W        W47800   4.797   3.225   6.160  0.0100  0.1907 -0.2020
31617W        W47801   0.050  16.650  15.389  0.1214  0.0203  0.0978
31618W        W47802  14.323  14.409   3.048  0.1541 -0.1122 -0.1352
31619W        W47803  17.649  16.382  14.155 -0.0052  0.1597 -0.0175
31620W        W47804  12.190  16.629   5.966 -0.0205 -0.3385 -0.1610
31621W        W47805   8.954   5.396   1.593  0.2362 -0.1550  0.2312
31622W        W47806   3.590   2.355   4.866 -0.0070 -0.0046  0.0145
31623W        W47807  12.152   8.208   0.177 -0.2587  0.1746 -0.2674
31624W        W47808  14.095   2.899  15.791 -0.1603  0.2942  0.0925
31625W        W47809   9.086  10.836   0.103 -0.0316 -0.0743 -0.3293
31626W        W47810   9.274   5.356  13.061 -0.2529 -0.4968  0.0234
31627W        W47811  15.051  17.488   3.030  0.1858 -0.1863  0.1259
31628W        W47812  16.990  13.029   1.987 -0.0939 -0.0673 -0.1085
31629W        W47813   3.770  16.210   2.555 -0.0318  0.0956  0.1097
31630W        W47814   6.200  13.373   0.331  0.2841  0.1250 -0.1642
31631W        W47815   3.901   9.735  11.957 -0.0380  0.0987  0.1012
31632W        W47816  12.838   9.959   5.731  0.0244 -0.1067 -0.2850
31633W        W47817  10.893   1.664  13.263 -0.0063  0.0519 -0.2611
31634W        W47818   7.901  13.807  13.560  0.2564 -0.1110  0.2610
31635W        W47819   2.386   4.180   0.121 -0.3386  0.0882 -0.0097
31636W        W47820   3.193   8.951   2.270  0.1786  0.0771  0.0538
31637W        W47821   9.497   0.988   1.964 -0.2740  0.0597  0.0542
31638W        W47822  13.155  12.971  16.028  0.0041 -0.1462  0.2787
31639W        W47823   9.734  13.401  13.642 -0.0122  0.3178 -0.1236
31640W        W47824   9.044   9.200  13.890 -0.0885  0.4307 -0.2746
31641W        W47825  12.528  13.825  12.630  0.5445 -0.1433 -0.0976
31642W        W47826   9.358  11.651   1.652  0.0601 -0.0947 -0.0994
31643W        W47827   0.506   7.223  14.935  0.1156 -0.0841  0.0729
31644W        W47828   8.844   7.280  13.588 -0.2387  0.1893  0.0222
31645W        W47829  16.746  15.859  15.102 -0.3780 -0.3716  0.0621
31646W        W47830  10.796   6.113  12.278 -0.1421 -0.0466 -0.0030
31647W        W47831   4.715   6.149  12.994  0.1118  0.0648  0.0288
31648W        W47832   5.480   5.242   1.733  0.0407 -0.0068  0.1775
31649W        W47833  14.050  12.087  12.217 -0.1977 -0.0243  0.3782
31650W        W47834  11.842   5.044   3.678  0.1250 -0.0028 -0.1636
31651W        W47835   9.291   4.460   1.815 -0.2079  0.1272 -0.1022
31652W        W47836  11.531  12.858   2.021 -0.0879 -0.3869 -0.1966
31653W        W47837   0.849   2.739   3.045 -0.3252  0.1412 -0.1432
31654W        W47838   7.419  15.515   4.808  0.0056  0.0908  0.2921
31655W        W47839   7.949   2.127  13.141 -0.1019  0.3144 -0.0287
31656W        W47840   2.825  15.870   4.621 -0.0045  0.2596 -0.1414
31657W        W47841   3.276  13.830   3.488 -0.1562 -0.0698 -0.1871
31658W        W47842  16.590  12.532  16.087  0.0530 -0.1613 -0.0096
31659W        W47843  12.110   2.374   5.565  0.0407 -0.1651  0.0251
31660W        W47844  12.049   4.810  14.170 -0.1020  0.1723  0.2758
31661W        W47845   6.049   7.856   4.392  0.0621 -0.2353  0.1560
31662W        W47846   7.288   0.096  14.247 -0.1591 -0.0498  0.0661
31663W        W47847  14.737  15.313   1.018  0.0648  0.1816 -0.1047
31664W        W47848   0.290  17.056  15.183  0.1419 -0.1650  0.0551
31665W        W47849  17.265  11.573   1.620 -0.0967 -0.1964 -0.0846
31666W        W47850   6.539  16.509  16.178 -0.1844  0.0683 -0.0538
31667W        W47851   8.880  11.009   4.289  0.1976  0.1420  0.0342
31668W        W47852   4.033  14.091   5.331 -0.5864  0.0506  0.1567
31669W        W47853  10.683  16.465  15.851 -0.0850  0.1148 -0.1260
31670W        W47854  14.176   5.688  10.983  0.1335  0.0809 -0.0286
31671W        W47855   8.786   1.383   3.310  0.0224  0.0809  0.3618
31672W        W47856   0.892  16.727  15.765 -0.0467  0.0655 -0.2164
31673W        W47857   9.489   6.768   2.356 -0.1014  0.3101  0.1601
31674W        W47858   3.675  17.458   0.841 -0.1973  0.1244  0.2431
31675W        W47859  14.602  11.075   1.169  0.1551 -0.2300 -0.0126
31676W        W47860   2.200   5.596  13.258  0.0334  0.1932 -0.0531
31677W        W47861   2.038   0.723   5.530 -0.2575  0.1470 -0.2015
31678W        W47862  15.076  10.323  15.681 -0.3062  0.1600  0.1812
31679W        W47863   0.299   7.942   4.226 -0.1280  0.2036 -0.1224
31680W        W47864   2.603   8.854   3.296  0.4264  0.0103 -0.3105
31681W        W47865   1.478  12.835   1.389  0.1705  0.1234 -0.1479
31682W        W47866  11.865  16.658   3.775 -0.1518  0.0737 -0.0388
31683W        W47867  14.016   5.601   3.888 -0.1672  0.1921  0.1463
31684W        W47868  13.116  14.447   2.418  0.0323  0.0426 -0.0617
31685W        W47869  14.546  14.314   4.879  0.0464 -0.2827  0.2145
31686W        W47870  12.618   7.877  14.437  0.0216  0.0194  0.0464
31687W        W47871   3.241   1.652  15.506  0.1384  0.1105 -0.0083
31688W        W47872   6.266   4.259  15.286 -0.1491 -0.1133 -0.1072
31689W        W47873   9.530  11.434   5.098  0.0311 -0.0690 -0.0130
31690W        W47874   0.138   3.006  10.285 -0.0603  0.0301 -0.0516
31691W        W47875   2.751  14.160   2.209 -0.2101 -0.0215 -0.3735
31692W        W47876  17.254  12.589   3.997 -0.1092 -0.0661 -0.2566
31693W        W47877   2.617   5.828   0.976 -0.0359 -0.3651  0.5273
31694W        W47878  14.520  17.068   9.836 -0.0671  0.2214 -0.0456
31695W        W47879   9.521  11.823   3.589  0.2868 -0.1317 -0.3201
31696W        W47880  11.431   2.068   2.591  0.0362  0.1131  0.0671
31697W        W47881   6.894  15.175  14.450  0.0990 -0.1692 -0.0713
31698W        W47882  11.564   8.471  11.256  0.2918  0.0945  0.1612
31699W        W47883   6.952  12.670  13.407  0.0534 -0.1794  0.0423
31700W        W47884  10.214   3.564   1.749 -0.0620 -0.0240 -0.1126
31701W        W47885   5.974  13.800   0.263  0.1246 -0.0347 -0.0765
31702W        W47886  12.530   6.952  13.668 -0.0378  0.0161 -0.0123
31703W        W47887  10.036   6.985  15.019 -0.0656 -0.1168 -0.1341
31704W        W47888   1.598   3.211  13.507  0.1645 -0.0999 -0.3032
31705W        W47889   5.500  11.765  16.619  0.1063  0.1653  0.1977
31706W        W47890   4.259  12.980   0.247  0.2484  0.0646  0.2159
31707W        W47891   9.086  17.168   4.708  0.0837 -0.1646  0.1645
31708W        W47892   4.370   8.804  16.351 -0.1908  0.1420 -0.0815
31709W        W47893  12.090  17.145   0.910 -0.2415 -0.2385  0.1334
31710W        W47894  15.415   4.020   5.193  0.3098  0.0044  0.0495
31711W        W47895   4.965  13.734  12.609 -0.1355  0.1197 -0.2743
31712W        W47896   5.891   4.273   1.035  0.4196 -0.2750 -0.1921
31713W        W47897  10.943  12.324   0.060  0.1250 -0.0099  0.2817
31714W        W47898   8.812  16.082   5.159 -0.1812  0.3255  0.2329
31715W        W47899   5.840  11.495   3.238  0.0202 -0.0091 -0.1399
31716W        W47900  11.504   9.386  13.631  0.0919 -0.0571 -0.0250
31717W        W47901  14.216   2.897   5.585 -0.0088  0.0168  0.1580
31718W        W47902   8.333   0.316   2.462  0.0526  0.1075 -0.0261
31719W        W47903   8.226   3.497  15.840 -0.0680 -0.1316 -0.2302
31720W        W47904   6.119   9.067   3.714  0.2680  0.0618  0.1534
31721W        W47905   8.637   2.818  13.909 -0.1299 -0.1670  0.0668
31722W        W47906   6.867  17.760   1.698 -0.1128 -0.0747 -0.1745
31723W        W47907   7.348  14.273  14.760  0.0695 -0.1729 -0.0628
31724W        W47908   9.273  11.557  13.099 -0.2169 -0.3389  0.1445
31725W        W47909  11.317  10.771   5.716  0.2319  0.2684  0.0880
31726W        W47910   6.421   7.547  13.794  0.0232  0.2259 -0.0111
31727W        W47911  12.872  10.237  13.702 -0.0995  0.0256  0.0901
31728W        W47912  12.921   3.111  15.082 -0.0368 -0.3003  0.0668
31729W        W47913  12.758   1.891  14.708 -0.3264 -0.1845  0.0081
31730W        W47914   6.083  10.233  16.582 -0.0115 -0.0548 -0.1827
31731W        W47915   0.301   6.137   0.764  0.1766 -0.1029  0.1459
31732W        W47916  16.688   9.714   1.857 -0.0253 -0.4574 -0.0452
31733W        W47917   1.479   3.608   5.728  0.1820  0.1599  0.0421
31734W        W47918   0.205   3.348  16.463 -0.1019 -0.1663  0.2895
31735W        W47919   4.427  14.611   3.219  0.0504 -0.2174  0.1176
31736W        W47920  13.047   5.635  13.803  0.0070  0.4604 -0.2994
31737W        W47921  11.476   9.237  16.582  0.1492  0.0832 -0.0898
31738W        W47922   3.693  13.824  14.665  0.1851  0.0907 -0.0973
31739W        W47923  15.787   9.668   0.763  0.3589  0.1873  0.0782
31740W        W47924   7.167   4.237   1.839  0.1506  0.1506  0.0793
31741W        W47925   9.128  12.551   1.847  0.0136 -0.2055 -0.1781
31742W        W47926   3.911  16.021  14.877 -0.4215 -0.2555  0.1125
31743W        W47927   9.045  16.086  12.362 -0.0623  0.1139  0.1270
31744W        W47928  11.906  11.178   3.624 -0.1673  0.0804 -0.0553
31745W        W47929  16.989   3.047   3.428  0.0544 -0.4012  0.2357
31746W        W47930  11.288   3.953   2.472  0.0627  0.3157 -0.2746
31747W        W47931   0.429  15.488  13.480  0.2447 -0.1039 -0.1012
31748W        W47932  14.356  10.289   3.345 -0.3140  0.0992  0.0733
31749W        W47933   0.354  13.851   2.537  0.0210 -0.1144 -0.0395
31750W        W47934   1.600   3.131   1.341 -0.0466 -0.0974 -0.0351
31751W        W47935   5.375   6.299  11.802 -0.0007 -0.0677 -0.1474
31752W        W47936  14.398   1.352  13.532 -0.1562 -0.0214 -0.3706
31753W        W47937   3.348   1.305   3.427  0.3267 -0.3632 -0.1116
31754W        W47938   1.119  14.340  13.843  0.1288  0.0692  0.0540
31755W        W47939   2.509   8.749   0.708 -0.0117  0.2396 -0.2293
31756W        W47940   3.675   9.324   0.345  0.0800 -0.1931 -0.0668
31757W        W47941   4.114   9.191   0.558  0.0075 -0.2495 -0.3100
31758W        W47942   5.210  14.112  10.996  0.3324 -0.1453 -0.0521
31759W        W47943   4.852   1.023  13.127  0.2055 -0.0600 -0.0984
31760W        W47944  12.488  10.134  14.483  0.1572 -0.3520 -0.2396
31761W        W47945   8.870   1.241   2.792  0.1416  0.1756  0.2450
31762W        W47946   3.505   8.511  16.319 -0.0970 -0.0978  0.1794
31763W        W47947   7.988   5.800   3.714 -0.0142 -0.1340 -0.0867
31764W        W47948   7.626   7.527  13.953 -0.0627  0.0693  0.0164
31765W        W47949   7.943  12.252  14.363  0.0549 -0.0756 -0.3907
31766W        W47950   8.271   0.282  15.480 -0.0360  0.1035  0.2808
31767W        W47951  14.594   2.344   1.726 -0.2105  0.1565 -0.1401
31768W        W47952  16.376  14.992  14.726 -0.2053 -0.0850 -0.1126
31769W        W47953  11.887   7.386  14.696  0.0529  0.0228 -0.1640
31770W        W47954  13.103  15.474  14.990  0.2400 -0.0827  0.0703
31771W        W47955   9.545   0.897  16.588 -0.2568 -0.0460 -0.2026
31772W        W47956  17.440  12.769   1.823  0.2667  0.2565 -0.2501
31773W        W47957  15.118   8.438   1.473  0.0512 -0.0958 -0.1137
31774W        W47958   9.079  12.271   2.595 -0.0605  0.0108 -0.0656
31775W        W47959   3.631   7.550   0.667  0.0593 -0.1966  0.2207
31776W        W47960  11.049   4.353  12.758 -0.2555  0.2279 -0.1534
31777W        W47961   6.889   9.926  16.267 -0.1474 -0.0632 -0.0108
31778W        W47962   9.874   9.706   5.997  0.2337  0.2580  0.1794
31779W        W47963   7.698   0.346  13.963 -0.1150  0.3436  0.0096
31780W        W47964   9.818  15.222   3.966 -0.3322 -0.3625  0.3552
31781W        W47965  15.351   1.183   5.255 -0.0329  0.0401 -0.2438
31782W        W47966   4.923   0.261   5.400 -0.1492 -0.0023 -0.0262
31783W        W47967   8.427  10.778   4.345  0.0788  0.0787  0.0858
31784W        W47968  11.044   0.412   0.264  0.0881  0.2055  0.2374
31785W        W47969   1.942  16.583  13.027 -0.4546  0.4224  0.0772
31786W        W47970   8.709   2.061  14.047  0.0704  0.1956 -0.0290
31787W        W47971   1.260   8.547  16.043 -0.0758 -0.2548  0.0595
31788W        W47972  12.377   4.784  11.338  0.2362 -0.3546 -0.0374
31789W        W47973  15.144   2.824   3.151  0.0699 -0.0783 -0.2107
31790W        W47974  16.434   7.868   0.500  0.0275  0.2009  0.1443
31791W        W47975   9.118  11.546  14.059  0.3308 -0.1618 -0.1334
31792W        W47976   7.176  13.809   1.142 -0.1549 -0.1277 -0.3777
31793W        W47977  12.002   9.335   3.660  0.3071 -0.1010  0.1090
31794W        W47978   4.813  15.335  15.701  0.0656 -0.0342 -0.1522
31795W        W47979   9.606   1.302   2.811  0.0351  0.1929  0.1461
31796W        W47980   7.485   1.488   0.165 -0.0113  0.0542 -0.1659
31797W        W47981   6.230  10.172  13.333  0.0254 -0.2007 -0.2145
31798W        W47982  13.330  11.271   2.670  0.1175 -0.3551 -0.2825
31799W        W47983   6.142   9.360  14.328  0.1427  0.1979 -0.0940
31800W        W47984   2.010   2.613  14.206  0.3335 -0.1500  0.1292
31801W        W47985  12.557   8.605   3.475  0.1761  0.1327 -0.0471
31802W        W47986   3.475   2.726  13.096  0.1234  0.1840 -0.1856
31803W        W47987  11.400  15.879  12.876 -0.0049 -0.2052  0.1753
31804W        W47988   2.163  16.120  13.811  0.4355 -0.1337 -0.1929
31805W        W47989   9.376   9.329  15.049  0.0835  0.2043 -0.0977
31806W        W47990  10.164   9.266   4.561  0.1732 -0.0551  0.0652
31807W        W47991  17.484  17.190   5.302  0.6055  0.1381 -0.0552
31808W        W47992   3.573  17.924   1.117 -0.1324 -0.1999  0.0109
31809W        W47993  11.335  11.188  12.691 -0.0074 -0.1699 -0.1106
31810W        W47994  13.308   7.206   5.675 -0.0016  0.3856  0.0214
31811W        W47995   3.525   4.328   3.481  0.1627 -0.1129 -0.1957
31812W        W47996   2.848  13.809  14.395 -0.0421 -0.0984 -0.1909
31813W        W47997  11.059   5.570   2.327  0.0352 -0.0824 -0.1273
31814W        W47998  17.489  16.145  16.180 -0.0575 -0.1422 -0.1384
31815W        W47999   0.439  10.061   1.469  0.2315  0.1429 -0.1137
31816W        W48000  16.183  11.292  12.697  0.0435 -0.1748  0.0427
31817W        W48001  10.680  11.104   0.132  0.0062  0.1926 -0.1083
31818W        W48002   7.815   7.881   1.237  0.1384 -0.0745  0.0725
31819W        W48003   5.214   4.584   4.591 -0.0733 -0.1246 -0.0081
31820W        W48004   2.234  12.527   1.677  0.2095 -0.2927  0.0249
31821W        W48005  16.814  14.774  13.853 -0.1028 -0.2218 -0.0617
31822W        W48006  13.120  14.527   1.473 -0.1341  0.0110  0.3409
31823W        W48007   8.896   3.707  12.194 -0.1810 -0.0992 -0.0321
31824W        W48008   3.933   4.880  13.158 -0.1440  0.0956 -0.0368
31825W        W48009   9.706   4.895   2.551 -0.1296  0.1418  0.0393
31826W        W48010  16.848   7.011   3.136  0.1895 -0.0360 -0.0157
31827W        W48011   1.575  15.574  15.391 -0.0638 -0.0860 -0.3414
31828W        W48012   3.645   8.306  14.181 -0.1612 -0.1382 -0.3648
31829W        W48013  17.211   2.862   4.796 -0.0931 -0.1484 -0.1686
31830W        W48014   2.350  14.440  10.992 -0.1938 -0.2342  0.0678
31831W        W48015   0.123  11.392   1.675 -0.1908 -0.2935 -0.0264
31832W        W48016  15.682   6.437   5.406  0.1347  0.0811 -0.1442
31833W        W48017   9.495   7.738   1.219  0.0035 -0.2487  0.3414
31834W        W48018  14.560  12.437   4.591 -0.0202  0.2006  0.3386
31835W        W48019  14.285  13.007   0.746  0.0769 -0.0228 -0.1883
31836W        W48020   0.580   6.087  14.340 -0.1201 -0.1097 -0.1129
31837W        W48021   9.737  15.730   3.013  0.0820 -0.0796 -0.0087
31838W        W48022   0.129  16.147   4.309  0.2284  0.0301 -0.2726
31839W        W48023   2.481   2.890   2.618  0.2658 -0.1368 -0.0818
31840W        W48024   5.128  14.081   0.233 -0.1292 -0.1234 -0.3687
31841W        W48025  11.312   2.150  15.030 -0.0190  0.3589 -0.3153
31842W        W48026   7.774   1.509  14.740  0.2911 -0.1279 -0.1113
31843W        W48027  16.230   9.782  15.471 -0.2994 -0.1160 -0.0641
31844W        W48028  11.917   2.246  14.386  0.0250 -0.1098  0.1455
31845W        W48029  15.710   5.450   5.892  0.0182  0.2222 -0.2583
31846W        W48030   6.302  15.439   0.579  0.0990 -0.3547  0.0312
31847W        W48031  14.470  12.540  15.887  0.0102  0.1951  0.1769
31848W        W48032   9.528   0.694   3.682 -0.1675  0.4213 -0.2018
31849W        W48033   3.965  16.556  14.739 -0.0022 -0.0178  0.2364
31850W        W48034  11.882   5.398   4.506  0.1898  0.3617 -0.2125
31851W        W48035   3.528   0.205   5.114  0.1099 -0.1867 -0.3316
31852W        W48036  15.728   8.213   1.839  0.1160 -0.1985  0.0421
31853W        W48037  15.389  11.862  11.926  0.2816  0.2933  0.0717
31854W        W48038   0.365   2.325  16.272 -0.1157  0.1574  0.1119
31855W        W48039   9.528   9.927   6.286 -0.0611  0.0400 -0.0145
31856W        W48040  13.624   4.627  15.224 -0.4300  0.0252 -0.0201
31857W        W48041  12.002   9.820   3.336 -0.1294 -0.3669 -0.1480
31858W        W48042   5.169   1.421   4.188 -0.0317  0.2326  0.1244
31859W        W48043   1.985   4.672   3.131 -0.1132  0.0969  0.0531
31860W        W48044  13.792   3.090   5.376  0.1272  0.0345 -0.2541
31861W        W48045  11.566  12.546   3.119  0.1124 -0.0380  0.1040
31862W        W48046  17.423  12.780  13.980  0.1330 -0.2540 -0.4186
31863W        W48047  13.825  11.180   4.272  0.0887  0.1099 -0.0479
31864W        W48048   1.734  16.943  15.694  0.0959 -0.0017  0.0797
31865W        W48049  11.468   8.918   4.785 -0.1627 -0.1105 -0.0260
31866W        W48050  10.232  14.115  12.437 -0.2075 -0.3165 -0.0537
31867W        W48051   7.230  17.076   0.034  0.1967  0.0602  0.2287
31868W        W48052   6.046   9.789  13.563  0.2427 -0.0873 -0.0045
31869W        W48053   5.609  10.682  16.663 -0.1206 -0.1277  0.0139
31870W        W48054  12.857  17.511   5.230  0.2489  0.0350  0.4758
31871W        W48055  12.047   6.120   2.952 -0.2812  0.2856 -0.1866
31872W        W48056   6.153   2.754   3.904  0.2351 -0.0934 -0.0468
31873W        W48057  12.905   8.133   1.920  0.2384 -0.0343 -0.3493
31874W        W48058  16.737   5.802   1.157  0.1288  0.0456 -0.2534
31875W        W48059  14.714  14.504  11.868  0.0603 -0.0336 -0.1879
31876W        W48060  16.782   8.266   5.149 -0.1491  0.1684  0.1890
31877W        W48061   9.378  15.859  11.868  0.2163 -0.3303 -0.0717
31878W        W48062   8.618   3.949   6.275  0.1755  0.2944 -0.0215
31879W        W48063   6.565  11.296  10.621 -0.2195  0.2290 -0.0276
31880W        W48064  16.482  14.960   3.114  0.1619  0.1181  0.1579
31881W        W48065  10.283   0.171  15.795  0.0539 -0.3787  0.1090
31882W        W48066   1.504  17.392   3.067 -0.0663  0.3609  0.1207
31883W        W48067  14.649   5.753  11.204 -0.1043  0.1651  0.2173
31884W        W48068   0.733   1.960  12.121  0.0522 -0.0961 -0.3870
31885W        W48069   0.858  17.268  14.008 -0.2448  0.0511 -0.0533
31886W        W48070  15.780  10.081   4.045  0.1345 -0.0797 -0.0226
31887W        W48071  17.701   0.704   4.879  0.2709 -0.0290 -0.0839
31888W        W48072   0.250  14.819  13.393  0.0641 -0.1877  0.0307
31889W        W48073   8.480   4.372  15.588 -0.0742  0.0853  0.2625
31890W        W48074  13.912  12.207   2.167  0.2493  0.1727 -0.1893
31891W        W48075  17.375  10.471   3.016  0.1140 -0.3730 -0.3606
31892W        W48076   3.671   0.146   5.887 -0.0367  0.0766 -0.0445
31893W        W48077  15.682   8.436   4.022  0.3458  0.0179  0.0730
31894W        W48078   6.994   5.458   1.588  0.3118  0.2317  0.0750
31895W        W48079  16.989  17.694   1.893  0.0128  0.2168 -0.0173
31896W        W48080  11.100  10.708  15.270  0.4265 -0.0329  0.4109
31897W        W48081   3.722   9.549  13.358 -0.0192 -0.1715 -0.3027
31898W        W48082  16.831   1.709   4.654  0.0705 -0.1114 -0.0304
31899W        W48083  17.343  12.213   3.592 -0.2315  0.1006 -0.2829
31900W        W48084   2.561  12.111   4.439  0.0307  0.1992 -0.1711
31901W        W48085  12.320   3.809   4.668  0.0496 -0.1743  0.2690
31902W        W48086   2.732   3.538  15.630  0.3531 -0.0420 -0.0168
31903W        W48087  11.638   3.265   4.181 -0.1343  0.1827 -0.0180
31904W        W48088   0.531   7.738   5.128 -0.0140  0.0074  0.1117
31905W        W48089   6.556   1.574   1.779 -0.2219 -0.0884 -0.0358
31906W        W48090   5.552  12.573   0.557 -0.3604  0.3663  0.5513
31907W        W48091  11.168   5.261  11.381 -0.2199 -0.0942  0.0528
31908W        W48092  13.149   8.287  12.437 -0.4938 -0.0741 -0.1678
31909W        W48093   9.560   3.635   5.421  0.0733  0.1671 -0.0986
31910W        W48094  14.734  10.892   0.398 -0.1530  0.2835 -0.3491
31911W        W48095  12.517  12.021  12.248 -0.2057 -0.0680 -0.0395
31912W        W48096  12.246   9.164   0.524 -0.1326  0.0313 -0.1735
31913W        W48097  11.028  12.709  11.896  0.1674 -0.1075  0.0072
31914W        W48098   3.862  17.543  13.176  0.2721 -0.2013  0.1154
31915W        W48099   0.139   0.843   4.710 -0.0670 -0.3167 -0.0354
31916W        W48100   1.157  13.538   1.134 -0.2764 -0.1082 -0.2466
31917W        W48101   7.037  13.993   4.287  0.1472  0.0867  0.1376
31918W        W48102  17.873  14.278  12.518  0.1594 -0.0390 -0.0148
31919W        W48103   2.789  12.557  13.532  0.1342 -0.2342  0.2093
31920W        W48104   8.635   6.547  11.855 -0.0785  0.0551  0.0160
31921W        W48105  16.025   0.253   2.833 -0.0789 -0.2053  0.3366
31922W        W48106  16.647   8.849   1.662  0.1163 -0.2188 -0.1313
31923W        W48107  14.589   0.870   3.123 -0.0545 -0.1469 -0.0516
31924W        W48108   9.194   9.975   0.141 -0.0878 -0.3783  0.0361
31925W        W48109  12.128   1.388   1.474  0.0002  0.0669 -0.0225
31926W        W48110  16.136  14.064  12.351  0.2112 -0.1248 -0.0818
31927W        W48111   3.551  13.173  12.985 -0.2392  0.2946 -0.0477
31928W        W48112   8.531  12.253   4.901  0.0697 -0.2536  0.1234
31929W        W48113  13.812  17.647   4.908 -0.2335  0.1957  0.0734
31930W        W48114   2.312  11.167   2.261  0.0997 -0.2438  0.1413
31931W        W48115   4.367   5.688   3.591 -0.0698  0.3878  0.1625
31932W        W48116   5.104  12.638  15.551  0.2306 -0.1295 -0.0081
31933W        W48117   1.948   2.311  15.698 -0.0899 -0.3263  0.4419
31934W        W48118   9.571   4.669  12.502  0.0588 -0.5887  0.1137
31935W        W48119  13.023   9.031  12.566  0.0699  0.1921  0.0369
31936W        W48120   4.353  15.601   3.344  0.2039 -0.0934  0.2269
31937W        W48121   4.745   9.434  15.685  0.2192  0.1361 -0.0589
31938W        W48122   8.175  10.963   0.155 -0.0635 -0.0043 -0.0636
31939W        W48123  10.612   3.746  16.504 -0.1773  0.1274 -0.1830
31940W        W48124   0.883   8.596   4.079 -0.2222  0.2237 -0.0914
31941W        W48125   6.526  15.722  13.393  0.2128  0.2024 -0.0033
31942W        W48126  16.039   4.954  16.141  0.0037  0.2351  0.1107
31943W        W48127   3.044   3.966  15.931 -0.2429  0.1092  0.2528
31944W        W48128   2.104  11.358  16.284 -0.3735 -0.0591  0.1912
31945W        W48129   8.754   9.204  12.441  0.1658  0.1496  0.2439
31946W        W48130   9.131  10.634  13.109 -0.3078 -0.4000 -0.1816
31947W        W48131  16.610   7.892   2.710 -0.0862 -0.2879 -0.0361
31948W        W48132   0.113   1.010   3.075  0.3137  0.1768 -0.0187
31949W        W48133  12.859   6.220  16.091 -0.2453  0.1511  0.1608
31950W        W48134  13.466  14.622  11.372  0.4264 -0.0279  0.0030
31951W        W48135   4.627   7.952   0.221 -0.0239  0.0892 -0.0850
31952W        W48136  17.963   6.471   0.423 -0.0875 -0.1399  0.0663
31953W        W48137  11.336   3.327   3.374  0.0147 -0.1927 -0.4234
31954W        W48138  15.118  12.742   1.327 -0.0476  0.0287  0.0394
31955W        W48139   4.765   9.433   3.345 -0.0017 -0.2932 -0.0251
31956W        W48140  15.732   9.623   4.281 -0.1682  0.2496  0.1116
31957W        W48141  14.357   2.377  14.900 -0.0826  0.2033  0.2163
31958W        W48142  14.950   9.566  15.999 -0.0178 -0.0578 -0.0047
31959W        W48143  15.381  15.406   1.766 -0.0942 -0.0012  0.1181
31960W        W48144   4.147  16.762   0.206  0.2109  0.1071 -0.1981
31961W        W48145  15.382   8.217  16.608 -0.2659 -0.2244  0.0775
31962W        W48146   3.782  15.946  15.654  0.2913  0.4354 -0.1210
31963W        W48147   9.508   1.193  11.447 -0.0665  0.1366  0.0437
31964W        W48148   8.976   6.870   3.246  0.0178 -0.1021 -0.0736
31965W        W48149   7.985   5.531  11.400 -0.1204 -0.1316 -0.1213
31966W        W48150  15.548   2.116   2.454 -0.0511 -0.0977 -0.2170
31967W        W48151   8.469   6.388  16.126 -0.0132  0.1209 -0.2752
31968W        W48152  16.875  11.431   3.529 -0.1394 -0.0633 -0.0509
31969W        W48153  14.674  11.552   1.289 -0.0015  0.0957 -0.0191
31970W        W48154  16.660   1.195   4.900 -0.1800  0.3422  0.0687
31971W        W48155  14.174  11.753   1.429  0.0860 -0.4781 -0.1191
31972W        W48156   5.453   6.268   1.837  0.1034  0.1353 -0.0364
31973W        W48157  13.893  10.916  14.408 -0.0634  0.0591  0.0160
31974W        W48158  17.603   0.278   5.150  0.0162  0.0904  0.1673
31975W        W48159  10.046  10.914   3.202  0.2139 -0.0508  0.4118
31976W        W48160  17.888   0.191  11.742 -0.0417 -0.0028 -0.0021
31977W        W48161   6.346   2.420  14.631  0.4339  0.3567  0.4704
31978W        W48162   7.762   1.148   3.612 -0.0425 -0.1279  0.1842
31979W        W48163  12.177   6.804   1.736  0.1205  0.2203 -0.2204
31980W        W48164   7.087  16.722   3.443  0.0505  0.4494  0.0582
31981W        W48165  10.983  13.681   3.825 -0.1072 -0.2948 -0.0527
31982W        W48166  10.292   1.067  16.172  0.2847  0.0371  0.1958
31983W        W48167   0.419   9.733  11.689  0.0924  0.2789 -0.0910
31984W        W48168   1.511   1.931  16.668 -0.0300 -0.0229 -0.2730
31985W        W48169   1.425   9.846   6.699  0.1687  0.0086 -0.0610
31986W        W48170   0.083   9.324   1.664 -0.0314  0.0060 -0.0735
31987W        W48171  11.639   9.327  14.592  0.1934 -0.0679  0.0446
31988W        W48172   7.668  17.520  15.735  0.1112 -0.1879  0.0488
31989W        W48173   8.579   2.157   3.022  0.2138 -0.0949  0.1413
31990W        W48174  15.235   7.209   4.951  0.1396  0.3036 -0.0217
31991W        W48175  13.385   5.405  13.082 -0.2866  0.0753  0.0720
31992W        W48176   3.232  17.801  15.018 -0.0144  0.0960  0.1367
31993W        W48177   8.182   7.301   1.878 -0.1814  0.0373  0.2899
31994W        W48178   8.050   0.644   2.800 -0.2023  0.1303  0.1909
31995W        W48179  16.366   3.018  11.595 -0.2358 -0.2708  0.0009
31996W        W48180   6.469   6.515  10.864 -0.0988  0.0681  0.4376
31997W        W48181  10.874  11.943  16.410 -0.3479  0.2556 -0.0959
31998W        W48182  14.649   8.264   2.631  0.0056 -0.1851  0.1215
31999W        W48183   5.265   2.842   5.070  0.2660  0.4360 -0.2442
32000W        W48184   4.384   4.390  12.689 -0.0418  0.1477  0.0454
32001W        W48185  14.112   6.113   3.656 -0.0690  0.0846  0.1191
32002W        W48186  15.570   0.396  16.323  0.2360 -0.0844 -0.1590
32003W        W48187   6.204   1.705   0.173  0.0005  0.1640 -0.0986
32004W        W48188   2.590  15.638  13.761 -0.1382  0.1941 -0.0003
32005W        W48189   7.002   9.065   5.276  0.2766 -0.2277  0.1672
32006W        W48190  13.602   7.622   2.558  0.2217 -0.0551  0.1920
32007W        W48191  14.510  10.025   1.359 -0.0404 -0.1661 -0.0467
32008W        W48192  14.603   6.528   2.422  0.3417  0.3230  0.0593
32009W        W48193   2.728   3.093   2.181 -0.1022 -0.0265  0.1852
32010W        W48194   3.110   3.003  13.330 -0.2258  0.0478 -0.3030
32011W        W48195   4.109   2.196  15.410  0.1897 -0.1225  0.2422
32012W        W48196   3.180   7.934  15.659  0.1704 -0.0095  0.3047
32013W        W48197   5.012  16.639   5.255 -0.0320  0.1591  0.2245
32014W        W48198  17.491   7.586  16.260  0.1802 -0.1395 -0.0091
32015W        W48199  14.342   9.927   5.253 -0.2299  0.1179 -0.0287
32016W        W48200  11.142  17.426  15.699 -0.2291 -0.2840 -0.1290
32017W        W48201   4.229  14.879   4.552  0.1393 -0.4022  0.2994
32018W        W48202  14.133  11.514   5.471 -0.0251 -0.2147  0.0954
32019W        W48203  17.509  14.487   0.248  0.2760 -0.0742  0.0336
32020W        W48204   7.466  13.530   4.856 -0.2793  0.0398 -0.1306
32021W        W48205   3.388  11.277   3.379 -0.0710 -0.0387 -0.0637
32022W        W48206  12.763  16.793   3.609 -0.3693 -0.0459 -0.1885
32023W        W48207   9.540   3.741   0.621  0.2161 -0.3737 -0.4125
32024W        W48208  10.633  11.728   3.229 -0.2518  0.0767 -0.4270
32025W        W48209  13.936  10.025  15.637  0.0782  0.2844 -0.0576
32026W        W48210   8.065   4.283   5.238  0.1865 -0.3686  0.0294
32027W        W48211  17.026   3.888   1.112 -0.3070 -0.1480 -0.0305
32028W        W48212   4.719  15.987   2.522  0.0963 -0.2015  0.1317
32029W        W48213  14.465   5.376  13.939  0.0761 -0.2258 -0.0850
32030W        W48214   3.932   5.447   3.518  0.1667 -0.1852  0.3441
32031W        W48215   6.836  12.145  15.931  0.2651  0.0991  0.4178
32032W        W48216  11.272  10.661   2.063  0.0915 -0.0346  0.1164
32033W        W48217  16.464   2.199   1.253 -0.1034  0.0835  0.0383
32034W        W48218   0.002  16.692  13.118  0.4719  0.1016  0.2398
32035W        W48219  10.629   2.180   2.788  0.2647 -0.1357  0.0754
32036W        W48220  13.796  10.757  12.798 -0.1309 -0.0007 -0.1793
32037W        W48221  14.654  11.511   0.255 -0.0909  0.0208 -0.1404
32038W        W48222   2.752  14.302  14.499 -0.3543  0.0937  0.0385
32039W        W48223  11.926   5.072  16.082  0.0262 -0.2369 -0.0994
32040W        W48224  12.903   7.352  16.456 -0.1065  0.1752  0.1605
32041W        W48225   3.291   7.972  13.929 -0.0247 -0.2839 -0.2601
32042W        W48226  10.291   8.902   3.118  0.0381 -0.3215  0.4229
32043W        W48227   7.073   1.546  15.517  0.3801  0.2368 -0.0051
32044W        W48228   9.911  10.446   3.039  0.0463  0.1235  0.0108
32045W        W48229   0.499   0.292  12.934 -0.0217 -0.0095 -0.2894
32046W        W48230   5.950   4.778   5.717 -0.0572 -0.0393 -0.2197
32047W        W48231   5.822  17.023  15.473 -0.0186  0.0589 -0.0063
32048W        W48232   2.689   1.613  13.658 -0.1133  0.3990 -0.0010
32049W        W48233   0.086  14.389   1.673  0.1152  0.0718  0.3066
32050W        W48234  15.911  10.140  16.176  0.2391  0.3133  0.0499
32051W        W48235   9.739   2.861   3.523  0.1521  0.0723  0.0729
32052W        W48236   3.963   2.808  13.289  0.0756 -0.0939  0.3653
32053W        W48237   5.588   7.558  12.110 -0.1768 -0.0742  0.0647
32054W        W48238   9.307   8.825   3.396 -0.1790 -0.0573  0.1070
32055W        W48239  16.432   3.831  11.474  0.0501 -0.2327  0.2030
32056W        W48240   0.613  17.006   3.496  0.0055  0.2260 -0.4590
32057W        W48241   8.237   8.657   0.108 -0.2160 -0.0975 -0.0736
32058W        W48242  17.392   8.429  15.818  0.2237 -0.1570  0.0936
32059W        W48243   7.679  11.720   1.976 -0.0104  0.1374  0.2245
32060W        W48244   3.327   3.180   4.651  0.0391 -0.0139 -0.1338
32061W        W48245  16.298   9.463   5.376 -0.2594  0.4758  0.0332
32062W        W48246   1.875  12.043   3.359  0.0029  0.1591 -0.1283
32063W        W48247  17.886  12.667  13.810  0.0659  0.2431  0.2782
32064W        W48248   5.412  14.942   4.853  0.0499 -0.1088  0.0656
32065W        W48249  10.424   3.345   3.949  0.2037  0.0476  0.1830
32066W        W48250   6.862   7.625   0.088 -0.1170 -0.0487  0.1592
32067W        W48251  12.931   9.999  15.913 -0.0035 -0.0845  0.3163
32068W        W48252  13.158   2.979   3.618  0.0788  0.2582 -0.0764
32069W        W48253   1.309   7.141  13.937  0.2020 -0.1990 -0.0837
32070W        W48254  12.581   4.189   0.437 -0.2685  0.1231  0.0895
32071W        W48255   6.106   2.803   2.025  0.0628 -0.0365  0.0403
32072W        W48256   4.530   4.498   1.230  0.0785  0.0432  0.1857
32073W        W48257   2.471   4.445   3.190  0.0587 -0.1630  0.2339
32074W        W48258   3.947   4.706  15.660 -0.1587 -0.1261 -0.1799
32075W        W48259  15.290   5.858  12.450  0.0930  0.1036  0.3354
32076W        W48260   5.004   2.817  15.941 -0.1722 -0.0685  0.1010
32077W        W48261  17.188   0.478   4.012 -0.0357 -0.1216 -0.0232
32078W        W48262  15.968  11.384  13.154  0.0154 -0.2596 -0.2445
32079W        W48263   0.836  11.497   4.696 -0.0779  0.1093 -0.0432
32080W        W48264   9.999  13.912   5.810  0.0058 -0.0022  0.1390
32081W        W48265  12.189  15.675  12.505 -0.0904  0.0189 -0.0017
32082W        W48266   2.932   0.330  15.726 -0.0456 -0.0859 -0.3125
32083W        W48267  11.354  11.258   3.119  0.1940 -0.0240  0.2991
32084W        W48268  14.392   4.139   3.108  0.3946  0.2697 -0.3210
32085W        W48269  15.986   8.722   3.516  0.1501  0.0534  0.0601
32086W        W48270   7.784   2.964  13.413  0.0777  0.2008 -0.2007
32087W        W48271   5.503  11.430  11.791 -0.0711 -0.4151 -0.2228
32088W        W48272   0.771  17.323   2.603 -0.0180 -0.0669  0.7097
32089W        W48273   1.691  10.236  12.382 -0.0692  0.1147 -0.0610
32090W        W48274   0.222   9.336  14.863 -0.2360 -0.1650  0.0024
32091W        W48275   6.880  14.554   2.943  0.0894 -0.1542 -0.0271
32092W        W48276   9.547  11.025  12.124  0.4174 -0.3329 -0.2561
32093W        W48277   8.919  15.789   1.800  0.0953  0.0615 -0.0498
32094W        W48278  13.321  16.642   0.352  0.1521 -0.0944  0.2169
32095W        W48279  17.409   5.096   3.801  0.0681 -0.0297 -0.1139
32096W        W48280  14.539   0.487   0.382  0.1699 -0.3432 -0.1391
32097W        W48281   6.221   3.914   4.965 -0.0392  0.0424 -0.1394
32098W        W48282  15.477  10.187  14.842  0.1214 -0.1122 -0.1746
32099W        W48283  14.875  15.062  14.589 -0.0866  0.0014  0.3674
32100W        W48284   8.634  17.836  12.110 -0.0652  0.2628 -0.1807
32101W        W48285   5.909  17.553  12.548 -0.0381  0.2273  0.2874
32102W        W48286  11.695  13.588  11.291 -0.3402  0.3440 -0.1613
32103W        W48287  14.275   5.176  15.252 -0.0510 -0.1054  0.2610
32104W        W48288   2.076   5.799  11.876 -0.0494  0.0406  0.3056
32105W        W48289   6.393  14.931  11.951  0.1337 -0.0963 -0.0782
32106W        W48290  15.100  10.962   4.381 -0.0377 -0.2549 -0.0616
32107W        W48291  16.897  14.446  16.241  0.1478 -0.1253 -0.0021
32108W        W48292  12.530  13.289   0.323  0.2988 -0.0769 -0.4578
32109W        W48293   5.755  15.859   2.026  0.2597 -0.0159 -0.3883
32110W        W48294   3.993  17.285   2.912 -0.1253 -0.1378  0.2525
32111W        W48295  13.439   5.708   0.053 -0.0475  0.2625  0.0567
32112W        W48296  13.459   4.419   2.429 -0.3550 -0.1170 -0.0675
32113W        W48297  11.016   0.941   0.412 -0.1973 -0.2422  0.2224
32114W        W48298   7.342   4.694  14.489 -0.3042 -0.1744 -0.1590
32115W        W48299  10.429  11.318  14.703 -0.1591 -0.0641 -0.3766
32116W        W48300  17.269   5.841   1.340  0.3669 -0.2676 -0.0112
32117W        W48301  14.786  15.753  15.284  0.0666  0.2603 -0.2095
32118W        W48302   4.441  15.747   4.438  0.1347 -0.2226 -0.2326
32119W        W48303  13.756   1.414   4.040  0.0875  0.0174 -0.4546
32120W        W48304   1.094   8.382  15.052  0.0083 -0.1035 -0.3192
32121W        W48305   8.158   4.682  16.032  0.2760  0.1292  0.2730
32122W        W48306  13.815   7.263  13.972 -0.4302 -0.1441  0.2147
32123W        W48307  11.578  12.756  11.810 -0.0750  0.0460  0.0584
32124W        W48308   8.284   2.987   4.973 -0.0890 -0.2923 -0.0710
32125W        W48309   9.674   6.816   4.171 -0.0373  0.1199  0.0900
32126W        W48310  12.790   5.966   1.738 -0.1805  0.0651  0.1837
32127W        W48311   6.358   8.231   5.730 -0.1497 -0.0492  0.2109
32128W        W48312  13.584  15.169   4.287 -0.0611  0.0057  0.0613
32129W        W48313  14.106   2.990   3.186 -0.1831  0.1050 -0.2566
32130W        W48314  16.714  17.077   6.564 -0.0967  0.1091  0.0513
32131W        W48315   6.087   4.758  13.065  0.1119 -0.0570 -0.0895
32132W        W48316  12.335   1.661   1.108  0.2209  0.0383  0.0630
32133W        W48317   1.245  11.818  14.467 -0.0866  0.1991 -0.1905
32134W        W48318   2.943   9.457  10.752 -0.3586 -0.3614 -0.0057
32135W        W48319   7.092   2.362   2.064  0.2475 -0.1591  0.0916
32136W        W48320   2.959   7.426   3.541  0.0571 -0.0921  0.2020
32137W        W48321  15.711   9.361   1.303 -0.1722 -0.0767 -0.1368
32138W        W48322  16.055   4.617  11.574  0.1768  0.0492 -0.3915
32139W        W48323   9.694   5.770   4.305 -0.1778  0.1807 -0.0157
32140W        W48324   1.770  16.207   1.115 -0.1879  0.0823 -0.0566
32141W        W48325   2.932   0.803  10.678  0.1406 -0.2959  0.0444
32142W        W48326   4.709   3.010  12.961 -0.2261 -0.0672  0.1491
32143W        W48327   4.521   2.511  14.224 -0.0295 -0.2572 -0.0592
32144W        W48328   2.174  14.127  11.385  0.2417  0.2598 -0.0336
32145W        W48329   8.268   2.538  16.603 -0.2479  0.1173  0.3311
32146W        W48330   0.108   0.955   2.217  0.0759  0.0080  0.0908
32147W        W48331  17.927   5.029  14.650  0.0131  0.0075  0.2247
32148W        W48332  11.015  16.047   4.879 -0.0255  0.0820 -0.3211
32149W        W48333   8.398  15.880   4.892  0.0653 -0.3026  0.2569
32150W        W48334  11.616   5.237  13.015 -0.2163  0.3852  0.0850
32151W        W48335   3.827  12.827  15.960 -0.1702 -0.0856 -0.3914
32152W        W48336  11.342   1.124   4.429 -0.0184  0.5901 -0.0473
32153W        W48337   4.069  10.900   2.245  0.0546 -0.5260 -0.0152
32154W        W48338  10.759  13.332  15.709 -0.1742  0.0517  0.0615
32155W        W48339   0.372   4.863   3.507 -0.0174 -0.0445 -0.0103
32156W        W48340  11.852   4.554  10.451 -0.0391  0.3198  0.2264
32157W        W48341   9.893   9.703   4.503  0.1900 -0.2385  0.1727
32158W        W48342  14.061   9.220   1.563 -0.2701 -0.1189  0.2797
32159W        W48343   6.088   0.696   1.452 -0.1200 -0.0080 -0.1254
32160W        W48344  10.280   9.551  16.047 -0.0513 -0.1510  0.0240
32161W        W48345  11.775  12.686   0.479  0.0823  0.2102 -0.5038
32162W        W48346   2.606  12.436  15.193 -0.0551 -0.1874  0.0952
32163W        W48347   2.240   1.594  13.884  0.0529  0.0871  0.1564
32164W        W48348  15.768  12.222  15.792  0.2591 -0.0718  0.0183
32165W        W48349   6.347  17.402  14.854  0.4204 -0.2568 -0.1728
32166W        W48350   0.784  16.499   1.094  0.1365 -0.1618 -0.1554
32167W        W48351  17.173  14.485  11.401  0.3701 -0.3243 -0.0991
32168W        W48352  14.869  10.734   2.287  0.1759 -0.0437  0.2112
32169W        W48353  13.316  16.785  14.309 -0.0730  0.2497  0.2015
32170W        W48354   8.713   8.601   0.922  0.0843 -0.1411 -0.0567
32171W        W48355   1.035   5.300  16.500  0.3413  0.0698 -0.0583
32172W        W48356  11.622   5.312   4.100  0.1557  0.0360  0.0428
32173W        W48357   4.222  16.272   1.356  0.1323 -0.2107  0.0953
32174W        W48358   4.519   2.869   4.966  0.2048  0.2267  0.1804
32175W        W48359   7.628   4.232   5.491 -0.3532 -0.3117 -0.1847
32176W        W48360  16.992  14.189  12.602  0.1678  0.4335  0.1194
32177W        W48361   3.701  12.027   1.156  0.0817  0.3161  0.1650
32178W        W48362   5.166   2.332   4.711  0.1682  0.1980  0.2429
32179W        W48363   3.344  12.364  14.994  0.1246  0.2720  0.0616
32180W        W48364   7.246   0.937   6.320  0.0588 -0.1271  0.1272
32181W        W48365   0.686  15.074   1.318 -0.1155 -0.0261  0.0519
32182W        W48366   1.034   0.059  14.641  0.1112  0.2431  0.2097
32183W        W48367   6.019   6.169  16.152 -0.1933  0.3569  0.1762
32184W        W48368  13.790   3.748   4.764 -0.2216  0.0315  0.0117
32185W        W48369   9.423   9.937   5.653  0.0769 -0.0124  0.2119
32186W        W48370   2.880   6.529  13.007  0.1497 -0.0725  0.3870
32187W        W48371   3.288  14.222  15.451 -0.4703 -0.1145 -0.3125
32188W        W48372   6.960   6.256  13.108  0.2405 -0.1284  0.0756
32189W        W48373  14.510   9.002   6.235 -0.1023  0.2242  0.0620
32190W        W48374   9.514  17.874  13.473  0.2693  0.3337  0.0383
32191W        W48375   3.218  10.207  16.577 -0.1769  0.2538 -0.0993
32192W        W48376   6.997  10.647  11.691  0.0803  0.5189  0.0392
32193W        W48377  13.461   3.616   4.203  0.1221 -0.2351 -0.0253
32194W        W48378  11.378   4.675   4.810 -0.0352 -0.2224 -0.1078
32195W        W48379   2.818   5.460   5.345 -0.1483 -0.2239  0.0214
32196W        W48380   9.785  11.199   1.017  0.1135  0.0522  0.2409
32197W        W48381  17.469   7.316   2.578  0.1439 -0.3624  0.3019
32198W        W48382   2.362  15.818  14.218 -0.1257 -0.1417 -0.0619
32199W        W48383   5.617   8.570  12.203  0.0259 -0.0594  0.1142
32200W        W48384  14.476   8.634  15.874 -0.0133 -0.2130 -0.0435
32201W        W48385  11.094   0.381   2.871  0.0225 -0.0145  0.2413
32202W        W48386  14.315  12.682  15.382 -0.0073 -0.0803 -0.0640
32203W        W48387  17.116  12.381   5.496  0.0184 -0.2198 -0.1122
32204W        W48388  11.169  15.764   0.755  0.3749  0.2240 -0.2672
32205W        W48389   8.345   4.690   1.868 -0.0396  0.1492  0.0731
32206W        W48390  10.735   3.022  14.413  0.1471 -0.1755  0.0840
32207W        W48391  17.590  16.480  16.534  0.0509 -0.0649 -0.0240
32208W        W48392  11.370   1.526  12.672 -0.0264  0.0941  0.1186
32209W        W48393  12.598  12.734  15.235  0.0820 -0.3033 -0.0619
32210W        W48394   7.432   2.657   2.350 -0.0740  0.1152 -0.2369
32211W        W48395  16.152  16.086   1.864 -0.0959 -0.0499 -0.1498
32212W        W48396   4.169   8.129   1.709  0.1916 -0.0322 -0.0947
32213W        W48397  13.001   6.693   5.647 -0.1544 -0.1951 -0.1634
32214W        W48398  13.393  11.825  14.791  0.0813 -0.4286 -0.2358
32215W        W48399  13.532  10.028   2.856 -0.2217 -0.2029  0.0948
32216W        W48400   5.614   1.429  16.481  0.0503 -0.0910  0.0991
32217W        W48401  12.959  16.905   0.030  0.3001  0.2252  0.0671
32218W        W48402  17.258  15.631   3.124 -0.0350 -0.1165  0.1716
32219W        W48403  10.603   0.023   2.023 -0.2064 -0.2254  0.1639
32220W        W48404  14.732   9.820  16.403  0.1711  0.2006  0.0814
32221W        W48405  15.285  11.062  11.514 -0.3094  0.1269  0.1402
32222W        W48406   4.660   6.502  13.951  0.2223  0.2466  0.0147
32223W        W48407  10.047   8.999  14.343  0.3231 -0.0701  0.2064
32224W        W48408   7.941   5.660  13.706 -0.2273 -0.0172  0.0099
32225W        W48409   2.128  17.838   5.512 -0.2459 -0.0567  0.1262
32226W        W48410   3.624  10.404  14.338  0.0020 -0.0592  0.0999
32227W        W48411  12.326   6.433  12.447 -0.0073  0.0427 -0.3124
32228W        W48412   4.000  15.330   2.201  0.0261  0.0182 -0.1173
32229W        W48413   2.557   6.430  12.254 -0.2249 -0.1586 -0.0300
32230W        W48414   6.193   3.930   2.204  0.2260  0.2574  0.0989
32231W        W48415  10.486  12.742   0.726  0.2374  0.0738  0.0830
32232W        W48416  14.616   8.517   1.359 -0.3485  0.2037 -0.2507
32233W        W48417   1.529  17.264   5.820  0.0064  0.0860  0.1260
32234W        W48418   4.850   9.454  15.138  0.0822 -0.3841  0.1943
32235W        W48419   6.890  11.642   3.338 -0.1084 -0.1747 -0.1580
32236W        W48420  15.672  11.798  13.210  0.0883  0.1825  0.0556
32237W        W48421   6.605   2.905   5.112  0.0683  0.1533  0.4846
32238W        W48422  10.199   1.162  14.053  0.2683  0.0480  0.1882
32239W        W48423   9.647   8.932  14.682  0.0252 -0.2059 -0.0811
32240W        W48424   9.944  17.462   5.016 -0.1218  0.1900  0.1700
32241W        W48425  12.556   3.073   4.946  0.1470 -0.0194  0.1405
32242W        W48426   9.135  11.830  14.546 -0.1075  0.3748  0.0259
32243W        W48427  12.463  15.138  15.600  0.1432  0.2817  0.0289
32244W        W48428   7.704   3.727  14.546 -0.0100  0.0106 -0.0807
32245W        W48429  12.119  14.618   3.440  0.0935 -0.1107  0.1939
32246W        W48430   8.252  13.072  13.862  0.2188 -0.1860 -0.0670
32247W        W48431  11.839  11.123  11.538  0.0834  0.2110 -0.2118
32248W        W48432   3.970   5.464  15.194 -0.1926  0.0698 -0.0303
32249W        W48433   0.386  14.185  16.690 -0.1491 -0.1035  0.1787
32250W        W48434   2.897   5.003   5.473  0.1494  0.3186 -0.0571
32251W        W48435  13.085   5.807   4.011  0.0037  0.0763  0.0057
32252W        W48436   9.210   8.059   4.414 -0.0990  0.0454 -0.1681
32253W        W48437   5.211  12.421   0.195 -0.0700 -0.1497  0.1900
32254W        W48438   2.068   2.748   5.187 -0.2553 -0.0394 -0.0117
32255W        W48439  16.627  16.131   0.876  0.0937  0.1513  0.1698
32256W        W48440  17.300   4.487   2.913  0.0230 -0.0252 -0.1788
32257W        W48441  12.119  17.039  14.877  0.2377  0.1065  0.0891
32258W        W48442  12.199  17.788   0.767  0.0369 -0.2061  0.0378
32259W        W48443   3.051   7.143   5.533 -0.0731  0.0580 -0.2370
32260W        W48444  13.792  11.341   2.453  0.1904  0.1779  0.1564
32261W        W48445   5.870   6.564  11.879  0.0180  0.0878 -0.1203
32262W        W48446   1.811   0.664   2.893 -0.4023  0.1735 -0.1183
32263W        W48447  15.460  17.137   3.057 -0.0994  0.1050  0.0150
32264W        W48448   2.010  17.095   2.165 -0.1650 -0.1765  0.2187
32265W        W48449   7.241   9.125  13.105  0.0033 -0.0863 -0.3567
32266W        W48450   9.292   1.920   4.560  0.1188 -0.3125 -0.1847
32267W        W48451   3.543   1.751   1.206 -0.0135  0.0070  0.2044
32268W        W48452  11.579   4.122  14.559 -0.0554  0.3435 -0.1102
32269W        W48453  17.500  17.091   3.200 -0.2211  0.2312  0.0257
32270W        W48454   6.636  13.038  12.023 -0.1583 -0.1439 -0.2313
32271W        W48455  15.028   6.746  15.341 -0.1166  0.0806 -0.1633
32272W        W48456   9.970  10.698   0.134 -0.1948  0.1670 -0.2448
32273W        W48457   8.052  15.133  13.125  0.2260  0.1392 -0.1069
32274W        W48458  13.574   6.197  13.847  0.1865  0.1328 -0.0609
32275W        W48459  16.617   9.605   0.834 -0.2576  0.0103 -0.0622
32276W        W48460   6.298   2.433   4.340 -0.0403  0.1357  0.0209
32277W        W48461  11.921   3.054   1.808 -0.1595  0.0258 -0.3006
32278W        W48462   2.078   6.446  13.815 -0.1488  0.2213  0.1988
32279W        W48463  14.592   1.674  15.063  0.2304  0.3427  0.0328
32280W        W48464  13.022  15.413  16.312  0.0210 -0.3635 -0.3121
32281W        W48465  11.626  14.839   4.401 -0.1527  0.1506 -0.1593
32282W        W48466  15.867   8.585   2.994 -0.1253  0.1465  0.0424
32283W        W48467  13.697  16.980  16.069  0.2043  0.3157 -0.2033
32284W        W48468   9.210  13.818  12.910  0.1836 -0.0807  0.2611
32285W        W48469   9.731   2.098  14.919  0.1059  0.1027  0.1802
32286W        W48470  14.261  13.963  15.881  0.1406 -0.0574  0.1640
32287W        W48471  11.188  17.618  11.539 -0.0031 -0.0457 -0.1232
32288W        W48472   7.559   0.562   2.808 -0.0380  0.2711  0.0856
32289W        W48473   7.751   6.494   1.628 -0.2556 -0.0176 -0.2983
32290W        W48474   7.430   0.030  15.763  0.1271  0.1238  0.1299
32291W        W48475   9.517   4.141  12.332  0.0705 -0.3754  0.1976
32292W        W48476   4.004   6.317   4.745  0.1295  0.2729  0.0837
32293W        W48477   5.607   2.846   1.285 -0.1382 -0.2166 -0.2125
32294W        W48478   6.634   8.144   2.851  0.3302 -0.1078  0.2128
32295W        W48479  14.347  10.785  13.403  0.2647 -0.2733 -0.1748
32296W        W48480  16.775   1.660   5.178  0.2500  0.0263  0.0163
32297W        W48481   4.746  12.305  11.424  0.2478  0.0230  0.0618
32298W        W48482   6.228   0.678   6.109  0.0888  0.2981  0.4028
32299W        W48483  17.025  10.805   1.021 -0.3859 -0.0528  0.1207
32300W        W48484  12.944   4.007   4.080  0.3098  0.0634 -0.1748
32301W        W48485  16.541  10.691  10.131 -0.3528  0.2911  0.2112
32302W        W48486  13.924   2.188  13.779  0.1571 -0.3354  0.0885
32303W        W48487   2.660   0.879  11.601 -0.1608  0.0039  0.0924
32304W        W48488   3.361   7.433   6.719 -0.1535  0.0243 -0.0147
32305W        W48489  11.720  11.265   2.473 -0.0017 -0.0049 -0.0067
32306W        W48490   5.300   5.796   3.466 -0.0913 -0.2696 -0.0498
32307W        W48491   3.602  17.905   2.764 -0.3255 -0.2745 -0.4854
32308W        W48492   0.959   0.591  11.669  0.1242  0.4114  0.3572
32309W        W48493   4.702   6.018  16.286 -0.2195  0.1683  0.1026
32310W        W48494   3.883   6.782   6.274  0.3876  0.1088 -0.0692
32311W        W48495   7.765  16.109   3.633 -0.1676 -0.2769 -0.1102
32312W        W48496  14.177  11.533   0.948 -0.0651 -0.0066  0.2319
32313W        W48497   1.312   8.571  14.034  0.0898 -0.3305 -0.1166
32314W        W48498  15.797  13.510   6.043  0.1080 -0.0661  0.0415
32315W        W48499  10.186   3.860  16.243  0.0760  0.0226  0.0764
32316W        W48500   0.320   0.723   2.673  0.4921 -0.0477  0.1411
32317W        W48501  10.000   5.950  16.289 -0.2213 -0.0963  0.1327
32318W        W48502   0.372   6.109   3.812 -0.2708 -0.1087 -0.1170
32319W        W48503  17.818   9.911   4.318 -0.1059  0.2541  0.0118
32320W        W48504  16.989   8.147  12.402  0.0817  0.1125  0.1454
32321W        W48505   8.573   7.884   2.614 -0.0391 -0.0463 -0.2914
32322W        W48506   0.938  17.655   2.999 -0.0346  0.2092 -0.4087
32323W        W48507   4.523   7.471  14.560  0.2359  0.1685  0.2911
32324W        W48508   1.720   7.219  14.175  0.0170 -0.0144  0.0441
32325W        W48509   3.791  14.157  13.403 -0.2510  0.0193 -0.0891
32326W        W48510   4.002   0.032   3.603 -0.0209 -0.2713 -0.0648
32327W        W48511   6.725   4.547  15.398  0.1666  0.0350  0.2187
32328W        W48512  15.300  16.101   4.535 -0.3214 -0.3136  0.1789
32329W        W48513  11.530   9.181   4.386 -0.3194  0.0585  0.0878
32330W        W48514  10.565   8.434   5.562  0.0067 -0.0189  0.2590
32331W        W48515   9.458   1.798   2.602 -0.1186  0.1684  0.0122
32332W        W48516  10.187  14.916  16.435  0.1448  0.0687  0.0865
32333W        W48517   4.957   3.130   4.734  0.1270 -0.0518  0.1714
32334W        W48518   2.842   7.807  14.113  0.3086  0.0390  0.0432
32335W        W48519   8.131   8.296   1.223 -0.0195  0.1932  0.1855
32336W        W48520   7.746   7.300  16.150  0.2812 -0.2904 -0.0985
32337W        W48521  15.197   6.297   1.817  0.0773  0.1715 -0.2968
32338W        W48522   6.727   7.192   2.918  0.2492 -0.1987 -0.6534
32339W        W48523   6.844   3.516   1.729  0.0038 -0.0767 -0.0421
32340W        W48524  11.106   4.688  14.283 -0.0198 -0.1500 -0.1725
32341W        W48525   2.668  13.159   1.378 -0.1243  0.0755 -0.1484
32342W        W48526   1.972   8.624  13.484  0.2480 -0.4430  0.0859
32343W        W48527   4.744   8.667   4.852 -0.0751 -0.0769 -0.0698
32344W        W48528   1.211  13.988  14.911 -0.1849  0.0081  0.4218
32345W        W48529   1.712  12.130   3.866 -0.0889 -0.0073 -0.1630
32346W        W48530   2.551   6.353   3.695 -0.1049  0.0619  0.2039
32347W        W48531  14.215   6.622  16.185 -0.0745  0.1921  0.0042
32348W        W48532  15.558   7.125   3.220 -0.0503  0.1626 -0.1582
32349W        W48533   5.853  16.721  13.225  0.1427 -0.2608  0.1131
32350W        W48534  14.532   3.138  14.907  0.3689  0.2446 -0.3307
32351W        W48535   9.410   6.607  15.450 -0.1048 -0.1358  0.0928
32352W        W48536  13.007   3.135   1.480  0.0688  0.2070  0.1277
32353W        W48537   1.106  15.209  14.098  0.0295 -0.0536  0.0367
32354W        W48538  17.409  13.816  16.642 -0.2384  0.0498 -0.0563
32355W        W48539   1.226  16.391   5.105  0.1703 -0.0713 -0.4012
32356W        W48540   1.743   3.764  11.756 -0.1668 -0.1396 -0.2581
32357W        W48541   2.919  16.225   0.160  0.0011 -0.1489 -0.0986
32358W        W48542  15.775   7.021   3.709  0.1497  0.2182 -0.1144
32359W        W48543   3.120  13.760   5.541 -0.0998  0.3278  0.0676
32360W        W48544   3.594  10.110   1.085 -0.3116 -0.1746  0.0216
32361W        W48545  17.780   6.461   1.685 -0.1063 -0.3315 -0.2739
32362W        W48546  14.080   3.306  15.022 -0.0611  0.1361  0.0091
32363W        W48547  14.203  10.191   2.210 -0.0825  0.0415 -0.0026
32364W        W48548   3.078  16.819   2.163  0.1785  0.1978 -0.1088
32365W        W48549  16.688   2.876   4.842  0.1316  0.1763  0.2073
32366W        W48550  12.535  15.713   0.980  0.3426  0.1514  0.0290
32367W        W48551   7.096   8.811   4.109  0.0748  0.0717  0.3114
32368W        W48552  16.833   1.294  14.558 -0.0445  0.0351 -0.3054
32369W        W48553   9.919   9.072  11.637 -0.3074  0.0800 -0.0994
32370W        W48554  14.050   5.615   1.145  0.0352 -0.0254  0.1880
32371W        W48555   4.327   2.046  14.404 -0.1387 -0.2238 -0.1266
32372W        W48556   6.538   0.013   5.162 -0.1363  0.1615 -0.0390
32373W        W48557   3.935   7.034   5.788  0.0396  0.0328 -0.1421
32374W        W48558   7.425   3.142  14.083  0.1305 -0.0069  0.4915
32375W        W48559  10.994   4.032  12.374  0.1095  0.1663  0.1426
32376W        W48560   9.726   6.490   5.873 -0.0403  0.1799 -0.0995
32377ION     NA48561   7.091   1.969  16.203 -0.0235  0.0312 -0.0203
32378ION     NA48562  12.441   8.795   2.932  0.1354 -0.1512  0.0481
32379ION     NA48563   7.313  12.610  10.802 -0.2387  0.0671  0.3115
32380ION     NA48564   7.244   9.587  11.029  0.2770 -0.1684  0.1642
32381ION     NA48565  13.796  17.311  10.502  0.0432 -0.2892  0.1927
32382ION     NA48566   9.768   0.663  13.182 -0.3912 -0.1526  0.0755
32383ION     NA48567  11.833   5.843  10.877 -0.1252  0.0897  0.0947
32384ION     NA48568   1.230   3.003   3.844  0.0467  0.0154  0.1481
32385ION     NA48569   8.132  16.428   5.829  0.1537 -0.3771 -0.1012
32386ION     NA48570  10.067   5.018  16.087 -0.1949 -0.0304  0.0040
32387ION     NA48571  15.700   7.667  10.568  0.0482  0.0855  0.1397
32388ION     NA48572  15.150   8.531  11.096  0.1381 -0.0017 -0.3788
32389ION     NA48573   7.296   1.929   5.581  0.2715 -0.1356  0.2402
32390ION     NA48574   7.915  12.616   2.607 -0.1778 -0.0517 -0.1369
32391ION     NA48575  16.043   3.740   0.731 -0.0476 -0.2094 -0.0730
32392ION     NA48576  17.218   8.775  10.413  0.0411  0.0677  0.1167
32393ION     NA48577   9.932   4.387   5.839  0.0081  0.1156 -0.3846
32394ION     NA48578   9.124   0.861   6.114 -0.2658 -0.0892  0.1640
32395ION     NA48579  14.036   7.923   5.413 -0.2029 -0.1089  0.1123
32396ION     NA48580  16.289   0.858   6.098 -0.1534  0.0464  0.1347
32397ION     NA48581   9.358  16.463  10.731 -0.2846  0.0229 -0.2529
32398ION     NA48582   6.470   6.383   0.079  0.1613 -0.1496  0.2381
32399ION     NA48583   1.687  12.180  10.716  0.0594 -0.3920  0.2913
32400ION     NA48584  10.097   0.579   5.788  0.0643  0.1665  0.3225
32401ION     NA48585   3.382   1.190   5.977  0.1250  0.1799 -0.0177
32402ION     NA48586  15.435   6.186  13.785 -0.1132  0.1364  0.0298
32403ION     NA48587   1.005  14.565  10.571  0.0592  0.0061 -0.0171
32404ION     NA48588   9.871  15.703  10.665  0.4328  0.0797 -0.1125
32405ION     NA48589   0.066  13.929  10.578  0.0900 -0.0230  0.3072
32406ION     NA48590   3.622   6.463  11.183  0.0971 -0.1642  0.1155
32407ION     NA48591  11.407   4.007  12.738 -0.2681 -0.0104 -0.0521
32408ION     NA48592  13.031   7.565   5.868 -0.0014 -0.0097  0.1783
32409ION     NA48593  12.368   1.065   6.187 -0.2644  0.1282  0.1052
32410ION     NA48594   5.974   9.661   6.119 -0.1179  0.0836  0.2872
32411ION     NA48595  15.097   0.121  10.410  0.2756  0.1704 -0.0527
32412ION     NA48596   3.278   9.797   6.006  0.1582 -0.0648 -0.0810
32413ION     NA48597  13.764   1.403  10.641  0.2309 -0.1384  0.0131
32414ION     NA48598  11.713  13.309  16.498  0.1256 -0.1442  0.0243
32415ION     NA48599   9.504   6.051  10.914 -0.2841  0.3610  0.0310
32416ION     NA48600   7.456   2.553  10.959 -0.2155 -0.0360 -0.2440
32417ION     NA48601   3.881   2.415  10.682 -0.1000  0.1639 -0.2344
32418ION     NA48602  17.238   4.604  10.570  0.2248 -0.1111  0.1092
32419ION     NA48603  10.447   5.701  14.979 -0.1994  0.0690 -0.3212
32420ION     NA48604  16.401  12.434   2.135 -0.2886  0.0186 -0.0436
32421ION     NA48605  16.682  16.833  12.219  0.0899 -0.0338  0.0810
32422ION     NA48606   5.289   7.527  11.209  0.1756 -0.1703 -0.3128
32423ION     NA48607   6.658  14.611  10.532  0.0504 -0.0075  0.0538
32424ION     NA48608  10.943   2.351   3.435 -0.0206 -0.0552  0.3294
32425ION     NA48609   3.392  15.151   4.877 -0.2111  0.1632  0.0143
32426ION     NA48610   4.584  10.296  10.755 -0.0456 -0.5004  0.2790
32427ION     NA48611  14.750  11.351  15.290  0.1764  0.3388  0.1338
32428ION     NA48612   0.332   2.152  15.237 -0.0746 -0.1807 -0.0571
32429ION     NA48613  15.383  12.192  10.944 -0.1089 -0.0163  0.4067
32430ION     NA48614  10.699  12.884  10.961 -0.0049  0.2024 -0.0640
32431ION     NA48615   0.172  17.290   6.162 -0.0706 -0.0835 -0.0231
32432ION     NA48616   6.768  11.737   2.338 -0.3288 -0.0331 -0.2018
32433ION     NA48617   5.036   3.267   1.482  0.1133  0.2165 -0.0340
32434ION     NA48618   3.850  17.404  14.187  0.0254 -0.0484  0.0345
32435ION     NA48619  11.627  10.692  10.880  0.0675  0.0238 -0.0919
32436ION     NA48620   4.380   0.582  10.462 -0.6115 -0.0186 -0.3266
32437ION     NA48621  11.176   0.909  10.633  0.3614 -0.0876  0.0101
32438ION     NA48622  13.345   5.456   5.773  0.1115 -0.0772  0.0624
32439ION     NA48623  12.421  17.759   4.277  0.0963 -0.1674  0.3025
32440ION     NA48624   1.077   2.876   6.267 -0.1306 -0.0293 -0.1783
32441ION     NA48625  16.624   7.302   6.164  0.0254 -0.1995  0.3163
32442ION     NA48626  15.489   6.617   2.401  0.0598 -0.3673 -0.0454
32443ION     NA48627   7.226   8.384  11.009 -0.0308  0.0557  0.0286
32444ION     NA48628   8.378  12.530  10.818 -0.0980 -0.3938  0.0810
32445ION     NA48629   0.882   6.613   5.900 -0.0012  0.0906 -0.1740
32446ION     NA48630   8.887   4.597   6.204  0.2500  0.0555  0.0988
32447ION     NA48631   7.609   4.161  14.263  0.2472 -0.1294  0.2382
32448ION     NA48632  11.623  14.406   5.820 -0.3111  0.0003  0.1352
32449ION     NA48633   7.529  15.055  10.543  0.2438  0.0733 -0.1268
32450ION     NA48634   1.486  16.383  10.047 -0.1337  0.0767  0.2234
32451ION     NA48635  11.968   5.505   1.745 -0.1436 -0.0449 -0.0533
32452ION     NA48636  16.317   8.590  15.341 -0.3832  0.1164 -0.0208
32453ION     NA48637  10.897  14.250   6.005  0.0153 -0.2751  0.0969
32454ION     NA48638   5.853  14.952  10.776 -0.1659 -0.0212  0.2220
32455ION     NA48639  14.745   9.788  10.931 -0.0146 -0.0870  0.0006
32456ION     NA48640   4.837   5.612  11.298 -0.3118  0.0820 -0.4046
32457ION     NA48641   0.253   6.045  10.771  0.3471  0.1534  0.3003
32458ION     NA48642   3.711  15.671  10.443  0.0151  0.0855 -0.3726
32459ION     NA48643   0.641   7.652  10.756 -0.0761  0.0298 -0.3220
32460ION     NA48644   6.117   2.332  10.827  0.1820  0.1223 -0.1874
32461ION     NA48645   9.707  17.731   5.920  0.1475 -0.1052 -0.2892
32462ION     NA48646  12.425   3.247   1.689  0.0165  0.2253  0.2666
32463ION     NA48647   0.965  14.509  11.330 -0.0236 -0.1386  0.3637
32464ION     NA48648   4.358   3.659  11.061 -0.2144 -0.1476 -0.0741
32465ION     NA48649   8.706   8.638   0.324  0.1616 -0.1424  0.0313
32466ION     NA48650   4.750   4.357  11.097  0.1049 -0.1912 -0.1535
32467ION     NA48651  17.425  16.253   6.104  0.2861  0.0230  0.0831
32468ION     NA48652  10.974   6.571  15.128  0.0255 -0.0676 -0.0653
32469ION     NA48653   2.336   9.223  15.703  0.1165  0.0442  0.2648
32470ION     NA48654   0.592   3.740   6.298 -0.0992 -0.0479  0.0211
32471ION     NA48655  11.563   4.192   3.575  0.1377 -0.0625 -0.3596
32472ION     NA48656   3.726   0.145  16.327 -0.1708 -0.1418 -0.3535
32473ION     NA48657   7.968  15.709  10.886 -0.0520 -0.1324  0.3065
32474ION     NA48658   2.553  12.725  10.672  0.1305  0.2944 -0.1578
32475ION     NA48659   0.218   1.098   6.210 -0.0432 -0.0483  0.0712
32476ION     NA48660  16.344   6.187  12.093 -0.0241 -0.2509 -0.2422
32477ION     NA48661   6.370  11.195   5.838 -0.2758  0.0136 -0.0721
32478ION     NA48662   9.745  17.783  10.696 -0.1297  0.1407  0.2720
32479ION     NA48663   2.280   9.630   3.784  0.0396  0.1642  0.3198
32480ION     NA48664  16.277  14.074   5.060 -0.1244 -0.1215 -0.0205
32481ION     NA48665  15.528  13.191  10.908  0.0456  0.1251  0.0190
32482ION     NA48666   5.847   4.044   0.113 -0.3455 -0.2119 -0.3059
32483ION     NA48667   8.270   9.510  10.606  0.0874 -0.1201  0.2102
32484ION     NA48668   1.387   5.103   6.122  0.0458 -0.0733 -0.1517
32485ION     NA48669  11.377  14.736  14.483  0.2918  0.1008  0.1006
32486ION     NA48670   2.164  16.626   5.860  0.0562  0.3349 -0.5008
32487ION     NA48671   4.269   6.015  11.821  0.2431 -0.0238 -0.0719
32488ION     NA48672   5.313   5.042   1.205 -0.0302 -0.3540 -0.0540
32489ION     NA48673  17.145  11.880  10.481 -0.0558 -0.0780  0.0896
32490ION     NA48674   4.769   6.558  11.077 -0.1095 -0.0070  0.1653
32491ION     NA48675  16.316   1.562   4.970  0.0153  0.0977 -0.0814
32492ION     NA48676   2.509  14.859  13.213 -0.2011 -0.0683 -0.1473
32493ION     NA48677  14.272  11.036  10.718 -0.1617 -0.0598  0.1041
32494ION     NA48678   2.430   6.978  11.101 -0.2148 -0.0390 -0.2513
32495ION     NA48679  17.110  13.610  10.792 -0.3416 -0.0310 -0.3620
32496ION     NA48680   9.965  15.127   6.120 -0.0437  0.2943  0.1902
32497ION     NA48681  15.563   9.788   6.227 -0.0824  0.0458  0.0574
32498ION     NA48682  13.565  14.574   5.768  0.2577  0.2661  0.0622
32499ION     NA48683   5.468   6.149   2.582 -0.2737 -0.2886 -0.0202
32500ION     NA48684   0.355  14.566  15.429  0.0140 -0.2176 -0.1314
32501ION     NA48685   3.160   2.860  10.829  0.1362  0.3716  0.2125
32502ION     NA48686   5.118   9.807  11.341 -0.2775  0.0209  0.1656
32503ION     NA48687   6.821   2.096   5.755  0.3170 -0.0971 -0.4816
32504ION     NA48688   3.097   3.592   5.987  0.0591 -0.0904 -0.2199
32505ION     NA48689   5.921   9.658   3.879  0.1596  0.0243 -0.2527
32506ION     NA48690   3.250  17.309  10.385  0.2779  0.0610  0.0894
32507ION     NA48691  15.465  11.444  10.701 -0.0460 -0.0591 -0.2022
32508ION     NA48692   9.681   6.060  13.830 -0.1069  0.3439  0.1659
32509ION     NA48693   3.556   9.045  10.971 -0.1573  0.0319  0.1940
32510ION     NA48694  16.317  17.259  10.380 -0.0281  0.2351  0.2114
32511ION     NA48695  17.619  10.153   2.724  0.0652  0.0978  0.0624
32512ION     NA48696   6.963  16.449   5.642 -0.0762  0.3565  0.0504
32513ION     NA48697  14.851  14.095  10.463 -0.2460  0.1540 -0.0886
32514ION     NA48698  17.065   6.673   6.306  0.0187 -0.2391  0.0825
32515ION     NA48699   4.190  12.074  10.695  0.0551 -0.1922  0.1568
32516ION     NA48700  13.123   0.602  10.553 -0.0084  0.0979  0.1928
32517ION     NA48701  13.968  11.649   3.421  0.0316  0.2197  0.0554
32518ION     NA48702  11.825  13.097   1.682 -0.0295  0.1196  0.3471
32519ION     NA48703  14.819   8.852  10.893  0.3185  0.1150 -0.3713
32520ION     NA48704  11.865  16.925  15.769 -0.1975 -0.1084  0.1236
32521ION     NA48705  11.332   8.589   5.603  0.0752  0.0027  0.0883
32522ION     NA48706  14.130  16.543  10.503 -0.0352 -0.1988 -0.0810
32523ION     NA48707  15.304   1.437  16.259 -0.0785  0.0237  0.0133
32524ION     NA48708   8.761   8.697  10.632 -0.2493  0.0798 -0.0279
32525ION     NA48709   2.313   1.897  10.944 -0.0055 -0.1569 -0.2644
32526ION     NA48710  17.404   7.710   1.509 -0.0931  0.1778 -0.1138
32527ION     NA48711   5.030  12.054  10.753 -0.0605 -0.2925 -0.0592
32528ION     NA48712  13.388   6.859  10.626  0.1260  0.0580 -0.2168
32529ION     NA48713  15.728   2.340  10.320 -0.1612 -0.1268  0.0871
32530ION     NA48714   3.197  16.146  12.654  0.2168 -0.0370  0.3101
32531ION     NA48715  12.652  13.721  14.536  0.2368  0.0259  0.1872
32532ION     NA48716   2.694   8.409  15.212 -0.0348 -0.0110 -0.1776
32533ION     NA48717   2.386  12.677   5.340 -0.1655 -0.0536  0.2906
32534ION     NA48718   1.598  13.626  12.694  0.1566  0.4239  0.0863
32535ION     NA48719  12.311  17.600  10.934  0.3681  0.2932 -0.0200
32536ION     NA48720   6.068   5.557  11.210  0.0313 -0.0860  0.1687
32537ION     NA48721   5.790   4.135  11.132 -0.0209 -0.1849 -0.0198
32538ION     NA48722   2.353  17.003  10.128 -0.2142 -0.1060  0.2211
32539ION     NA48723  15.484  16.574   4.225 -0.3562  0.1383  0.0033
32540ION     NA48724   0.120  12.010  10.497  0.0475  0.0753  0.0389
32541ION     NA48725   3.783   7.472  16.340 -0.0970 -0.0400 -0.0735
32542ION     NA48726   8.273   8.558   3.285  0.0428  0.1204 -0.0493
32543ION     NA48727   9.018   4.203  10.874  0.1302 -0.1575 -0.1010
32544ION     NA48728  16.099   6.848  10.832 -0.1427  0.0562 -0.0431
32545ION     NA48729  10.406   8.529  10.892 -0.4036 -0.2502 -0.1328
32546ION     NA48730  16.665   0.957  10.318  0.0496  0.2004  0.0125
32547ION     NA48731  16.485  10.236  12.522 -0.0865 -0.4032 -0.2006
32548ION     NA48732   6.371  14.074  10.952  0.0656  0.0234  0.0432
32549ION     NA48733  11.814   8.584  12.064 -0.2609 -0.2653  0.0457
32550ION     NA48734   3.152   1.713  10.695 -0.1349  0.3680  0.0170
32551ION     NA48735  17.054   2.299  10.362 -0.2578 -0.0506  0.2161
32552ION     NA48736  17.571   0.329  15.879 -0.0744 -0.0230 -0.1545
32553ION     NA48737   2.906   8.395  11.009  0.1272 -0.0712 -0.1082
32554ION     NA48738   6.073  10.075  10.906  0.0504  0.1500 -0.5464
32555ION     NA48739  15.368   3.912  14.635 -0.0806  0.1682 -0.1534
32556ION     NA48740   7.436  15.991  13.115 -0.2094  0.4114 -0.0779
32557ION     NA48741  17.657  17.329  10.416 -0.1269  0.0386 -0.5143
32558ION     NA48742  11.873  12.872  10.802  0.0618  0.1210 -0.3314
32559ION     NA48743  12.794   7.403  10.777  0.2340 -0.0035 -0.3858
32560ION     NA48744   3.649   8.403   6.322 -0.0139  0.0522  0.1522
32561ION     NA48745   6.557  11.578   6.141 -0.3375  0.2243 -0.2266
32562ION     NA48746  16.905   4.184   5.932  0.0643  0.0725  0.1531
32563ION     NA48747   7.325  13.982  10.829  0.0319 -0.1792  0.1822
32564ION     NA48748  12.891  10.086  11.003  0.0568  0.1260 -0.1350
32565ION     NA48749   1.024  16.492   4.617 -0.1831 -0.0852 -0.2494
32566ION     NA48750   0.366   8.411  10.250  0.1171 -0.0991 -0.0628
32567ION     NA48751   8.540  12.927   6.238 -0.2612 -0.0172  0.3685
32568ION     NA48752  17.864  13.410   5.540 -0.3557 -0.1388 -0.0318
32569ION     NA48753   7.076   5.262  16.589 -0.2613  0.1636 -0.0308
32570ION     NA48754  16.522  14.006  15.579  0.0575  0.3361 -0.0538
32571ION     NA48755   8.819   8.993   4.719 -0.0105 -0.0288 -0.0975
32572ION     NA48756  17.506   5.323  10.441  0.2525 -0.1794 -0.0209
32573ION     NA48757  17.115  10.562   5.868 -0.0861 -0.2856 -0.3471
32574ION     NA48758   2.432   7.242  16.576 -0.1859 -0.1845  0.1538
32575ION     NA48759   5.500   8.879  11.145 -0.0116 -0.3480  0.0870
32576ION     NA48760  16.183   2.798   4.824 -0.1768 -0.3691 -0.0748
32577ION     NA48761   5.341  16.483  10.621  0.2776 -0.0873  0.0665
32578ION     NA48762   4.503   6.351   4.382  0.0769 -0.1774 -0.2319
32579ION     NA48763   7.243  11.854  11.034 -0.0044 -0.1068 -0.2135
32580ION     NA48764   1.579   5.905   5.620  0.0312  0.0903  0.0365
32581ION     NA48765   0.803  12.685   6.143  0.2186 -0.1787  0.0463
32582ION     NA48766  15.272   7.479   1.040  0.0380  0.0592 -0.0110
32583ION     NA48767  13.782   1.084   6.066 -0.1134  0.1661  0.1707
32584ION     NA48768  15.209  12.959   5.139 -0.0183 -0.3114 -0.1007
32585ION     NA48769  15.042  16.448  10.458 -0.2628  0.1069 -0.2503
32586ION     NA48770   8.804   2.682  10.695  0.2244 -0.1451  0.2814
32587ION     NA48771   1.151   3.228  10.747  0.0793 -0.3270 -0.1814
32588ION     NA48772  11.992   7.516  10.726  0.2056  0.1540  0.0025
32589ION     NA48773  17.905   1.317   5.466  0.1045 -0.1882  0.1913
32590ION     NA48774   9.970  16.980  11.013 -0.6055 -0.2661  0.0231
32591ION     NA48775  10.092   1.556  10.804 -0.0014  0.2785  0.1250
32592ION     NA48776  15.050  11.909   1.099  0.0867  0.1368  0.0319
32593ION     NA48777   3.274   0.740  13.025  0.3085 -0.1509  0.0360
32594ION     NA48778  10.852  17.956  10.760  0.1280  0.3164 -0.2185
32595ION     NA48779  12.987  11.481  10.772 -0.1252 -0.0971 -0.0285
32596ION     NA48780   4.245  14.940  10.494  0.2220  0.1245 -0.4831
32597ION     NA48781   8.495  14.947  10.693  0.0238  0.0813 -0.0894
32598ION     NA48782  13.680  13.082  10.628  0.3045  0.0749 -0.2551
32599ION     NA48783   8.283  15.725  13.393 -0.2686  0.2061  0.1151
32600ION     NA48784  11.596  15.203  11.014 -0.1908 -0.1594  0.0619
32601ION     NA48785  15.966   7.909   6.294  0.0790 -0.1339  0.1583
32602ION     NA48786  16.781  15.623   5.877  0.0027  0.1593  0.0080
32603ION     NA48787   9.593  14.833  15.547  0.2171 -0.2203 -0.0150
32604ION     NA48788  16.154  16.749   6.020 -0.0116  0.0811  0.0224
32605ION     NA48789   1.145  17.074   6.158 -0.2286 -0.0898 -0.0393
32606ION     NA48790   1.921   8.145  10.777 -0.0832  0.1415 -0.0842
32607ION     NA48791   7.574   3.876  10.846 -0.0691 -0.0232  0.1750
32608ION     NA48792   8.523   4.905  11.053 -0.2826  0.1773  0.2906
32609ION     NA48793   9.302   9.561   2.217  0.2836  0.1315 -0.0220
32610ION     NA48794  13.044  13.296  13.700 -0.1114 -0.1627  0.0827
32611ION     NA48795   8.603   0.679   2.690  0.0321 -0.3821 -0.3505
32612ION     NA48796   2.111  12.908   6.202 -0.2038  0.4284  0.1845
32613ION     NA48797   3.323  11.027   5.687  0.0170 -0.3099 -0.0358
32614ION     NA48798   5.031  14.594  10.832  0.1691 -0.0971 -0.2657
32615ION     NA48799   1.578  13.186  10.539 -0.2130  0.1603 -0.1983
32616ION     NA48800   0.022  16.655   0.546  0.2955 -0.0026 -0.1198
32617ION     NA48801  15.466   5.776  10.606  0.3581 -0.0096 -0.1906
32618ION     NA48802  11.682  10.164  10.880 -0.0628  0.0582 -0.1044
32619ION     NA48803  10.336   6.548  13.064  0.0594 -0.0576  0.1346
32620ION     NA48804   2.883   1.381  11.359 -0.4083 -0.1773  0.0814
32621ION     NA48805  13.287   3.181  10.840  0.0065  0.1823  0.2664
32622ION     NA48806  16.355   4.553  10.535  0.2579  0.2271  0.4453
32623ION     NA48807   9.175   9.833  10.608 -0.3135  0.0477  0.3180
32624ION     NA48808   1.423  10.696   6.166  0.0134 -0.2110  0.0903
32625ION     NA48809   2.576  16.994   4.138 -0.1009  0.1038 -0.0239
32626ION     NA48810   6.528   0.185   6.152 -0.0449  0.2776 -0.3974
32627ION     NA48811  12.029   2.596   6.263 -0.0946 -0.1680  0.0875
32628ION     NA48812   0.945   0.069  10.712 -0.1587  0.1844 -0.0037
32629ION     NA48813  13.708  15.478  10.552 -0.2625 -0.4302  0.2158
32630ION     NA48814   7.224   4.503  11.057 -0.2247 -0.0477 -0.0537
32631ION     NA48815   6.776   5.224  11.174 -0.0150  0.1493 -0.0289
32632ION     NA48816  11.958   7.174  11.966  0.0917  0.2729 -0.0354
32633ION     NA48817   7.834  17.703  10.951  0.3273 -0.0336  0.2288
32634ION     NA48818   0.420  16.508  16.429 -0.1356  0.1102 -0.1038
32635ION     NA48819   1.812  14.325  10.545 -0.2459 -0.1699  0.1105
32636ION     NA48820   7.164   8.818   6.247 -0.0960  0.0721  0.0559
32637ION     NA48821   1.043   1.711   5.105 -0.1829  0.1934 -0.1690
32638ION     NA48822  12.892   6.431  11.211  0.3735  0.1154 -0.1042
32639ION     NA48823  17.973  13.063  10.550 -0.2111 -0.0921  0.1200
32640ION     NA48824  10.535   6.188  10.835  0.2753  0.3406 -0.1921
32641ION     NA48825  15.054   2.218   0.847  0.1387  0.0275 -0.0352
32642ION     NA48826   4.613   2.654  11.056  0.0169 -0.2168 -0.2340
32643ION     NA48827   6.270  10.957  10.917  0.3669  0.4457  0.3961
32644ION     NA48828  17.703  15.836   5.461 -0.0968  0.2926  0.1700
32645ION     NA48829   6.038  15.338   1.440  0.0343  0.1118 -0.2556
32646ION     NA48830   7.492   6.578  11.087  0.3884 -0.0054  0.0711
32647ION     NA48831  13.831  13.767  13.251 -0.0087  0.0548 -0.1975
32648ION     NA48832  12.111   6.739  15.142  0.2541  0.2153 -0.1251
32649ION     NA48833   5.704  11.657  10.891  0.0285  0.2135 -0.1752
32650ION     NA48834   0.095   9.598  11.235 -0.0205  0.3438  0.1787
32651ION     NA48835   7.928   7.685  15.483 -0.0518  0.2880  0.3077
32652ION     NA48836   1.906  15.524  10.183  0.3733 -0.2463 -0.2877
32653ION     NA48837  16.244   8.343   3.272 -0.0837  0.0070  0.0353
32654ION     NA48838  12.852   4.270  10.654  0.2008  0.1255  0.0434
32655ION     NA48839   3.268   7.586  11.196 -0.5287 -0.0041 -0.1767
32656ION     NA48840   2.596   5.309   3.136  0.0529 -0.1322 -0.6738
32657ION     NA48841  10.064   2.033   3.452  0.1816 -0.0438  0.0782
32658ION     NA48842   2.648   5.052   6.434  0.0934  0.0481  0.1337
32659ION     NA48843   9.684  14.522   6.144 -0.1029  0.0057  0.4041
32660ION     NA48844  16.462  11.565  10.688 -0.2854 -0.3190 -0.0198
32661ION     NA48845   5.628   6.970  11.387 -0.0140  0.0277  0.4472
32662ION     NA48846   8.656   1.646   5.812  0.2611 -0.0802 -0.1306
32663ION     NA48847  10.009   9.304  10.735 -0.0365 -0.4665 -0.2847
32664ION     NA48848  17.498  12.820  16.523  0.2081  0.0470 -0.2315
32665ION     NA48849   1.509   6.498  10.867 -0.1697  0.3550 -0.0944
32666ION     NA48850   8.174   4.145  11.216 -0.0894 -0.1837  0.3186
32667ION     NA48851   7.160   3.793   6.076 -0.2336  0.0647 -0.0792
32668ION     NA48852  17.877   9.944   5.604  0.2289 -0.1594  0.2194
32669ION     NA48853  15.165   7.629  14.195  0.1691  0.1083 -0.0240
32670ION     NA48854   5.342   9.985  10.640  0.3120  0.1062  0.2587
32671ION     NA48855   4.694   1.517   0.843 -0.3607 -0.1228 -0.0629
32672ION     NA48856   9.438   0.706  10.658  0.2239 -0.1511  0.1672
32673ION     NA48857   4.173  10.832  10.593  0.0653  0.1710 -0.0783
32674ION     NA48858  14.743   1.871  10.346 -0.4027  0.2970 -0.1472
32675ION     NA48859  13.502   3.271   6.228 -0.3635 -0.0781  0.3468
32676ION     NA48860   8.288   3.546  14.486 -0.1265  0.3270 -0.0314
32677ION     NA48861  10.034   4.742  10.613  0.0624 -0.2052 -0.2335
32678ION     NA48862  17.504   9.990  10.775 -0.1335 -0.0005  0.2133
32679ION     NA48863   5.651   7.941  11.348  0.0781  0.0929  0.0763
32680ION     NA48864  16.440   2.496  10.379 -0.0235 -0.1559 -0.3974
32681ION     NA48865   4.384   7.351   6.548  0.2313  0.1324  0.0034
32682ION     NA48866  13.712   6.265   5.427 -0.0757  0.0079 -0.2336
32683ION     NA48867   6.839   7.418  11.103  0.3734 -0.0310  0.0757
32684ION     NA48868   5.095   1.197  10.832 -0.2580 -0.3433 -0.2893
32685ION     NA48869  16.134   3.772  11.092  0.0742 -0.0095  0.2111
32686ION     NA48870   5.701  15.917   5.581 -0.0944  0.2532  0.2407
32687ION     NA48871  12.655  17.374   5.761 -0.0065  0.2508  0.2077
32688ION     NA48872  11.456  17.322  10.572  0.5124  0.1101 -0.0199
32689ION     NA48873   5.088  10.988   2.810 -0.2450 -0.2627  0.0118
32690ION     NA48874   9.676  17.911  11.228 -0.2528 -0.1235 -0.2745
32691ION     NA48875  12.972  11.280   5.900  0.0374  0.2330 -0.0179
32692ION     NA48876   3.482  12.533  10.766 -0.0114 -0.2719 -0.4203
32693ION     NA48877  14.318   7.148  10.476 -0.2359 -0.0237 -0.1466
32694ION     NA48878   9.067  12.129   1.528  0.2515  0.0748 -0.0939
32695ION     NA48879   8.185   6.413  10.962  0.0934 -0.0594 -0.0350
32696ION     NA48880  15.105  10.590  10.661  0.0505 -0.0222 -0.2221
32697ION     NA48881   0.015   5.256  10.555  0.0509  0.0793 -0.0776
32698ION     NA48882   5.217   0.271  10.764  0.0374  0.0301  0.0054
32699ION     NA48883  16.852  10.760  10.521  0.0850  0.0664 -0.0353
32700ION     NA48884   8.886  14.047  10.646  0.0563 -0.2947 -0.0411
32701ION     NA48885  10.797  13.635  10.423 -0.1503 -0.0695  0.1340
32702ION     NA48886   5.781   0.783  10.948  0.1081 -0.1511  0.0836
32703ION     NA48887   0.629   9.712  13.712  0.1398 -0.1190 -0.1288
32704ION     NA48888   0.438   8.922  10.336  0.2980  0.2610 -0.4418
32705ION     NA48889   6.172   8.251  11.068  0.3490  0.0195 -0.1500
32706ION     NA48890  13.221   5.037  10.568  0.0281 -0.0027 -0.0399
32707ION     NA48891   0.661  11.391  10.550  0.1724 -0.1983  0.4129
32708ION     NA48892  15.582   8.518  10.530  0.3127 -0.0415 -0.0074
32709ION     NA48893   8.071   8.105  10.965 -0.0964 -0.1453  0.0979
32710ION     NA48894  17.318   8.545  12.342  0.0718  0.3112 -0.0306
32711ION     NA48895  17.032  15.608  15.440  0.2280  0.0905 -0.2739
32712ION     NA48896   4.525  14.650  11.431 -0.0077 -0.0462 -0.2557
32713ION     NA48897   2.902  15.271   3.714 -0.1661 -0.1879  0.1184
32714ION     NA48898  11.447   3.641   5.539 -0.0576  0.3641 -0.0982
32715ION     NA48899  16.806  13.256   3.544  0.0364 -0.0267 -0.0594
32716ION     NA48900   5.489   3.020  11.096  0.1748 -0.4045  0.1205
32717ION     NA48901  12.882  13.605  10.599  0.1522 -0.2297  0.0843
32718ION     NA48902  15.642   3.101  10.398 -0.1008  0.0985  0.0724
32719ION     NA48903  16.431  11.038  13.659  0.2755 -0.1731 -0.0860
32720ION     NA48904   9.256   7.454  10.887 -0.1247 -0.1287  0.2904
32721ION     NA48905  12.741  15.894  10.702 -0.0477 -0.2001  0.0456
32722ION     NA48906  15.218   7.171  10.635  0.1799  0.2228 -0.0345
32723ION     NA48907   2.616   3.417  10.808  0.1073  0.0612  0.0779
32724ION     NA48908   0.175   1.571  10.560 -0.3262  0.0448  0.1755
32725ION     NA48909   5.974   2.745   5.516 -0.0895 -0.1018 -0.0196
32726ION     NA48910  13.977   2.392  10.662 -0.2052 -0.1177  0.1802
32727ION     NA48911   9.351  10.382   6.027  0.1421 -0.0039 -0.0680
32728ION     NA48912   0.008   2.360   3.183 -0.2628 -0.1792 -0.0547
32729ION     NA48913  17.032   0.598   1.957 -0.3129  0.0632  0.2889
32730ION     NA48914   4.212   5.912  16.366 -0.1044  0.0753  0.0799
32731ION     NA48915   7.565  11.508  10.889  0.0844  0.3172 -0.2235
32732ION     NA48916   6.974   2.604  10.939 -0.0494 -0.0779  0.0368
32733ION     NA48917   9.035   6.690  10.894  0.1796  0.0889  0.0159
32734ION     NA48918   5.800  16.309   0.737 -0.1344 -0.2079  0.1777
32735ION     NA48919  13.120  15.307   4.169  0.0058  0.1025  0.1914
32736ION     NA48920   6.714   6.155   3.221  0.0622 -0.1460  0.0594
32737ION     NA48921  10.806   4.470  10.617  0.3532  0.3262 -0.0061
32738ION     NA48922  14.714  10.375   6.084 -0.0088 -0.1451 -0.0260
32739ION     NA48923  17.511  11.372  10.687 -0.0091  0.0124 -0.1427
32740ION     NA48924  12.815   1.351   6.215 -0.3268  0.0342 -0.0900
32741ION     NA48925  11.668  10.764   6.049 -0.1432  0.2274 -0.0938
32742ION     NA48926  14.645  15.724  10.570 -0.1458  0.2163 -0.0892
32743ION     NA48927  16.299   6.457   4.555 -0.0243 -0.2497 -0.1917
32744ION     NA48928   7.677   8.563   1.983 -0.0720 -0.0989 -0.0908
32745ION     NA48929  14.456   8.646   5.900 -0.0821  0.0000 -0.1196
32746ION     NA48930   3.649   2.665   3.302  0.0705 -0.2476  0.1495
32747ION     NA48931  17.353   9.048   4.928 -0.4569  0.0134  0.3356
32748ION     NA48932  14.719  11.919  10.639  0.2072 -0.3411 -0.1323
32749ION     NA48933  16.500  17.145  14.671 -0.2889 -0.2151  0.0401
32750ION     NA48934   1.342   8.032  10.842  0.3026 -0.1751  0.0879
32751ION     NA48935   4.562  11.614   0.322  0.2441  0.0234  0.0005
32752ION     NA48936   5.949  13.426  10.911  0.2368 -0.0564 -0.2197
32753ION     NA48937  11.437   4.389   5.726 -0.1526 -0.0129 -0.1514
32754ION     NA48938  14.489   7.956  15.382  0.0734  0.4239 -0.0958
32755ION     NA48939  10.351  15.732   5.629 -0.0504 -0.0728 -0.3373
32756ION     NA48940  15.005   5.366  10.539 -0.0859 -0.0106 -0.2133
32757ION     NA48941   5.185   5.326  15.978 -0.1265  0.3453  0.0864
32758ION     NA48942   7.100   6.982   6.353 -0.1286  0.0837  0.0295
32759ION     NA48943  12.450  10.980   4.838 -0.0652 -0.0577 -0.0969
32760ION     NA48944  10.037   2.105  10.900 -0.1962 -0.2134 -0.1502
32761ION     NA48945  15.806   2.553   0.412 -0.0718  0.2224  0.2062
32762ION     NA48946  17.852  10.353   6.030 -0.3321  0.0973  0.1678
32763ION     NA48947   8.411  12.124  11.824 -0.0449 -0.0593  0.0164
32764ION     NA48948   9.390  14.752  10.641  0.3921  0.2489 -0.2053
32765ION     NA48949   9.062  13.184  10.783  0.0933 -0.1541 -0.0448
32766ION     NA48950   5.652  17.878  10.521  0.0132 -0.0113 -0.2501
32767ION     NA48951   6.633   8.287  11.034  0.1406 -0.0994 -0.0502
32768ION     NA48952  16.965   4.910   5.912  0.0933 -0.1762  0.3538
32769ION     NA48953   3.851  10.265   5.425  0.1560  0.3758 -0.1570
32770ION     NA48954   0.229  15.746   6.084 -0.1754  0.0898 -0.0684
32771ION     NA48955  12.256   4.419   1.780  0.0582  0.0610  0.1901
32772ION     NA48956  15.115   4.608  16.459  0.2072 -0.0360  0.2012
32773ION     NA48957   4.096   0.561   2.123  0.0572  0.2582 -0.3962
32774ION     NA48958  16.412   6.504   5.807 -0.0331  0.0010  0.0941
32775ION     NA48959  15.888  12.516   6.088  0.0871  0.0496 -0.4451
32776ION     NA48960   0.216   3.464  10.569 -0.3253  0.0004 -0.0958
32777ION     NA48961   6.764  15.241   0.380  0.2335 -0.2726 -0.0809
32778ION     NA48962   4.107   9.364  10.890 -0.0494 -0.0942  0.0557
32779ION     NA48963  14.010  13.693   4.786  0.2059  0.1525 -0.2079
32780ION     NA48964  15.491   9.495  10.855 -0.2865 -0.3797 -0.4007
32781ION     NA48965   9.204   2.802   3.483  0.2257 -0.2919  0.1554
32782ION     NA48966  11.462   1.540   4.757 -0.0089 -0.2029  0.2704
32783ION     NA48967  14.146   0.192  10.371  0.4247  0.3298  0.2782
32784ION     NA48968   2.129   8.561  11.406  0.0949 -0.1542 -0.4240
32785ION     NA48969  11.882   6.150  16.568 -0.0253  0.1875 -0.3203
32786ION     NA48970   7.981   8.940  10.818 -0.0794 -0.1146  0.0655
32787ION     NA48971  17.764   1.739  10.385  0.1776 -0.0953  0.1652
32788ION     NA48972   7.532  16.404   3.285  0.0151 -0.3329  0.1036
32789ION     NA48973   5.233   1.966  11.152  0.3530  0.1444 -0.0458
32790ION     NA48974   1.378   5.557  10.850 -0.2898 -0.1557  0.0772
32791ION     NA48975   3.657   3.403  10.758 -0.1474 -0.1386 -0.0763
32792ION     NA48976  17.653  14.534  15.097 -0.0509 -0.2071 -0.0243
32793ION     NA48977   7.447   3.850  12.379 -0.4217  0.2418 -0.0111
32794ION     NA48978   9.661   8.320  10.666  0.1253  0.0777  0.2793
32795ION     NA48979   7.372   4.501  13.286 -0.2273  0.0209  0.0564
32796ION     NA48980   7.472  14.213   4.279 -0.5150 -0.0556  0.2179
32797ION     NA48981   9.998  11.463  10.992 -0.0439  0.3907 -0.0296
32798ION     NA48982  17.112   7.595  10.661 -0.0241  0.0959  0.0209
32799ION     NA48983  16.799  15.406  10.789 -0.0873 -0.2056  0.1430
32800ION     NA48984   6.358   6.935   4.913  0.0578  0.2827  0.1137
32801ION     NA48985   5.411   4.887  10.875 -0.0863 -0.2050 -0.4686
32802ION     NA48986  15.354  13.798  10.632 -0.2247 -0.0833  0.0485
32803ION     NA48987  12.251   3.492  10.882 -0.3162 -0.0004 -0.0256
32804ION     NA48988   0.780  13.692  10.585 -0.0413 -0.1421 -0.2444
32805ION     NA48989  16.446   2.986  10.614  0.0039 -0.0206  0.0590
32806ION     NA48990   0.384  11.966  11.691  0.0908  0.1188  0.1842
32807ION     NA48991  10.747  15.757  10.814  0.1211  0.0403  0.2201
32808ION     NA48992  15.353   0.322  11.450 -0.2843  0.0598  0.2118
32809ION     NA48993   2.659   2.645   3.410 -0.0052  0.1783 -0.4243
32810ION     NA48994   4.970   2.552  11.512  0.1473  0.0246 -0.0361
32811ION     NA48995   5.281  13.004  10.744 -0.0949  0.0208 -0.1050
32812ION     NA48996   6.438  17.012   2.790 -0.0405  0.1155  0.0258
32813ION     NA48997  14.686   1.026  10.245 -0.0194 -0.2785 -0.1085
32814ION     NA48998   6.802   1.870  10.722  0.4254  0.0262 -0.2161
32815ION     NA48999   8.934   4.157  15.528  0.3481  0.2238 -0.1250
32816ION     NA49000  14.028  10.266  10.849  0.0668 -0.0583 -0.3220
32817ION     NA49001  15.890   7.438  14.299 -0.0972 -0.1240  0.1144
32818ION     NA49002   4.153  14.374  11.024 -0.1606  0.1229  0.3084
32819ION     NA49003   6.634  15.006  12.740  0.0396  0.0793 -0.0343
32820ION     NA49004  17.219  14.847   5.815 -0.4733  0.2713  0.0397
32821ION     NA49005   4.550   6.994  14.893 -0.2236 -0.1962 -0.1527
32822ION     NA49006   8.299  13.735   5.915  0.1878 -0.1103  0.0276
32823ION     NA49007   1.092   9.941   3.416 -0.0892  0.1222  0.2701
32824ION     NA49008   0.511   2.481  10.779 -0.1646  0.1109  0.1969
32825ION     NA49009   8.445  11.189   4.009  0.0539 -0.0712 -0.0575
32826ION     NA49010  17.188   7.894   3.296  0.0042  0.1057  0.0816
32827ION     NA49011  11.568   4.040  10.841 -0.1631 -0.2135  0.1801
32828ION     NA49012   8.575  16.503  10.654 -0.1049 -0.1704  0.1295
32829ION     NA49013   2.311  16.005   9.950  0.1403  0.3085 -0.1645
32830ION     NA49014  10.951   1.985  10.996  0.1237  0.1787  0.1033
32831ION     NA49015   2.382  10.592  10.884  0.0923 -0.1659 -0.2190
32832ION     NA49016   2.758  15.914  10.521 -0.0692 -0.2632  0.1727
32833ION     NA49017   6.544  12.508   6.255  0.0315  0.1248  0.0494
32834ION     NA49018   9.524   6.932  15.926 -0.0113  0.2691  0.2134
32835ION     NA49019   7.087  10.563  10.925  0.1793 -0.5216  0.2220
32836ION     NA49020   7.206   4.810   6.175  0.2601 -0.1934  0.2403
32837ION     NA49021   2.457   4.278  11.025 -0.1782  0.1417 -0.1981
32838ION     NA49022  14.668   6.120  10.915 -0.0369  0.1274 -0.1857
32839ION     NA49023   8.708  10.982   6.186 -0.2203 -0.0520 -0.1378
32840ION     NA49024   7.985   5.735  10.962 -0.1602  0.1594  0.2610
32841ION     NA49025  17.227   9.596  10.645 -0.0877  0.2948  0.0237
32842ION     NA49026   4.737  13.746  10.871 -0.0895 -0.1536 -0.1376
32843ION     NA49027   2.384  16.441  15.977 -0.0354 -0.1988 -0.0557
32844ION     NA49028  13.815   5.848  10.550  0.2394 -0.1330  0.0793
32845ION     NA49029   1.556   7.224  10.897 -0.0828  0.0893 -0.0896
32846ION     NA49030   4.241   0.961  13.969 -0.1149  0.1130 -0.1772
32847ION     NA49031   9.794  14.684   0.146  0.1589 -0.1679 -0.0823
32848ION     NA49032   8.967  15.671   2.302  0.4579 -0.2682  0.2976
32849ION     NA49033   8.644   0.291  10.797  0.1829  0.2267 -0.1066
32850ION     NA49034   0.481   5.104  10.704 -0.2028 -0.2794  0.1028
32851ION     NA49035  15.892   0.766   2.788  0.0069  0.1883 -0.1707
32852ION     NA49036  14.468  13.180  10.692  0.0202  0.0324  0.1110
32853ION     NA49037  10.302   3.375  16.312 -0.1411  0.0333  0.0053
32854ION     NA49038   4.910  11.213  10.703 -0.1881 -0.0625 -0.0774
32855ION     NA49039  17.476   4.758  16.595  0.1440  0.2502 -0.0768
32856ION     NA49040   8.680   1.102  10.805  0.0175 -0.0034  0.2834
32857ION     NA49041  14.837   6.383  10.556 -0.0629 -0.0617  0.0919
32858ION     NA49042   9.769   0.348   3.092 -0.3179  0.0803 -0.1248
32859ION     NA49043   9.346  10.684  10.951  0.1331 -0.0239  0.0241
32860ION     NA49044   9.663   2.452  10.844 -0.0233 -0.2370  0.1392
32861ION     NA49045  13.646   8.583  10.901  0.0858 -0.0667 -0.0619
32862ION     NA49046   7.964  10.085   5.398  0.1249 -0.1867 -0.0734
32863ION     NA49047   3.922  10.988  16.399 -0.1610 -0.1832 -0.0697
32864ION     NA49048   0.643   6.808  10.712 -0.0308 -0.1090 -0.2218
32865ION     NA49049  10.292   3.691  10.708  0.2010 -0.0980 -0.1252
32866ION     NA49050   2.693  15.112  10.145  0.0505 -0.0932 -0.0093
32867ION     NA49051  11.322   3.020  10.961  0.0110 -0.2336  0.1792
32868ION     NA49052  14.082   5.318  14.297  0.1739  0.1715  0.2437
32869ION     NA49053  14.147  16.429  14.259 -0.1151  0.0569  0.1491
32870ION     NA49054   6.926  13.733   6.115  0.2107  0.1680  0.3840
32871ION     NA49055   9.351   3.210  11.137  0.0688 -0.1053 -0.0444
32872ION     NA49056   9.838  14.091  10.640 -0.2009 -0.3101  0.0663
32873ION     NA49057  14.222   2.443   4.295 -0.1743  0.1068  0.0092
32874ION     NA49058  12.158   0.769  10.426 -0.0787 -0.3296 -0.3270
32875ION     NA49059   7.037   0.945  10.963 -0.2669 -0.1465 -0.0274
32876ION     NA49060  11.299  16.405  10.804  0.1494  0.3334  0.1242
32877ION     NA49061  12.278  12.199  10.807  0.1637 -0.1419  0.1482
32878ION     NA49062   1.269   0.241   3.642 -0.2649 -0.0608 -0.1940
32879ION     NA49063   6.105   4.092   6.258  0.0397 -0.1946  0.0558
32880ION     NA49064   6.354   9.202  11.058 -0.1835  0.1785  0.2771
32881ION     NA49065   1.927   1.189  10.768  0.1848  0.0317 -0.0512
32882ION     NA49066  13.932   0.987  16.278 -0.1416  0.0408 -0.0544
32883ION     NA49067  12.050   6.633  10.732 -0.1270 -0.1316  0.1650
32884ION     NA49068  14.530   6.663  14.768 -0.0476 -0.3345  0.1704
32885ION     NA49069   2.659   8.909  14.516  0.2741 -0.1498  0.1393
32886ION     NA49070   3.115   8.344   6.433  0.0560 -0.0241 -0.1437
32887ION     NA49071   9.935   3.509   6.229  0.2545 -0.0632 -0.1590
32888ION     NA49072   9.053   0.038   5.838  0.0498  0.0042  0.2796
32889ION     NA49073   1.077   1.705   3.586  0.0960 -0.2937  0.0115
32890ION     NA49074   3.490  16.491  10.337 -0.1375  0.1100 -0.1439
32891ION     NA49075  11.762  15.773  11.102  0.1488  0.1435  0.0671
32892ION     NA49076  16.330   8.284  10.506 -0.1276 -0.5252 -0.0481
32893ION     NA49077   9.649   5.173  11.290  0.1416 -0.2139 -0.0021
32894ION     NA49078  14.641  17.193  10.316  0.2268 -0.1516 -0.0044
32895ION     NA49079  11.840  16.886   5.725 -0.0386  0.0897 -0.0118
32896ION     NA49080   0.298   0.942  10.588  0.1375 -0.2852 -0.2390
32897ION     NA49081   4.867  12.693  16.109 -0.0996  0.0723  0.0793
32898ION     NA49082  15.511  13.145  11.419  0.3010 -0.5089  0.3186
32899ION     NA49083   6.953   1.312  14.201 -0.0199  0.4774 -0.0347
32900ION     NA49084   0.140   4.340  10.370  0.0798  0.1502 -0.0105
32901ION     NA49085   3.977   0.255   3.031  0.1579  0.1421 -0.2363
32902ION     NA49086   9.379  17.994   1.147  0.3081 -0.1609 -0.0147
32903ION     NA49087   9.796  12.588  10.940  0.0933  0.1390  0.1398
32904ION     NA49088   1.327   4.883  14.926 -0.2551 -0.0296 -0.2991
32905ION     NA49089  13.354  10.743  10.583  0.1084 -0.3219 -0.0840
32906ION     NA49090   7.879  14.188  10.553 -0.2543 -0.0784  0.0070
32907ION     NA49091  14.155  10.970   6.128 -0.1818  0.0301  0.0850
32908ION     NA49092   6.440  12.228  10.856 -0.3094 -0.2640 -0.0822
32909ION     NA49093  10.745   4.003  15.616 -0.0145  0.2484 -0.1479
32910ION     NA49094   7.246   5.249  11.204 -0.3141  0.0532 -0.0363
32911ION     NA49095  15.638  15.772  10.539 -0.2478 -0.1501  0.1667
32912ION     NA49096   7.206  16.342  10.494 -0.0619 -0.3061 -0.1958
32913ION     NA49097   9.199  17.310  10.838 -0.1894 -0.2001 -0.2662
32914ION     NA49098  14.453  14.370  15.577  0.0148  0.0430 -0.0769
32915ION     NA49099   4.658  14.060   6.136  0.1885 -0.2599 -0.1021
32916ION     NA49100   6.155  10.383   5.955 -0.1829  0.2022  0.2482
32917ION     NA49101   8.461   7.504   4.465  0.0254 -0.2341 -0.1450
32918ION     NA49102  14.012   0.102   3.567  0.0877  0.0090 -0.2850
32919ION     NA49103   6.179   0.008  10.501 -0.0476 -0.0222  0.1138
32920ION     NA49104  14.856   4.825  11.704 -0.1678 -0.0216 -0.0282
32921ION     NA49105   8.348  10.775  11.005  0.1257 -0.1669  0.1551
32922ION     NA49106  10.783   9.672  10.964 -0.0284  0.0036 -0.0239
32923ION     NA49107   3.158  13.313  10.752 -0.0432 -0.1171 -0.1316
32924ION     NA49108   9.142   4.531  11.591  0.0056  0.1016  0.0898
32925ION     NA49109   4.663  15.717  10.499 -0.1323 -0.0263 -0.1172
32926ION     NA49110   6.219   4.444  11.083  0.2236  0.1040  0.0272
32927ION     NA49111  12.962  12.849  12.673 -0.2511  0.1748  0.0800
32928ION     NA49112   9.808   6.164  14.711 -0.2379 -0.2320  0.0895
32929ION     NA49113  14.417   4.788  10.908  0.1587 -0.0251  0.1024
32930ION     NA49114  12.938   9.782   6.187 -0.1069 -0.3200 -0.1946
32931ION     NA49115  15.447   3.987  10.751  0.0988  0.1499 -0.0545
32932ION     NA49116  12.044   3.115  11.653  0.2101  0.2188  0.2599
32933ION     NA49117  10.276  14.806  10.670  0.1176 -0.0976  0.0327
32934ION     NA49118   6.213   4.063   1.425 -0.1038  0.0541 -0.1646
32935ION     NA49119  10.382   7.851  11.364 -0.1618  0.0519  0.1938
32936ION     NA49120  12.815   8.691  10.542  0.1861  0.1697  0.1107
32937ION     NA49121  10.547   2.672   6.187  0.0192  0.1394  0.4706
32938ION     NA49122  15.739   3.787  15.420  0.1965  0.0846 -0.0871
32939ION     NA49123   1.549  17.298  10.401  0.1551  0.1698  0.1179
32940ION     NA49124   6.207  13.873  14.321  0.3774 -0.0525  0.0524
32941ION     NA49125   4.352  12.618  10.964 -0.2040 -0.2692  0.0306
32942ION     NA49126  16.203  14.803  10.501 -0.1741  0.1855  0.2098
32943ION     NA49127   3.881   1.086  10.756 -0.1081  0.0141  0.1182
32944ION     NA49128   5.640   0.170   3.294 -0.0254 -0.4506  0.1662
32945ION     NA49129   7.773  16.849  10.741  0.1057  0.5612  0.0020
32946ION     NA49130  13.412   4.375   1.027  0.0586 -0.2374 -0.4314
32947ION     NA49131  10.912   3.728   1.005 -0.3380  0.0778  0.2909
32948ION     NA49132   7.607  15.027  13.756 -0.2176  0.2265  0.2452
32949ION     NA49133   4.582  17.686  10.667 -0.0927 -0.2506 -0.1808
32950ION     NA49134  16.644  14.445  10.537  0.1095  0.1989 -0.1622
32951ION     NA49135   4.042  11.333   2.548  0.0683  0.0234  0.2818
32952ION     NA49136  12.246   9.386  10.790  0.2018  0.1794 -0.1786
32953ION     NA49137  13.363   1.604   4.661  0.1244 -0.0389  0.1231
32954ION     NA49138   1.587   3.699   6.266  0.4459 -0.0714 -0.1725
32955ION     NA49139   9.069   0.049   4.347 -0.0562  0.1307 -0.0749
32956ION     NA49140   1.630  11.352  10.971  0.0189  0.0394  0.0506
32957ION     NA49141  16.787   7.102   3.603  0.0041 -0.0920 -0.2518
32958ION     NA49142   9.817   7.409   6.218 -0.0412 -0.0254  0.2280
32959ION     NA49143   6.720   3.713  10.919  0.1359 -0.1617 -0.3625
32960ION     NA49144   6.769  13.291  10.741  0.1595 -0.0040 -0.0270
32961ION     NA49145   5.034   9.562   5.170  0.1067  0.0096  0.2042
32962ION     NA49146   2.080   8.361   0.916 -0.0704  0.1352  0.4476
32963ION     NA49147  12.752   4.401  13.459  0.2253 -0.3168 -0.1563
32964ION     NA49148   2.248  14.876   5.796 -0.0339 -0.1429 -0.1352
32965ION     NA49149  14.763   2.866  10.573  0.1981  0.3123  0.0381
32966ION     NA49150  14.556   2.245  15.538 -0.2939 -0.0044 -0.0742
32967ION     NA49151   1.662  13.274   3.531  0.1443 -0.3208 -0.0045
32968ION     NA49152   2.375   9.051   3.700  0.2057  0.2825 -0.2462
32969ION     NA49153   4.035  12.006   5.750  0.0317  0.1640  0.2142
32970ION     NA49154  11.649   4.971  10.663 -0.1583 -0.1796 -0.0054
32971ION     NA49155  10.486   5.380  10.900  0.0655 -0.0354  0.1332
32972ION     NA49156   2.237   0.259   5.341  0.3057  0.1177 -0.1464
32973ION     NA49157   0.143   8.488  13.731 -0.2122  0.0343  0.0870
32974ION     NA49158  11.285  12.130  10.990 -0.1080  0.1208 -0.0148
32975ION     NA49159   2.977  14.102  10.689 -0.0271 -0.1092  0.2349
32976ION     NA49160  13.788   4.121  10.798  0.2093  0.1935  0.0642
32977ION     NA49161  11.953  15.229   5.643  0.0386  0.0491  0.0707
32978ION     NA49162  15.954   0.357  10.415 -0.0612 -0.2719 -0.0249
32979ION     NA49163  11.799   1.651  10.730 -0.1128  0.2469  0.3171
32980ION     NA49164  12.934  14.995  10.705  0.3475 -0.1428 -0.1076
32981ION     NA49165   0.228   0.197  10.411  0.0031  0.0924  0.0851
32982ION     NA49166  11.623   4.592  14.291  0.2603  0.3757  0.2876
32983ION     NA49167   4.060  12.605  12.244 -0.0737  0.0146  0.3683
32984ION     NA49168   7.069   0.103  10.815  0.1304 -0.1020  0.0843
32985ION     NA49169  13.001  10.817   0.589  0.0149  0.2047  0.0571
32986ION     NA49170  12.346  15.617   6.049 -0.2206 -0.0592  0.0082
32987ION     NA49171   4.976  17.338  10.815  0.3367 -0.0449  0.0465
32988ION     NA49172   0.539   0.222   6.289  0.1420 -0.0764  0.0937
32989ION     NA49173   8.664   2.750   4.724 -0.3216 -0.3131 -0.1016
32990ION     NA49174   5.269   1.002   5.710  0.0964 -0.0702  0.0079
32991ION     NA49175   1.193  15.236   1.460 -0.0005 -0.0125  0.0422
32992ION     NA49176   5.122  15.454  10.643  0.2909  0.1951 -0.0921
32993ION     NA49177   3.530  16.829   3.951  0.1683  0.2314  0.1244
32994ION     NA49178   6.323   7.369  11.226 -0.0063 -0.1267  0.0775
32995ION     NA49179  12.065  16.531  10.581  0.0793  0.1446 -0.0008
32996ION     NA49180  14.311  14.745  10.763  0.0435 -0.0671  0.1815
32997ION     NA49181  10.353   0.566  10.762  0.0018 -0.2154 -0.2970
32998ION     NA49182   9.776  11.997   6.272  0.1116  0.1317  0.0982
32999ION     NA49183   1.499   1.941   2.823  0.1259  0.0094 -0.1112
33000ION     NA49184   2.167  15.201   2.013 -0.1618 -0.0612 -0.1886
33001ION     NA49185   1.701   9.923  10.529 -0.0280 -0.2434  0.0504
33002ION     NA49186   6.653  15.542  10.595  0.1927  0.1918 -0.1638
33003ION     NA49187  16.538  14.219   5.814  0.2968  0.0896  0.0553
33004ION     NA49188  11.368   1.270   6.137 -0.0293  0.1957 -0.1925
33005ION     NA49189  17.381  12.331  10.429  0.2420 -0.0458 -0.0876
33006ION     NA49190   2.504  11.758  10.961 -0.1445  0.2300  0.0789
33007ION     NA49191  12.621   1.279  10.377 -0.2475  0.1434  0.1463
33008ION     NA49192   6.724   1.488   2.308  0.2503 -0.3289  0.1903
33009ION     NA49193  14.240  15.453   6.069 -0.0782  0.0614 -0.1016
33010ION     NA49194   2.976  15.592  10.197  0.2576 -0.0646  0.1835
33011ION     NA49195  15.804   7.682   0.581  0.2616  0.1285 -0.1836
33012ION     NA49196  17.188   8.882  16.128 -0.0250  0.2712 -0.1860
33013ION     NA49197  13.703   7.279  14.989 -0.1178 -0.1724 -0.2632
33014ION     NA49198  10.909   6.858  10.875 -0.1571 -0.2329 -0.1094
33015ION     NA49199  15.165  11.107   5.835 -0.0093  0.1325  0.0853
33016ION     NA49200   9.470   8.887  10.713 -0.0281  0.2040  0.1460
33017ION     NA49201  15.960   9.769   5.604  0.0902 -0.0049  0.1160
33018ION     NA49202   7.395   9.099  12.190 -0.1171 -0.2360  0.2021
33019ION     NA49203  17.808   7.115  10.683 -0.0929  0.2744 -0.0618
33020ION     NA49204  15.896   5.545  10.407 -0.1190  0.0245  0.0708
33021ION     NA49205   4.094   4.433  15.256 -0.0153 -0.0809  0.1026
33022ION     NA49206  16.381   9.099  10.530  0.0882 -0.1734  0.0043
33023ION     NA49207   2.198   5.166  11.035  0.2622  0.5151 -0.4259
33024ION     NA49208  16.710   1.144   0.111 -0.1713 -0.1024 -0.1007
33025ION     NA49209   4.641   7.924  15.173  0.1416  0.1465 -0.1604
33026ION     NA49210   3.587  10.174  10.618  0.0284  0.0573  0.1021
33027ION     NA49211   9.493  14.678  15.032 -0.2443 -0.1110  0.1851
33028ION     NA49212  11.276   5.952  10.665  0.0939 -0.1972 -0.2708
33029ION     NA49213  11.408   3.655   0.701 -0.3258 -0.0999  0.0053
33030ION     NA49214   9.209   1.629  10.897 -0.1382  0.0345 -0.1952
33031ION     NA49215  15.551  11.877  16.377 -0.1043 -0.2176 -0.0573
33032ION     NA49216  13.014   5.678  10.807 -0.0676  0.1104  0.1959
33033ION     NA49217  10.533   2.844  10.657 -0.0959 -0.0190  0.0253
33034ION     NA49218   0.863  16.494  10.078  0.0871 -0.3105 -0.3145
33035ION     NA49219  16.285  13.334  10.974  0.1506  0.0209  0.1078
33036ION     NA49220  16.425  13.064  11.840  0.1388  0.1622  0.2065
33037ION     NA49221  16.386   9.948  10.799 -0.0258 -0.1809 -0.1468
33038ION     NA49222   4.111  17.097  10.328  0.0511 -0.0039  0.1526
33039ION     NA49223   7.937   0.486  10.853  0.0557  0.0748  0.3062
33040ION     NA49224   4.178  13.749   3.760 -0.0453 -0.1127 -0.1310
33041ION     NA49225   1.836  17.647   6.050 -0.2361 -0.2944 -0.0985
33042ION     NA49226   0.428  17.850   2.884  0.2076  0.1413  0.0877
33043ION     NA49227  11.057  11.397  10.927  0.1838 -0.0197  0.2616
33044ION     NA49228  13.895   6.731  10.791 -0.1768  0.1185  0.1471
33045ION     NA49229   4.766   8.214  11.067 -0.0647 -0.0766 -0.1431
33046ION     NA49230   8.777   5.729  10.938 -0.1287 -0.2152  0.0164
33047ION     NA49231  10.464   8.800  15.831  0.0490  0.1498 -0.1445
33048ION     NA49232   2.636  17.573  10.919 -0.0985  0.0128 -0.4051
33049ION     NA49233   3.032   4.938  10.970  0.1863  0.5676  0.0007
33050ION     NA49234   0.362  10.461  10.502  0.1630  0.2623  0.0878
33051ION     NA49235   5.527   7.714   4.383  0.1664  0.1091  0.0935
33052ION     NA49236  17.109   6.690  10.704 -0.0635  0.0350  0.1631
33053ION     NA49237  14.573  13.106  15.446  0.3046 -0.1099 -0.0137
33054ION     NA49238  10.178   5.352   1.843  0.0187 -0.2540 -0.1451
33055ION     NA49239   6.044   5.818   6.340 -0.1346  0.0403  0.1838
33056ION     NA49240   6.254  16.314  10.730  0.1256 -0.0041 -0.0599
33057ION     NA49241   1.579   8.942  10.742 -0.0884  0.1411 -0.4268
33058ION     NA49242   3.670  17.841  10.522 -0.1909 -0.1784  0.1453
33059ION     NA49243   8.961  15.658  10.880 -0.3362  0.1792 -0.1855
33060ION     NA49244   7.145   3.236   2.331  0.1846 -0.0094 -0.5424
33061ION     NA49245   7.762   3.988   0.767  0.0055  0.2097 -0.2984
33062ION     NA49246  16.785  12.342   6.381 -0.1066 -0.0853 -0.2279
33063ION     NA49247  17.239   3.193  10.387  0.1467 -0.2965 -0.0032
33064ION     NA49248   9.851   4.108  10.702 -0.1518  0.1514  0.0610
33065ION     NA49249   4.873   6.018  14.153  0.1260  0.1688  0.2344
33066ION     NA49250   3.513   5.113   6.520  0.2135  0.3348 -0.0878
33067ION     NA49251   3.740   4.288   6.286  0.0641  0.0741 -0.2445
33068ION     NA49252   7.323  15.404   1.201  0.1463 -0.3571 -0.0048
33069ION     NA49253   9.688   6.244   6.346  0.2813 -0.0967 -0.2132
33070ION     NA49254   1.808   3.808  10.858  0.2189 -0.0728  0.0239
33071ION     NA49255   9.415  12.723   6.312  0.2516  0.1264 -0.0048
33072ION     NA49256  15.379  14.156  11.416  0.0556  0.0230  0.0103
33073ION     NA49257   4.506  16.705  10.452 -0.0450  0.1442  0.1913
33074ION     NA49258   2.301   7.664  11.197 -0.2751  0.0297 -0.2959
33075ION     NA49259  13.892  13.211   5.573  0.0092  0.2947  0.4521
33076ION     NA49260  17.463  15.695  10.474  0.0339  0.1757  0.0796
33077ION     NA49261   5.935  17.135  10.786 -0.4699  0.5271 -0.0068
33078ION     NA49262  17.835  16.543   6.393  0.3812 -0.0285  0.0010
33079ION     NA49263  16.715   0.053   6.214  0.0128 -0.1793 -0.1003
33080ION     NA49264  14.578   0.374   6.137  0.2672 -0.0116 -0.0821
33081ION     NA49265   6.743   6.135  11.227 -0.0363  0.1505  0.0085
33082ION     NA49266   7.590   2.076  11.180  0.0580 -0.2107 -0.2803
33083ION     NA49267   9.395  10.510  11.768  0.0811  0.3208  0.1362
33084ION     NA49268   1.051   4.533  10.832 -0.1547  0.3808  0.1529
33085ION     NA49269   1.934   0.225  10.788 -0.1613  0.1656  0.2263
33086ION     NA49270  15.396   5.660   4.014 -0.2041 -0.3560  0.1746
33087ION     NA49271   7.584  15.707  15.822 -0.1451 -0.4498  0.0463
33088ION     NA49272   7.278   1.700  10.934  0.1215  0.0578  0.0383
33089ION     NA49273   2.399   6.113  15.787 -0.2154 -0.0814 -0.3383
33090ION     NA49274   3.305  16.775  16.018 -0.0232  0.0064 -0.0903
33091ION     NA49275  16.006   1.611  10.245 -0.1630  0.2720 -0.2447
33092ION     NA49276   3.890  13.497  10.835  0.2174 -0.0435  0.1132
33093ION     NA49277  12.535   2.593  10.780  0.1054  0.0741 -0.3015
33094ION     NA49278   3.022  16.420  14.719  0.2202 -0.1480 -0.2126
33095ION     NA49279   7.692   3.465  11.044  0.1224  0.3793  0.3458
33096ION     NA49280   0.350  16.034  13.548  0.1875 -0.1505 -0.0750
33097ION     NA49281  14.690   3.771  10.823  0.1566 -0.0901  0.0448
33098ION     NA49282   6.245   6.997   6.527 -0.1510 -0.0524  0.0947
33099ION     NA49283   7.958   6.289   4.455  0.0321  0.1776 -0.2254
33100ION     NA49284  13.864   1.822  14.169 -0.0143 -0.0472  0.1868
33101ION     NA49285  16.811   5.853  10.386 -0.4958  0.0499 -0.2085
33102ION     NA49286  12.785  13.076  10.805 -0.0857 -0.2784 -0.1904
33103ION     NA49287   1.445  10.356  10.591  0.1321  0.2163  0.0501
33104ION     NA49288  13.799  11.441   1.668 -0.0615 -0.0633 -0.4090
33105ION     NA49289   9.329   3.382  10.695 -0.1196 -0.2245 -0.1461
33106ION     NA49290  17.093  16.505  10.499 -0.1083 -0.1213 -0.1141
33107ION     NA49291  11.456   9.304  10.521  0.2671  0.2006 -0.1190
33108ION     NA49292  16.880   9.229   6.136  0.0349 -0.0652  0.0914
33109ION     NA49293   2.847  12.099   1.223 -0.3588  0.1368 -0.0821
33110ION     NA49294  11.836   0.443   0.795 -0.1229  0.0683  0.0872
33111ION     NA49295   8.273   7.217  11.034  0.1179  0.3380  0.3964
33112ION     NA49296   1.378   1.301   6.102  0.0851  0.1146 -0.0559
33113ION     NA49297   4.394  14.659   5.969 -0.1431  0.0431  0.1314
33114ION     NA49298   7.280  11.890   3.571  0.1803 -0.0426  0.2140
33115ION     NA49299   4.555  12.260   1.817 -0.0778  0.3271 -0.0545
33116ION     NA49300   0.730   6.098  10.888  0.3108 -0.2048  0.2892
33117ION     NA49301   7.594  14.319   5.511 -0.2805  0.1708 -0.0984
33118ION     NA49302   8.315   1.959  10.753 -0.1482  0.3246 -0.1831
33119ION     NA49303  13.347  12.131  10.644  0.1700  0.3866 -0.1649
33120ION     NA49304  11.497   8.907   6.062 -0.2916 -0.0353 -0.1044
33121ION     NA49305   2.214  13.617  10.585 -0.1143  0.1291 -0.0437
33122ION     NA49306   6.731   7.785   3.658 -0.2254 -0.0533  0.3194
33123ION     NA49307   9.861   7.185   2.202  0.0082 -0.2296  0.1650
33124ION     NA49308   9.989  15.561   4.237  0.0875  0.2246  0.0227
33125ION     NA49309  11.831   0.005  10.539  0.1187  0.0408 -0.2045
33126ION     NA49310  15.841  14.053  10.598 -0.0654  0.0815  0.1465
33127ION     NA49311  12.317   5.908   5.744 -0.2519  0.1892  0.3346
33128ION     NA49312  17.697  14.805  10.596 -0.1712  0.2322  0.0205
33129ION     NA49313   7.811  14.685   1.434 -0.0419  0.2225 -0.1000
33130ION     NA49314   5.064  16.977  15.478  0.2625  0.1074  0.1268
33131ION     NA49315   2.275   2.427   6.273 -0.1757 -0.2377 -0.0532
33132ION     NA49316   2.287  11.238   5.474  0.1233 -0.1712 -0.1014
33133ION     NA49317   4.049   5.030  11.079  0.1606 -0.0418 -0.1488
33134ION     NA49318   1.834  16.342  14.730 -0.3678  0.0804  0.1369
33135ION     NA49319   3.637  11.705  13.851  0.0546 -0.0052 -0.2351
33136ION     NA49320  17.572   0.692  10.332  0.0862  0.1940 -0.1215
33137ION     NA49321  16.535   2.568  12.413  0.2496  0.0074 -0.0316
33138ION     NA49322   2.886   0.299  10.650 -0.4073  0.0225 -0.1053
33139ION     NA49323   6.721  13.963   5.676  0.3624  0.0175  0.0364
33140ION     NA49324   3.257  10.970  10.797  0.0341  0.4630  0.1621
33141ION     NA49325   4.030   7.471  12.722  0.0890 -0.1430  0.1331
33142ION     NA49326   0.057   7.594  10.577  0.0625 -0.0083  0.1247
33143ION     NA49327  13.511  14.338  10.931  0.1416  0.1367 -0.1090
33144ION     NA49328  14.225  13.577   5.558 -0.2659  0.1648 -0.0775
33145ION     NA49329  16.488   8.132   1.380 -0.1139  0.2285 -0.0499
33146ION     NA49330  10.010  13.337  10.590  0.1172 -0.0510 -0.0405
33147ION     NA49331  10.489  10.320   6.115  0.1974  0.2021 -0.3630
33148ION     NA49332   3.014  14.327   5.911  0.0630 -0.0110 -0.0501
33149ION     NA49333  16.554   9.029  11.759 -0.0121  0.0782 -0.0249
33150ION     NA49334   0.739   1.940   1.288  0.2207  0.1445  0.1782
33151ION     NA49335   1.029   1.731  10.663 -0.1738 -0.0082  0.0635
33152ION     NA49336   3.503   4.255  10.955 -0.0916 -0.3136  0.0174
33153ION     NA49337  11.815   3.110   5.792  0.2559 -0.1062 -0.0456
33154ION     NA49338  16.564  12.694  10.872 -0.0360  0.0219 -0.2545
33155ION     NA49339   8.344  16.185  14.618 -0.0546 -0.1033  0.0351
33156ION     NA49340   0.794  12.729  10.738  0.1671 -0.3330 -0.0577
33157ION     NA49341   3.363  15.253   1.502 -0.0793 -0.1319  0.0784
33158ION     NA49342   3.800   8.072  11.059 -0.2207  0.0278  0.1359
33159ION     NA49343  11.826  13.520  10.820 -0.0582  0.1842 -0.1276
33160ION     NA49344  11.051  15.693   5.700 -0.1692 -0.1223  0.1699
33161ION     NA49345   2.282  11.270  12.239  0.1472 -0.2211  0.1240
33162ION     NA49346   6.964  17.273  10.817 -0.2336  0.2684 -0.1713
33163ION     NA49347  12.036   5.044   4.200 -0.2149 -0.0761 -0.1687
33164ION     NA49348  14.527  16.635  11.759  0.2565  0.2148  0.1995
  18.00547  18.00547  16.70062
