INSANE! Membrane UpperLeaflet>loPI:POPI:DPPI:PYPI:ERGO=180.0:5.0:3.0:2.0:10.0 LowerLeaflet>PSPI:POPI:POPS:YOPS:POPE:YOPE:POPC:YOPC:ERGO=6.0:14.0:21.0:9.0:9.0:21.0:12.0:48.0:60.0
49348
    1loPI    C1    1  15.764  12.296  10.290  0.1321  0.0749  0.1430
    1loPI    C2    2  15.522  12.042  10.099  0.1651 -0.0281  0.2371
    1loPI    C3    3  15.369  12.314  10.348  0.1263  0.0725  0.1046
    1loPI   PO4    4  15.992  12.289  10.058  0.1536 -0.1643 -0.1880
    1loPI   GL1    5  16.048  12.474   9.699 -0.0578  0.0310 -0.3579
    1loPI   GL2    6  15.874  12.776   9.513 -0.1429  0.0376 -0.2308
    1loPI   C1A    7  16.126  12.133   9.284  0.0354  0.1887 -0.1177
    1loPI   C2A    8  15.902  11.914   8.910  0.0750  0.1013 -0.0445
    1loPI   C3A    9  15.877  11.644   8.546  0.0600 -0.0468 -0.1472
    1loPI   C4A   10  15.782  11.670   8.046 -0.0008 -0.2299 -0.1457
    1loPI   C5A   11  15.761  12.046   7.664  0.0102  0.1385 -0.2133
    1loPI   C6A   12  16.096  12.111   7.333  0.1798 -0.1628  0.0241
    1loPI   C1B   13  16.189  12.596   9.197  0.0088  0.0124 -0.0293
    1loPI   C2B   14  16.537  12.596   8.908  0.2385 -0.0118 -0.1015
    1loPI   C3B   15  16.797  13.043   8.956  0.0592 -0.0896 -0.0968
    1loPI   C4B   16  16.968  13.122   9.363  0.2538 -0.0572 -0.0435
    2loPI    C1   17  18.587   9.696   9.888  0.0091 -0.0278 -0.2630
    2loPI    C2   18  18.397  10.007  10.054  0.0217 -0.1323 -0.0490
    2loPI    C3   19  18.468   9.678  10.270  0.3834 -0.1228 -0.1472
    2loPI   PO4   20  18.508   9.679   9.672 -0.2558 -0.3209  0.3193
    2loPI   GL1   21  18.144   9.606   9.361 -0.3108 -0.1989 -0.3549
    2loPI   GL2   22  17.956   9.817   9.275 -0.0738  0.1900 -0.2811
    2loPI   C1A   23  18.162   9.564   8.908  0.4874  0.0646  0.0370
    2loPI   C2A   24  18.005   9.539   8.522  0.1082  0.1394 -0.3185
    2loPI   C3A   25  18.236   9.413   8.136 -0.2162  0.0068 -0.1639
    2loPI   C4A   26  18.676   9.417   8.086 -0.1590  0.0007  0.1229
    2loPI   C5A   27  19.047   9.289   8.023  0.0331 -0.0329 -0.0230
    2loPI   C6A   28  19.387   9.466   7.668 -0.1681 -0.1593 -0.0891
    2loPI   C1B   29  17.922   9.990   8.825  0.1862 -0.0930 -0.0177
    2loPI   C2B   30  17.844  10.287   8.480  0.2939  0.0336  0.1105
    2loPI   C3B   31  17.624  10.490   8.061 -0.0350 -0.0298 -0.0121
    2loPI   C4B   32  17.795  10.554   7.604  0.1117 -0.1734  0.3230
    3loPI    C1   33   5.366   6.822  10.349 -0.0746  0.0810 -0.1215
    3loPI    C2   34   5.280   6.434  10.395  0.1933  0.0302 -0.0309
    3loPI    C3   35   5.042   6.712  10.557  0.0277 -0.0967 -0.0537
    3loPI   PO4   36   5.422   6.895  10.078 -0.1576 -0.0963  0.2806
    3loPI   GL1   37   5.218   7.096   9.756  0.0348 -0.1323  0.1573
    3loPI   GL2   38   5.126   6.779   9.648 -0.0678 -0.2283  0.1229
    3loPI   C1A   39   5.280   7.081   9.265  0.0219 -0.3253  0.0667
    3loPI   C2A   40   5.186   7.045   8.862 -0.0662  0.0275  0.0013
    3loPI   C3A   41   5.132   6.921   8.493 -0.2343 -0.1163  0.3811
    3loPI   C4A   42   5.277   6.761   8.090  0.1349  0.0265  0.3162
    3loPI   C5A   43   5.259   6.556   7.682 -0.1621  0.0715  0.0074
    3loPI   C6A   44   5.091   6.156   7.536  0.1151 -0.0020  0.2594
    3loPI   C1B   45   5.051   6.547   9.180 -0.0915  0.4231  0.2880
    3loPI   C2B   46   5.214   6.356   8.697  0.3160 -0.2143  0.0373
    3loPI   C3B   47   5.315   6.336   8.330 -0.0147 -0.1175  0.2980
    3loPI   C4B   48   5.088   6.184   8.014  0.0747 -0.1366  0.1171
    4loPI    C1   49  12.904  17.520  10.181  0.0438  0.0892 -0.1917
    4loPI    C2   50  12.639  17.236  10.276  0.0427  0.1372 -0.0494
    4loPI    C3   51  12.916  17.348  10.542 -0.0345  0.3570 -0.0590
    4loPI   PO4   52  12.923  17.533   9.908  0.3824  0.2099  0.0806
    4loPI   GL1   53  13.087  17.686   9.508  0.3072  0.3353  0.2036
    4loPI   GL2   54  13.239  17.366   9.475 -0.1044 -0.1121 -0.1791
    4loPI   C1A   55  13.062  17.883   9.079  0.6341 -0.0638 -0.1826
    4loPI   C2A   56  13.026  17.867   8.673 -0.1646 -0.1769 -0.0980
    4loPI   C3A   57  13.103  17.661   8.334  0.1173  0.3697  0.1253
    4loPI   C4A   58  13.312  17.686   7.959  0.1375  0.2314 -0.4894
    4loPI   C5A   59  13.584  17.379   7.795 -0.1756 -0.0592  0.2614
    4loPI   C6A   60  14.092  17.263   7.649  0.0308 -0.0380 -0.3843
    4loPI   C1B   61  13.174  17.385   9.007 -0.1901  0.0569  0.2581
    4loPI   C2B   62  13.226  17.307   8.608 -0.3396  0.5710  0.1203
    4loPI   C3B   63  13.277  17.239   8.148 -0.0284  0.1516  0.0585
    4loPI   C4B   64  13.030  17.309   7.749  0.0541 -0.1174 -0.2013
    5loPI    C1   65  11.092   4.746  10.361  0.0306 -0.1765 -0.0210
    5loPI    C2   66  10.817   4.922  10.591  0.1665  0.2244 -0.1572
    5loPI    C3   67  11.206   4.984  10.662  0.2190 -0.0837 -0.1634
    5loPI   PO4   68  11.000   4.815  10.114  0.1310  0.0735  0.1716
    5loPI   GL1   69  10.973   4.626   9.719  0.2270 -0.0414 -0.3294
    5loPI   GL2   70  11.012   4.917   9.461 -0.2062 -0.1618 -0.0103
    5loPI   C1A   71  11.258   4.545   9.257  0.1215 -0.1002 -0.0425
    5loPI   C2A   72  11.391   4.645   8.919 -0.2100 -0.2353  0.2699
    5loPI   C3A   73  11.347   4.616   8.513 -0.2701  0.0447 -0.1127
    5loPI   C4A   74  11.445   4.576   8.004 -0.1229 -0.0831 -0.1492
    5loPI   C5A   75  11.621   4.598   7.636  0.0762 -0.2047 -0.0010
    5loPI   C6A   76  12.052   4.653   7.532 -0.0901  0.2720 -0.3994
    5loPI   C1B   77  10.937   4.947   9.124  0.1643 -0.3152 -0.2162
    5loPI   C2B   78  10.983   4.929   8.707 -0.3289 -0.1207  0.1448
    5loPI   C3B   79  10.972   4.909   8.314  0.0080  0.1462  0.0285
    5loPI   C4B   80  11.000   4.833   7.782  0.0826 -0.0405 -0.1269
    6loPI    C1   81   8.142  16.002   9.854  0.0731  0.0844 -0.1587
    6loPI    C2   82   7.881  15.713   9.762  0.2587 -0.2149  0.2240
    6loPI    C3   83   7.813  15.951  10.076 -0.0357  0.3584 -0.2523
    6loPI   PO4   84   8.217  16.147   9.614  0.4400  0.0364 -0.0194
    6loPI   GL1   85   8.089  16.488   9.355 -0.0584 -0.1858  0.2252
    6loPI   GL2   86   8.435  16.399   9.225  0.0461 -0.1004  0.1881
    6loPI   C1A   87   7.974  16.527   8.983 -0.2207 -0.1095 -0.6181
    6loPI   C2A   88   7.934  16.079   8.706 -0.0304  0.2996  0.1134
    6loPI   C3A   89   8.088  15.676   8.409  0.1315  0.1386  0.0048
    6loPI   C4A   90   7.998  15.261   8.060  0.0891 -0.1496  0.0771
    6loPI   C5A   91   7.841  15.292   7.603  0.0794 -0.2177  0.0966
    6loPI   C6A   92   7.894  15.614   7.279  0.1119  0.0165  0.2862
    6loPI   C1B   93   8.390  16.300   8.767  0.0381  0.0428 -0.1295
    6loPI   C2B   94   8.447  16.121   8.407  0.0268 -0.0195 -0.0741
    6loPI   C3B   95   8.343  16.064   8.033 -0.2673  0.1050  0.0051
    6loPI   C4B   96   8.019  15.774   7.860  0.1255  0.0842 -0.3748
    7loPI    C1   97   0.781   3.946  10.569  0.0989 -0.0057  0.1257
    7loPI    C2   98   0.928   4.251  10.781 -0.0328 -0.0113  0.2267
    7loPI    C3   99   0.610   4.050  10.916  0.1090 -0.2525  0.2068
    7loPI   PO4  100   0.867   4.018  10.279 -0.1068 -0.0428 -0.1064
    7loPI   GL1  101   1.076   4.277   9.982  0.1786  0.1447  0.1844
    7loPI   GL2  102   1.330   4.383  10.067 -0.1455  0.1770 -0.2863
    7loPI   C1A  103   1.320   4.174   9.612  0.0185  0.1008  0.3006
    7loPI   C2A  104   1.366   4.022   9.148  0.0625 -0.0398 -0.1395
    7loPI   C3A  105   1.435   4.166   8.789 -0.0191 -0.0323  0.1556
    7loPI   C4A  106   1.468   4.433   8.413  0.1679 -0.2176  0.1236
    7loPI   C5A  107   1.752   4.598   8.196  0.1954 -0.1293 -0.3436
    7loPI   C6A  108   2.078   4.246   8.091 -0.2047  0.2363  0.0905
    7loPI   C1B  109   1.283   4.658   9.717 -0.0151  0.1185 -0.2678
    7loPI   C2B  110   1.291   4.522   9.223 -0.0412 -0.2293  0.0338
    7loPI   C3B  111   1.289   4.966   8.874  0.1019 -0.2492  0.0589
    7loPI   C4B  112   1.249   5.293   8.651 -0.3340 -0.0296 -0.1601
    8loPI    C1  113  11.730   0.777  10.149 -0.1012 -0.0662 -0.0559
    8loPI    C2  114  11.557   0.568  10.443 -0.2598 -0.1341 -0.1960
    8loPI    C3  115  11.504   0.964  10.422 -0.2032 -0.1213 -0.1017
    8loPI   PO4  116  11.668   0.585   9.883  0.3098  0.1533  0.1120
    8loPI   GL1  117  11.508   0.323   9.538  0.0184 -0.3342  0.1640
    8loPI   GL2  118  11.260   0.455   9.614 -0.0134 -0.0488 -0.0018
    8loPI   C1A  119  11.577   0.258   9.087  0.1915 -0.3701  0.1187
    8loPI   C2A  120  11.686   0.150   8.677 -0.1662 -0.0929 -0.0815
    8loPI   C3A  121  11.660   0.114   8.223 -0.0086 -0.1098  0.3619
    8loPI   C4A  122  11.785  -0.061   7.759 -0.0469  0.4253  0.0144
    8loPI   C5A  123  11.923  -0.137   7.354 -0.1777 -0.1710 -0.0304
    8loPI   C6A  124  11.971  -0.260   6.861 -0.1655  0.3000 -0.1255
    8loPI   C1B  125  11.109   0.317   9.226  0.1764  0.0141 -0.2316
    8loPI   C2B  126  11.205   0.313   8.797  0.0898  0.2593 -0.1913
    8loPI   C3B  127  11.329   0.501   8.357 -0.0307 -0.1750 -0.3401
    8loPI   C4B  128  11.647   0.653   8.207 -0.0481  0.1014  0.0069
    9loPI    C1  129  14.264  12.997  10.008  0.0181  0.0468 -0.1919
    9loPI    C2  130  13.876  13.021  10.102  0.0457  0.1096 -0.0922
    9loPI    C3  131  14.154  13.082  10.382  0.1279  0.0126 -0.1514
    9loPI   PO4  132  14.268  13.042   9.739  0.0186  0.1176  0.1071
    9loPI   GL1  133  14.116  13.253   9.385 -0.1315 -0.0304 -0.1760
    9loPI   GL2  134  14.092  12.929   9.220  0.0972 -0.0035 -0.0850
    9loPI   C1A  135  14.100  13.292   8.882  0.0026 -0.0837 -0.0844
    9loPI   C2A  136  14.128  13.328   8.481  0.0612  0.3138  0.0970
    9loPI   C3A  137  14.311  13.317   8.054 -0.0296  0.0613  0.2524
    9loPI   C4A  138  14.542  13.271   7.679  0.0324  0.2088 -0.0803
    9loPI   C5A  139  14.960  13.344   7.473  0.0552 -0.3652  0.7240
    9loPI   C6A  140  15.316  13.304   7.669  0.1228 -0.5360 -0.3617
    9loPI   C1B  141  14.022  12.762   8.781 -0.2662  0.0642  0.3571
    9loPI   C2B  142  14.319  12.839   8.406  0.1357  0.1916  0.0612
    9loPI   C3B  143  14.453  12.724   7.938  0.4010 -0.2768  0.0258
    9loPI   C4B  144  14.336  12.605   7.473  0.3150 -0.1158  0.2568
   10loPI    C1  145  18.196  12.245  10.378 -0.1006 -0.2239  0.2304
   10loPI    C2  146  18.558  12.406  10.433 -0.0804 -0.2658  0.2205
   10loPI    C3  147  18.311  12.361  10.744 -0.1086 -0.1622  0.2136
   10loPI   PO4  148  18.091  12.158  10.182 -0.1851  0.1319 -0.2787
   10loPI   GL1  149  18.123  12.088   9.788 -0.3496 -0.0271  0.0443
   10loPI   GL2  150  17.846  12.339   9.791  0.0028 -0.0445  0.3399
   10loPI   C1A  151  18.218  12.065   9.354  0.2110 -0.0667  0.0236
   10loPI   C2A  152  18.229  11.909   8.930 -0.0980 -0.3962 -0.1392
   10loPI   C3A  153  18.281  11.913   8.469  0.3015 -0.0707  0.2504
   10loPI   C4A  154  18.151  11.963   7.977 -0.0312  0.3025 -0.2242
   10loPI   C5A  155  17.871  12.134   7.634  0.2743  0.0182  0.2981
   10loPI   C6A  156  17.761  12.298   7.299 -0.3037 -0.0406  0.0370
   10loPI   C1B  157  17.770  12.360   9.233  0.2807  0.1415 -0.1017
   10loPI   C2B  158  17.896  12.464   8.840  0.1250  0.0378  0.2603
   10loPI   C3B  159  17.820  12.337   8.454 -0.0606 -0.0993 -0.0663
   10loPI   C4B  160  17.950  12.443   8.091 -0.1928  0.0523 -0.3673
   11loPI    C1  161  16.525   4.817  10.196 -0.0274 -0.2206  0.1726
   11loPI    C2  162  16.189   4.988  10.331 -0.0308 -0.1015  0.0170
   11loPI    C3  163  16.493   4.918  10.582 -0.0845  0.0003  0.1119
   11loPI   PO4  164  16.324   4.602  10.018  0.2873 -0.5159  0.1554
   11loPI   GL1  165  16.327   4.375   9.659  0.0942  0.0592  0.0953
   11loPI   GL2  166  16.633   4.235   9.473  0.0126 -0.5044  0.0433
   11loPI   C1A  167  16.314   4.716   9.334 -0.4111  0.1505  0.1412
   11loPI   C2A  168  16.212   4.786   8.889  0.1225 -0.0892 -0.2691
   11loPI   C3A  169  16.212   4.780   8.451 -0.1985  0.2317 -0.0663
   11loPI   C4A  170  16.010   4.649   8.011 -0.0970  0.2190  0.1109
   11loPI   C5A  171  15.793   4.342   7.782 -0.0281  0.0360 -0.0049
   11loPI   C6A  172  15.826   4.077   7.434  0.1824  0.3938 -0.1864
   11loPI   C1B  173  16.409   4.240   9.155  0.2721  0.0930  0.0481
   11loPI   C2B  174  16.413   4.356   8.739  0.0017  0.0364  0.1415
   11loPI   C3B  175  16.487   4.394   8.297 -0.0920 -0.1818 -0.0455
   11loPI   C4B  176  16.553   4.501   7.813 -0.1243 -0.2845  0.0917
   12loPI    C1  177  12.424   1.889  10.009 -0.0729 -0.1121  0.1615
   12loPI    C2  178  12.475   2.236  10.202 -0.2217 -0.0753  0.1359
   12loPI    C3  179  12.302   1.927  10.388 -0.0369 -0.1546  0.1774
   12loPI   PO4  180  12.398   1.895   9.752  0.0978 -0.0165 -0.1274
   12loPI   GL1  181  12.134   1.836   9.446 -0.1213  0.3890 -0.1393
   12loPI   GL2  182  11.843   1.738   9.307 -0.0310 -0.1028  0.0862
   12loPI   C1A  183  12.315   1.896   8.983  0.0312 -0.0158 -0.0407
   12loPI   C2A  184  12.165   1.915   8.538 -0.3496 -0.0661 -0.0675
   12loPI   C3A  185  12.191   1.991   8.121  0.0847 -0.0323  0.2052
   12loPI   C4A  186  12.211   1.956   7.659 -0.1344 -0.1586  0.0163
   12loPI   C5A  187  12.154   2.080   7.197 -0.0573  0.3169 -0.2742
   12loPI   C6A  188  12.119   2.506   6.948 -0.1003  0.0231  0.3529
   12loPI   C1B  189  11.630   1.721   8.985  0.0404  0.1822 -0.2549
   12loPI   C2B  190  11.707   1.617   8.565 -0.0118 -0.2128 -0.0428
   12loPI   C3B  191  11.802   1.679   8.206  0.2489 -0.1589 -0.1709
   12loPI   C4B  192  12.039   1.572   7.923 -0.1218  0.3599 -0.0343
   13loPI    C1  193   8.914  16.670  10.001 -0.0083  0.3059 -0.2650
   13loPI    C2  194   9.160  16.933  10.176  0.1934  0.0128 -0.0985
   13loPI    C3  195   8.854  16.779  10.381  0.3470 -0.2257 -0.0449
   13loPI   PO4  196   8.939  16.709   9.709  0.2314 -0.1924 -0.3312
   13loPI   GL1  197   8.797  16.685   9.356 -0.2546  0.1911  0.0522
   13loPI   GL2  198   8.548  16.858   9.241  0.0619  0.3131  0.2467
   13loPI   C1A  199   8.900  16.450   8.939 -0.1400  0.1346 -0.2531
   13loPI   C2A  200   8.856  16.431   8.478 -0.0533  0.3738  0.0759
   13loPI   C3A  201   8.793  16.186   8.039  0.1110  0.1552  0.1090
   13loPI   C4A  202   8.906  16.197   7.596  0.0114  0.1564 -0.0060
   13loPI   C5A  203   9.288  16.182   7.447  0.0345 -0.0449  0.1338
   13loPI   C6A  204   9.690  16.196   7.292  0.0038 -0.1389  0.1227
   13loPI   C1B  205   8.366  16.824   8.754  0.2444  0.0325 -0.1158
   13loPI   C2B  206   8.192  16.640   8.377 -0.0876 -0.0011 -0.2461
   13loPI   C3B  207   8.317  16.531   8.123 -0.0389  0.0693  0.1997
   13loPI   C4B  208   8.491  16.433   7.728  0.2507  0.0230  0.0438
   14loPI    C1  209   7.161  14.404   9.802  0.0249  0.3504 -0.3761
   14loPI    C2  210   7.504  14.347  10.000 -0.0672  0.0752 -0.2909
   14loPI    C3  211   7.506  14.536   9.648  0.1210  0.4114 -0.1150
   14loPI   PO4  212   7.069  14.215   9.795  0.1523 -0.1343 -0.1181
   14loPI   GL1  213   7.065  13.964   9.373 -0.0872  0.1838  0.1478
   14loPI   GL2  214   6.961  13.613   9.537  0.0359  0.0256 -0.2792
   14loPI   C1A  215   6.997  13.817   8.974 -0.1002  0.1846 -0.1810
   14loPI   C2A  216   7.169  13.667   8.562  0.0687 -0.0594  0.3733
   14loPI   C3A  217   7.184  13.196   8.458  0.0983  0.1365 -0.1433
   14loPI   C4A  218   7.352  13.031   8.070 -0.1300 -0.1413 -0.1324
   14loPI   C5A  219   7.541  13.114   7.648  0.0820 -0.2459 -0.0868
   14loPI   C6A  220   7.319  13.140   7.252 -0.1251 -0.0413  0.1736
   14loPI   C1B  221   6.693  13.433   9.250  0.4318  0.0893 -0.1584
   14loPI   C2B  222   6.954  13.263   8.960  0.0032  0.1180 -0.2324
   14loPI   C3B  223   7.351  13.244   8.912  0.0335  0.1716 -0.0345
   14loPI   C4B  224   7.664  13.139   8.608  0.3090  0.6200 -0.1602
   15loPI    C1  225  12.950   6.483  10.026 -0.3272  0.1486  0.1225
   15loPI    C2  226  13.061   6.785  10.265  0.1012  0.0674  0.0340
   15loPI    C3  227  13.009   6.418  10.416 -0.2007  0.1359  0.1018
   15loPI   PO4  228  12.878   6.734   9.784  0.0838  0.2876  0.2599
   15loPI   GL1  229  13.213   6.934   9.505  0.3345 -0.1324  0.3934
   15loPI   GL2  230  13.120   7.217   9.390 -0.0357 -0.2121  0.2078
   15loPI   C1A  231  13.393   7.060   9.051 -0.0708  0.1808 -0.1528
   15loPI   C2A  232  13.293   7.037   8.585 -0.2732  0.1881  0.3991
   15loPI   C3A  233  13.040   7.110   8.254 -0.1312 -0.0779  0.1945
   15loPI   C4A  234  12.843   7.123   7.814  0.2029  0.0275  0.0678
   15loPI   C5A  235  12.997   7.031   7.434  0.0734 -0.0438  0.1940
   15loPI   C6A  236  13.125   6.962   7.049  0.3388 -0.0319  0.0947
   15loPI   C1B  237  12.905   7.013   9.011  0.0745 -0.0764  0.1801
   15loPI   C2B  238  12.768   7.047   8.646 -0.1443  0.3377 -0.1690
   15loPI   C3B  239  12.494   7.024   8.203  0.1132 -0.2956  0.0734
   15loPI   C4B  240  12.306   6.962   7.765  0.2331  0.4059 -0.2338
   16loPI    C1  241   3.922   7.186  10.312 -0.1966  0.1599  0.0595
   16loPI    C2  242   3.690   7.249  10.631 -0.3172  0.3957 -0.0723
   16loPI    C3  243   4.037   7.444  10.595 -0.0066 -0.0841  0.2093
   16loPI   PO4  244   3.820   7.239  10.036  0.1227 -0.1384  0.0716
   16loPI   GL1  245   4.059   7.272   9.691 -0.1339  0.0060 -0.0234
   16loPI   GL2  246   4.212   7.027   9.457 -0.0919 -0.0034  0.1189
   16loPI   C1A  247   3.980   7.477   9.211 -0.0535 -0.0255 -0.3171
   16loPI   C2A  248   4.140   7.447   8.783 -0.1339 -0.0745 -0.1572
   16loPI   C3A  249   4.010   7.213   8.423 -0.1040 -0.1178  0.3468
   16loPI   C4A  250   3.715   6.877   8.394  0.2064 -0.0897 -0.1695
   16loPI   C5A  251   3.368   6.636   8.212 -0.1514  0.2336 -0.0450
   16loPI   C6A  252   3.133   6.678   7.762  0.1557 -0.0917 -0.1349
   16loPI   C1B  253   4.404   7.132   9.053  0.0833 -0.3394 -0.2751
   16loPI   C2B  254   4.209   6.921   8.769  0.1307  0.1258  0.0287
   16loPI   C3B  255   3.954   6.590   8.672 -0.0173 -0.1783 -0.1149
   16loPI   C4B  256   3.516   6.461   8.806  0.0155 -0.2279  0.0867
   17loPI    C1  257   3.241   6.596  10.338  0.3053  0.1834  0.0725
   17loPI    C2  258   3.309   6.986  10.398  0.2448  0.2089 -0.0215
   17loPI    C3  259   3.327   6.730  10.705  0.3191  0.2805  0.0343
   17loPI   PO4  260   3.103   6.623  10.117  0.1019  0.1615  0.1511
   17loPI   GL1  261   2.923   6.777   9.669  0.3389  0.0938  0.1970
   17loPI   GL2  262   2.691   6.939   9.589  0.2989  0.4072 -0.0924
   17loPI   C1A  263   3.141   6.689   9.294 -0.3479  0.0736 -0.0360
   17loPI   C2A  264   3.195   6.893   8.947  0.2723  0.0653  0.3213
   17loPI   C3A  265   3.276   6.975   8.588  0.1647 -0.2463  0.2432
   17loPI   C4A  266   3.227   7.097   8.237  0.0862 -0.2703 -0.2126
   17loPI   C5A  267   3.085   7.178   7.854 -0.3485 -0.2267 -0.1368
   17loPI   C6A  268   2.653   7.223   7.604  0.0273 -0.0081 -0.0568
   17loPI   C1B  269   2.814   7.049   9.247  0.2086 -0.2926  0.1360
   17loPI   C2B  270   2.722   7.039   8.886 -0.0179  0.3090 -0.1705
   17loPI   C3B  271   2.579   6.933   8.607  0.0284 -0.2269  0.1328
   17loPI   C4B  272   2.916   6.729   8.321 -0.0001 -0.0489  0.0608
   18loPI    C1  273   0.341  10.833   9.887 -0.0174 -0.0747 -0.0224
   18loPI    C2  274   0.428  10.471  10.032 -0.2028  0.0271  0.3559
   18loPI    C3  275   0.058  10.618  10.072 -0.1605  0.2101  0.0962
   18loPI   PO4  276   0.621  10.859   9.745 -0.1833  0.0202  0.0163
   18loPI   GL1  277   0.791  10.752   9.367 -0.1006 -0.0570 -0.1730
   18loPI   GL2  278   0.629  10.484   9.385  0.0259 -0.0066 -0.0872
   18loPI   C1A  279   0.812  10.952   9.066 -0.0621  0.0792  0.0471
   18loPI   C2A  280   0.777  10.855   8.665  0.2931 -0.2255  0.1210
   18loPI   C3A  281   0.782  10.492   8.299 -0.0294  0.1113  0.4867
   18loPI   C4A  282   0.926  10.299   7.897 -0.1283 -0.1139 -0.1153
   18loPI   C5A  283   0.717  10.138   7.640  0.0882  0.1152 -0.0862
   18loPI   C6A  284   0.452   9.915   7.377 -0.0339  0.1398 -0.3193
   18loPI   C1B  285   0.699  10.210   9.059 -0.0881 -0.1517  0.0004
   18loPI   C2B  286   0.763   9.909   8.690 -0.2123  0.2986  0.2885
   18loPI   C3B  287   0.774   9.954   8.240  0.0717 -0.4247  0.0916
   18loPI   C4B  288   0.634   9.748   7.948 -0.4272 -0.1982 -0.1760
   19loPI    C1  289  11.990   1.219  10.005  0.1944 -0.0954 -0.0913
   19loPI    C2  290  12.291   1.448  10.134 -0.0195  0.1260  0.0220
   19loPI    C3  291  11.958   1.413  10.353 -0.0813 -0.1101 -0.1062
   19loPI   PO4  292  12.033   1.353   9.716  0.1742  0.2158  0.0792
   19loPI   GL1  293  11.992   1.180   9.222  0.2159 -0.2137 -0.1536
   19loPI   GL2  294  11.733   1.237   9.246  0.0663 -0.0926  0.2148
   19loPI   C1A  295  12.073   1.426   8.776  0.2299  0.2136 -0.4762
   19loPI   C2A  296  12.227   1.431   8.390 -0.1434  0.1309 -0.0792
   19loPI   C3A  297  12.282   1.203   8.054 -0.0314  0.2732  0.2587
   19loPI   C4A  298  12.339   1.038   7.589  0.0304 -0.0674  0.1423
   19loPI   C5A  299  11.923   1.032   7.427 -0.0323  0.4015  0.1461
   19loPI   C6A  300  11.608   1.318   7.275 -0.1370 -0.4930 -0.0054
   19loPI   C1B  301  11.618   1.226   8.841 -0.1498  0.1817 -0.2479
   19loPI   C2B  302  11.671   1.197   8.369 -0.1462  0.0908  0.1560
   19loPI   C3B  303  11.756   1.095   7.979 -0.2442  0.0808  0.1929
   19loPI   C4B  304  11.497   0.750   7.666  0.1338  0.4170 -0.1162
   20loPI    C1  305  18.122   4.514  10.180  0.2001 -0.1382  0.0082
   20loPI    C2  306  18.160   4.773  10.483  0.2438 -0.0914 -0.0372
   20loPI    C3  307  17.807   4.730  10.300  0.2855  0.0856 -0.1624
   20loPI   PO4  308  18.349   4.614   9.969 -0.2300  0.2769 -0.1894
   20loPI   GL1  309  18.453   4.429   9.626 -0.1856  0.0006  0.0290
   20loPI   GL2  310  18.730   4.669   9.668  0.0872 -0.2257 -0.0052
   20loPI   C1A  311  18.372   4.338   9.204  0.1468 -0.0179  0.2481
   20loPI   C2A  312  18.399   4.281   8.681 -0.0024  0.2952  0.1359
   20loPI   C3A  313  18.307   4.178   8.319  0.1024 -0.1152  0.1228
   20loPI   C4A  314  18.021   4.295   8.056 -0.1347 -0.2420  0.0070
   20loPI   C5A  315  17.807   4.008   7.764 -0.1732 -0.2596 -0.3150
   20loPI   C6A  316  18.077   3.706   7.508 -0.0192  0.2709 -0.2037
   20loPI   C1B  317  18.935   4.624   9.351  0.1506  0.0435  0.0888
   20loPI   C2B  318  19.103   4.646   8.927  0.0126  0.2087 -0.0457
   20loPI   C3B  319  19.321   4.786   8.565  0.2954 -0.3053  0.0142
   20loPI   C4B  320  19.668   4.785   8.301 -0.1084  0.2425 -0.0160
   21loPI    C1  321   9.437   9.272  10.143 -0.0705  0.0432 -0.1132
   21loPI    C2  322   9.696   9.007   9.991  0.1301  0.1928 -0.0366
   21loPI    C3  323   9.534   8.944  10.351  0.0349  0.0831 -0.0981
   21loPI   PO4  324   9.314   9.392   9.860  0.0361 -0.1831  0.1370
   21loPI   GL1  325   9.239   9.580   9.543  0.3177 -0.1636 -0.1913
   21loPI   GL2  326   8.928   9.780   9.476 -0.1003  0.2745 -0.1815
   21loPI   C1A  327   9.351   9.508   9.156 -0.0486  0.2751 -0.0895
   21loPI   C2A  328   9.265   9.623   8.692 -0.1630  0.0829 -0.0944
   21loPI   C3A  329   9.304   9.590   8.321 -0.0458  0.0102  0.1538
   21loPI   C4A  330   9.144   9.417   8.019  0.1231  0.1636 -0.0575
   21loPI   C5A  331   9.272   9.152   7.756  0.1527  0.2208 -0.2906
   21loPI   C6A  332   9.388   8.956   7.431 -0.3982 -0.0428  0.1845
   21loPI   C1B  333   8.719   9.818   9.124  0.1175  0.2837 -0.3148
   21loPI   C2B  334   8.864   9.835   8.702  0.0312 -0.0802  0.0964
   21loPI   C3B  335   8.903   9.901   8.269  0.0238  0.0953  0.0763
   21loPI   C4B  336   8.838  10.240   8.062  0.0663 -0.0935  0.1838
   22loPI    C1  337   7.320  16.053   9.861 -0.0700 -0.1671 -0.0900
   22loPI    C2  338   7.013  15.911  10.075 -0.1559  0.1227 -0.0158
   22loPI    C3  339   7.343  16.041  10.260  0.0165 -0.1888 -0.0953
   22loPI   PO4  340   7.264  15.848   9.646  0.0213 -0.2051  0.1949
   22loPI   GL1  341   7.256  16.059   9.288  0.1349  0.0372  0.1180
   22loPI   GL2  342   7.119  15.690   9.237  0.0227 -0.4440 -0.0585
   22loPI   C1A  343   7.475  15.762   8.929 -0.0157 -0.3467 -0.2647
   22loPI   C2A  344   7.553  15.647   8.519  0.0192 -0.3164 -0.1072
   22loPI   C3A  345   7.471  15.353   8.018  0.0444 -0.0229  0.3231
   22loPI   C4A  346   7.314  15.142   7.635 -0.1982 -0.1831 -0.2620
   22loPI   C5A  347   7.172  15.109   7.263  0.0600  0.0518 -0.5274
   22loPI   C6A  348   7.074  14.988   6.796  0.2007  0.1218  0.2981
   22loPI   C1B  349   7.136  15.339   8.785  0.0353 -0.0724  0.0955
   22loPI   C2B  350   7.167  15.169   8.477 -0.0973  0.4658  0.1660
   22loPI   C3B  351   6.974  15.258   8.110  0.3206 -0.3407  0.2558
   22loPI   C4B  352   6.886  14.959   7.730 -0.0524  0.0215 -0.1399
   23loPI    C1  353  17.260  10.570  10.287 -0.0934 -0.0123 -0.0642
   23loPI    C2  354  17.452  10.508  10.632 -0.0710 -0.0584 -0.0847
   23loPI    C3  355  17.216  10.828  10.589  0.1271  0.0857 -0.1138
   23loPI   PO4  356  17.448  10.527  10.091  0.0703  0.1977 -0.1133
   23loPI   GL1  357  17.424  10.490   9.616  0.3308  0.0418  0.2232
   23loPI   GL2  358  17.598  10.193   9.645  0.3040  0.3249  0.1732
   23loPI   C1A  359  17.181  10.181   9.409 -0.0556 -0.1062  0.0019
   23loPI   C2A  360  17.038  10.037   8.989  0.0689  0.0417 -0.1001
   23loPI   C3A  361  16.849   9.881   8.774 -0.1278 -0.2050  0.0429
   23loPI   C4A  362  16.688   9.808   8.307  0.1011  0.0513 -0.2143
   23loPI   C5A  363  16.878   9.593   7.855  0.0217 -0.1628  0.1207
   23loPI   C6A  364  16.841   9.483   7.347  0.1662  0.1344 -0.1469
   23loPI   C1B  365  17.722  10.258   9.270  0.0524 -0.1001 -0.1966
   23loPI   C2B  366  17.799  10.666   9.013 -0.1549 -0.3896  0.1485
   23loPI   C3B  367  17.490  10.761   8.517  0.1423  0.0331 -0.1434
   23loPI   C4B  368  17.036  10.892   8.376 -0.1067  0.2658 -0.1893
   24loPI    C1  369  17.123   6.014  10.138  0.0739  0.2342 -0.2189
   24loPI    C2  370  17.145   6.303  10.415  0.1588 -0.0233  0.0488
   24loPI    C3  371  16.791   6.143  10.319  0.1019  0.2180 -0.1559
   24loPI   PO4  372  17.160   6.100   9.942 -0.2105  0.3630  0.1209
   24loPI   GL1  373  17.131   5.955   9.531  0.0915 -0.2517 -0.2847
   24loPI   GL2  374  16.930   6.160   9.479 -0.0362  0.0243  0.1875
   24loPI   C1A  375  17.294   5.798   9.118  0.0372 -0.2087  0.0595
   24loPI   C2A  376  17.306   5.630   8.716 -0.1440  0.2292 -0.0332
   24loPI   C3A  377  17.512   5.561   8.431 -0.2908 -0.1476 -0.0761
   24loPI   C4A  378  17.786   5.729   8.118  0.0729 -0.1413  0.2016
   24loPI   C5A  379  17.878   5.649   7.684 -0.1136 -0.1981 -0.1182
   24loPI   C6A  380  18.195   5.923   7.395 -0.1370 -0.0781 -0.0641
   24loPI   C1B  381  16.778   5.988   9.071 -0.2586 -0.0624  0.4485
   24loPI   C2B  382  16.940   6.127   8.701  0.1450  0.1268  0.3901
   24loPI   C3B  383  17.034   6.054   8.325  0.1083 -0.0983  0.1370
   24loPI   C4B  384  16.854   6.150   7.924 -0.3604 -0.1712  0.0640
   25loPI    C1  385  12.278  16.043   9.963  0.0671 -0.2021  0.4821
   25loPI    C2  386  12.474  16.260  10.236 -0.0490  0.1899  0.2611
   25loPI    C3  387  12.132  16.397  10.080 -0.1232 -0.1539  0.1127
   25loPI   PO4  388  12.435  16.031   9.741  0.2769  0.1950 -0.0358
   25loPI   GL1  389  12.450  15.824   9.403 -0.0044 -0.0624  0.2945
   25loPI   GL2  390  12.103  15.786   9.353 -0.0892 -0.5248 -0.1264
   25loPI   C1A  391  12.463  15.608   8.908  0.0104  0.0693  0.0593
   25loPI   C2A  392  12.489  15.786   8.557 -0.4020  0.1292  0.0088
   25loPI   C3A  393  12.380  15.642   8.118  0.1669 -0.1712  0.1323
   25loPI   C4A  394  12.255  15.605   7.672  0.2866 -0.0721  0.1611
   25loPI   C5A  395  12.141  15.970   7.395  0.0718  0.1957 -0.3443
   25loPI   C6A  396  12.240  16.433   7.432  0.0278 -0.0173 -0.0376
   25loPI   C1B  397  11.996  15.812   8.956  0.1299  0.0246 -0.3159
   25loPI   C2B  398  11.985  16.041   8.692  0.2010 -0.1340  0.2479
   25loPI   C3B  399  12.198  16.112   8.311 -0.1014 -0.0609  0.0414
   25loPI   C4B  400  12.357  16.064   7.931 -0.1722 -0.2480 -0.0092
   26loPI    C1  401  12.795  15.900  10.042  0.0691 -0.1442 -0.0353
   26loPI    C2  402  12.736  15.621   9.761 -0.2512  0.0346 -0.1506
   26loPI    C3  403  12.524  15.612  10.101  0.4071 -0.4098  0.2735
   26loPI   PO4  404  12.873  16.157   9.898 -0.0240 -0.1256 -0.0338
   26loPI   GL1  405  12.886  16.200   9.459  0.3796 -0.0835  0.0511
   26loPI   GL2  406  12.962  16.458   9.469 -0.0504  0.1786  0.0107
   26loPI   C1A  407  12.661  16.219   9.116 -0.1096 -0.1449 -0.3293
   26loPI   C2A  408  12.509  16.265   8.700  0.1046  0.4387 -0.2204
   26loPI   C3A  409  12.657  16.344   8.301  0.0984  0.3243  0.2180
   26loPI   C4A  410  12.813  16.323   7.825  0.0663  0.0917 -0.1278
   26loPI   C5A  411  12.747  16.225   7.486  0.3549 -0.1456 -0.1648
   26loPI   C6A  412  12.576  16.263   7.072 -0.1308 -0.0719  0.1121
   26loPI   C1B  413  13.287  16.359   9.240 -0.0503  0.3452 -0.0693
   26loPI   C2B  414  13.427  16.359   8.769 -0.3498  0.0437  0.2162
   26loPI   C3B  415  13.496  16.363   8.344 -0.4457  0.0406  0.2570
   26loPI   C4B  416  13.387  16.381   7.926  0.0476  0.1803  0.1830
   27loPI    C1  417   7.878   9.377  10.088 -0.1590 -0.2943  0.2278
   27loPI    C2  418   8.094   9.388  10.424  0.1119  0.1530  0.0479
   27loPI    C3  419   7.874   9.705  10.317  0.1238  0.0617 -0.2569
   27loPI   PO4  420   7.965   9.269   9.949  0.0037  0.0388 -0.4767
   27loPI   GL1  421   8.011   9.387   9.597  0.2238  0.0595 -0.1086
   27loPI   GL2  422   7.643   9.459   9.587 -0.2860 -0.1093 -0.1389
   27loPI   C1A  423   7.932   9.300   9.088  0.0467  0.0550 -0.0757
   27loPI   C2A  424   7.966   9.342   8.645  0.1461 -0.0321 -0.0831
   27loPI   C3A  425   7.878   9.101   8.244  0.2191  0.1428 -0.0403
   27loPI   C4A  426   8.011   8.672   8.085  0.0815 -0.1002 -0.3061
   27loPI   C5A  427   7.869   8.422   8.480  0.0583 -0.0360 -0.0265
   27loPI   C6A  428   7.652   8.419   8.919 -0.4502 -0.4058 -0.3479
   27loPI   C1B  429   7.461   9.560   9.280  0.0387 -0.2105 -0.0092
   27loPI   C2B  430   7.309   9.766   8.928 -0.0770 -0.0588  0.0847
   27loPI   C3B  431   7.435   9.959   8.456  0.3272  0.0958 -0.0663
   27loPI   C4B  432   7.384   9.917   7.999 -0.3532  0.1243  0.0636
   28loPI    C1  433  17.837  15.463  10.165 -0.4630 -0.0375  0.0582
   28loPI    C2  434  17.938  15.262  10.496 -0.2411 -0.1183 -0.0558
   28loPI    C3  435  18.109  15.615  10.416 -0.1227 -0.2077 -0.1996
   28loPI   PO4  436  17.767  15.228  10.020 -0.1445  0.0010 -0.0382
   28loPI   GL1  437  17.793  15.070   9.564 -0.4738 -0.0730  0.1083
   28loPI   GL2  438  17.523  14.880   9.506 -0.1545  0.2058 -0.0126
   28loPI   C1A  439  17.780  15.081   9.141 -0.1446  0.1053  0.1142
   28loPI   C2A  440  18.136  15.291   8.877  0.1402  0.1341  0.0835
   28loPI   C3A  441  18.294  15.373   8.447  0.1738  0.2796 -0.1067
   28loPI   C4A  442  18.498  15.332   8.069  0.3465 -0.1018  0.0355
   28loPI   C5A  443  18.515  15.014   7.855 -0.3682 -0.0909  0.2310
   28loPI   C6A  444  18.126  14.842   7.712 -0.0101  0.0254  0.4174
   28loPI   C1B  445  17.691  14.561   9.178 -0.3467 -0.0191  0.1272
   28loPI   C2B  446  17.929  14.709   8.873 -0.0767  0.1415 -0.0274
   28loPI   C3B  447  17.815  15.083   8.581  0.0102 -0.2851 -0.5069
   28loPI   C4B  448  17.598  15.267   8.301 -0.1605 -0.2780  0.3464
   29loPI    C1  449   1.321  18.997  10.158  0.1115 -0.0443  0.0110
   29loPI    C2  450   1.562  18.692  10.065  0.2340  0.0225  0.1054
   29loPI    C3  451   1.299  18.655  10.364  0.1506 -0.0384  0.0251
   29loPI   PO4  452   1.212  19.038   9.875 -0.1365 -0.0791  0.0241
   29loPI   GL1  453   0.897  19.147   9.642 -0.2940  0.1482 -0.2046
   29loPI   GL2  454   1.022  18.915   9.464  0.3223 -0.1085 -0.0730
   29loPI   C1A  455   1.108  19.393   9.416  0.4097 -0.0011  0.3688
   29loPI   C2A  456   1.000  19.576   8.923  0.1612  0.1330 -0.0354
   29loPI   C3A  457   0.957  19.515   8.475 -0.2149  0.3444 -0.0018
   29loPI   C4A  458   0.998  19.699   8.014 -0.0596  0.1995  0.1228
   29loPI   C5A  459   0.754  19.531   7.641  0.1963 -0.3000  0.0985
   29loPI   C6A  460   0.584  19.613   7.244  0.1767 -0.1951 -0.3169
   29loPI   C1B  461   1.212  18.977   9.096  0.1132 -0.0461 -0.0171
   29loPI   C2B  462   1.360  19.254   8.831 -0.0357  0.0618 -0.1929
   29loPI   C3B  463   1.522  19.629   8.610  0.0375  0.1505 -0.0083
   29loPI   C4B  464   1.880  19.806   8.383 -0.1827  0.1977  0.0500
   30loPI    C1  465   1.884   9.769  10.288 -0.0151 -0.0034  0.0320
   30loPI    C2  466   1.491   9.811  10.225 -0.0157 -0.0899 -0.0246
   30loPI    C3  467   1.690  10.084  10.440 -0.0719  0.0496 -0.1480
   30loPI   PO4  468   2.089   9.645  10.085  0.0254 -0.0870  0.1190
   30loPI   GL1  469   1.891   9.535   9.809 -0.0290  0.0862  0.0298
   30loPI   GL2  470   1.759   9.296   9.765  0.1529 -0.0203  0.0233
   30loPI   C1A  471   1.966   9.806   9.431  0.0041 -0.1680 -0.1217
   30loPI   C2A  472   2.002  10.006   9.022 -0.2262  0.0512 -0.1733
   30loPI   C3A  473   2.186  10.015   8.643  0.0310 -0.1477 -0.2567
   30loPI   C4A  474   2.290  10.180   8.257 -0.2819  0.1235 -0.0423
   30loPI   C5A  475   2.490  10.570   8.042  0.1444  0.2204 -0.0308
   30loPI   C6A  476   2.891  10.671   8.099 -0.1703 -0.2332  0.2822
   30loPI   C1B  477   1.609   9.201   9.384 -0.0844  0.1065  0.0258
   30loPI   C2B  478   1.662   9.273   8.863 -0.1064  0.1328 -0.0125
   30loPI   C3B  479   1.554   9.279   8.385 -0.1124 -0.1100 -0.0352
   30loPI   C4B  480   1.781   9.312   7.937  0.2422  0.1611 -0.4270
   31loPI    C1  481  13.187   7.511   9.782 -0.1637  0.2532 -0.0246
   31loPI    C2  482  13.071   7.472  10.162 -0.3144  0.0298 -0.0911
   31loPI    C3  483  13.180   7.149   9.952  0.1273  0.1953 -0.1285
   31loPI   PO4  484  13.003   7.658   9.680  0.1023  0.1807 -0.0331
   31loPI   GL1  485  12.966   7.716   9.313 -0.0775 -0.2651 -0.1994
   31loPI   GL2  486  12.952   7.937   9.093 -0.2182  0.0275  0.0463
   31loPI   C1A  487  13.144   7.543   8.905 -0.1414  0.0563 -0.2417
   31loPI   C2A  488  13.131   7.598   8.475 -0.0869  0.5797 -0.0111
   31loPI   C3A  489  13.134   7.557   8.052 -0.1706 -0.0070  0.3003
   31loPI   C4A  490  13.368   7.784   7.725 -0.1165 -0.2337 -0.1378
   31loPI   C5A  491  13.427   7.905   7.379  0.1203 -0.1596  0.3413
   31loPI   C6A  492  13.695   7.863   7.031  0.0723  0.0030  0.1082
   31loPI   C1B  493  12.843   7.993   8.615  0.3011 -0.2391  0.3256
   31loPI   C2B  494  12.824   8.006   8.137 -0.0784 -0.2822 -0.2528
   31loPI   C3B  495  12.739   7.958   7.835 -0.2840 -0.1120 -0.0554
   31loPI   C4B  496  12.942   7.693   7.445 -0.1728 -0.1655  0.1352
   32loPI    C1  497   6.176   3.262   9.761 -0.2308  0.0836 -0.0730
   32loPI    C2  498   6.150   3.098  10.125 -0.2322  0.0495 -0.0884
   32loPI    C3  499   5.817   3.183   9.920 -0.2324  0.1098 -0.0634
   32loPI   PO4  500   6.406   3.097   9.649  0.2794  0.2047 -0.0753
   32loPI   GL1  501   6.349   3.016   9.308  0.0772 -0.0463 -0.0318
   32loPI   GL2  502   6.199   3.354   9.284  0.0733 -0.1845 -0.0590
   32loPI   C1A  503   6.594   3.168   8.892 -0.0374 -0.0881 -0.0091
   32loPI   C2A  504   6.513   3.500   8.603 -0.0763 -0.0306 -0.0234
   32loPI   C3A  505   6.529   3.752   8.173  0.0990  0.0085 -0.0358
   32loPI   C4A  506   6.432   3.961   7.819  0.2865 -0.0204 -0.0138
   32loPI   C5A  507   6.310   4.340   7.744  0.0122  0.3157  0.0703
   32loPI   C6A  508   6.373   4.705   7.511  0.0638  0.1843 -0.1379
   32loPI   C1B  509   6.144   3.374   8.876 -0.1730 -0.1731  0.0807
   32loPI   C2B  510   6.127   3.268   8.360  0.2589  0.1319  0.1407
   32loPI   C3B  511   5.879   3.196   8.012 -0.1974  0.0444  0.0960
   32loPI   C4B  512   5.669   2.906   7.690  0.1972  0.2521  0.0260
   33loPI    C1  513  11.933   7.740   9.555 -0.1869 -0.2608  0.2475
   33loPI    C2  514  12.118   7.960   9.833 -0.1749  0.1607 -0.0845
   33loPI    C3  515  11.720   7.926   9.838 -0.1538 -0.0887  0.1605
   33loPI   PO4  516  12.041   7.513   9.546 -0.1978  0.1244 -0.0005
   33loPI   GL1  517  11.930   6.993   9.322  0.1465 -0.2015 -0.1599
   33loPI   GL2  518  12.068   6.711   9.422  0.0817  0.0245  0.0285
   33loPI   C1A  519  11.940   6.767   8.856 -0.1469 -0.1695 -0.0053
   33loPI   C2A  520  11.966   6.413   8.601  0.0693 -0.2371 -0.0012
   33loPI   C3A  521  12.207   6.344   8.376  0.0211  0.0351  0.0432
   33loPI   C4A  522  12.523   6.524   8.141  0.0072 -0.0329  0.1893
   33loPI   C5A  523  12.750   6.585   7.886 -0.2544  0.1097  0.4550
   33loPI   C6A  524  12.688   6.683   7.552 -0.0255  0.2044 -0.0870
   33loPI   C1B  525  11.984   6.300   9.140  0.0925  0.0688 -0.3262
   33loPI   C2B  526  11.589   6.169   8.853  0.4063 -0.1281 -0.0234
   33loPI   C3B  527  11.465   6.174   8.485 -0.0210  0.4858  0.0753
   33loPI   C4B  528  11.560   6.042   8.003 -0.3843 -0.4855  0.1548
   34loPI    C1  529   9.324   5.496  10.278  0.1478  0.0808  0.1628
   34loPI    C2  530   8.964   5.590  10.425  0.0001 -0.2684  0.0364
   34loPI    C3  531   9.252   5.460  10.670  0.0278 -0.0338  0.1313
   34loPI   PO4  532   9.257   5.310  10.078  0.1686  0.0803 -0.0028
   34loPI   GL1  533   9.215   5.281   9.578 -0.1979  0.1059  0.3944
   34loPI   GL2  534   9.055   4.998   9.598 -0.0169  0.0196 -0.0167
   34loPI   C1A  535   9.238   5.508   9.207 -0.0930 -0.1307  0.0468
   34loPI   C2A  536   9.252   5.438   8.838 -0.0257 -0.2325 -0.4128
   34loPI   C3A  537   9.183   5.597   8.378 -0.1116  0.1066  0.3644
   34loPI   C4A  538   9.200   5.950   8.029 -0.0831 -0.0912 -0.4215
   34loPI   C5A  539   9.211   6.035   7.666  0.0115 -0.0664 -0.1134
   34loPI   C6A  540   9.017   6.334   7.412  0.1461 -0.0075 -0.0482
   34loPI   C1B  541   9.200   4.963   9.129  0.1785 -0.1230  0.0005
   34loPI   C2B  542   9.183   4.864   8.778  0.1706  0.0769 -0.0085
   34loPI   C3B  543   9.160   5.069   8.353 -0.0450 -0.1158 -0.2268
   34loPI   C4B  544   9.236   5.209   7.954 -0.0200  0.1372  0.1714
   35loPI    C1  545  13.857  14.788  10.380 -0.0856 -0.0281 -0.0480
   35loPI    C2  546  13.732  15.145  10.508  0.1773 -0.0271  0.2178
   35loPI    C3  547  13.685  14.822  10.739 -0.1875 -0.1953 -0.0795
   35loPI   PO4  548  13.782  14.724  10.078  0.0678 -0.0206 -0.4045
   35loPI   GL1  549  13.849  14.763   9.637 -0.0264  0.1016 -0.1160
   35loPI   GL2  550  13.565  14.895   9.506 -0.0186 -0.0533 -0.1292
   35loPI   C1A  551  14.101  14.707   9.284  0.0108 -0.0538 -0.0752
   35loPI   C2A  552  14.204  14.620   8.858 -0.0809  0.0755  0.2412
   35loPI   C3A  553  14.360  14.675   8.417 -0.0576 -0.1513 -0.3325
   35loPI   C4A  554  14.544  14.729   7.998  0.2180 -0.4740  0.2122
   35loPI   C5A  555  14.152  14.828   7.681 -0.1721 -0.1955  0.0224
   35loPI   C6A  556  13.866  14.467   7.582  0.1534 -0.1407  0.0237
   35loPI   C1B  557  13.646  14.984   9.064  0.0026  0.1816  0.0984
   35loPI   C2B  558  13.713  14.677   8.719  0.0890 -0.0897 -0.0457
   35loPI   C3B  559  13.860  14.531   8.352 -0.0836 -0.1666  0.0376
   35loPI   C4B  560  14.082  14.406   8.053 -0.0060  0.0934 -0.2804
   36loPI    C1  561   1.626   6.720  10.076 -0.0425 -0.2215  0.0712
   36loPI    C2  562   1.878   6.470   9.891  0.2090 -0.1716  0.3395
   36loPI    C3  563   2.020   6.753  10.136 -0.0776  0.1861  0.1029
   36loPI   PO4  564   1.357   6.553  10.033 -0.0220  0.1621  0.2009
   36loPI   GL1  565   1.196   6.581   9.575 -0.1149 -0.0224  0.0196
   36loPI   GL2  566   1.237   6.839   9.453  0.1878  0.0455 -0.0105
   36loPI   C1A  567   1.298   6.410   9.238 -0.0002 -0.2479  0.1968
   36loPI   C2A  568   1.513   6.351   8.774  0.0623 -0.0220 -0.3183
   36loPI   C3A  569   1.433   6.221   8.424 -0.1309  0.0595  0.3820
   36loPI   C4A  570   1.291   6.116   8.096 -0.1348  0.1497 -0.2176
   36loPI   C5A  571   1.520   5.893   7.806 -0.1679  0.0217 -0.2989
   36loPI   C6A  572   1.430   5.793   7.315  0.2361 -0.0124 -0.1098
   36loPI   C1B  573   1.214   7.007   9.025  0.1926 -0.0419  0.1468
   36loPI   C2B  574   1.269   7.007   8.612  0.1473  0.1789 -0.0306
   36loPI   C3B  575   1.414   7.025   8.175 -0.2633 -0.3201 -0.1512
   36loPI   C4B  576   1.458   6.949   7.690 -0.0354  0.0810  0.1389
   37loPI    C1  577   1.863   2.774  10.327  0.3314  0.2036  0.1140
   37loPI    C2  578   1.677   3.124  10.386 -0.0311  0.0213  0.0797
   37loPI    C3  579   1.720   2.866  10.689  0.2481  0.0984  0.1083
   37loPI   PO4  580   1.782   2.748   9.986  0.1529  0.2744 -0.0736
   37loPI   GL1  581   2.085   2.934   9.703 -0.0508 -0.0971 -0.3068
   37loPI   GL2  582   2.281   2.620   9.588  0.0960 -0.0747 -0.1081
   37loPI   C1A  583   1.832   3.191   9.365 -0.1278  0.0701  0.0494
   37loPI   C2A  584   1.544   3.346   9.054  0.0281 -0.0603  0.0075
   37loPI   C3A  585   1.524   3.679   8.729 -0.2576  0.4067 -0.0707
   37loPI   C4A  586   1.522   3.899   8.336  0.4222 -0.1870 -0.0912
   37loPI   C5A  587   1.626   4.143   8.032  0.3233  0.2573  0.0774
   37loPI   C6A  588   1.699   4.386   7.690  0.1308  0.0893  0.1428
   37loPI   C1B  589   2.237   2.792   9.186 -0.0511 -0.2629  0.2813
   37loPI   C2B  590   2.257   2.747   8.737  0.1615 -0.0360  0.0737
   37loPI   C3B  591   1.994   2.850   8.403  0.1378 -0.0857  0.0405
   37loPI   C4B  592   1.630   2.969   8.159 -0.0131  0.0758 -0.0932
   38loPI    C1  593  17.457  16.986  10.483  0.0775 -0.1325 -0.1132
   38loPI    C2  594  17.522  16.902  10.869 -0.0437  0.1469 -0.0295
   38loPI    C3  595  17.280  17.204  10.768  0.0422  0.1198 -0.3250
   38loPI   PO4  596  17.410  16.710  10.298 -0.0365 -0.3875 -0.3639
   38loPI   GL1  597  17.368  16.810   9.863 -0.0326 -0.0513 -0.3518
   38loPI   GL2  598  17.068  16.757   9.689  0.1712  0.0551  0.0565
   38loPI   C1A  599  17.660  16.898   9.431 -0.1226  0.1461 -0.0847
   38loPI   C2A  600  17.560  16.940   8.923  0.0735 -0.3356  0.4104
   38loPI   C3A  601  17.613  17.076   8.582 -0.0241 -0.1780 -0.0140
   38loPI   C4A  602  17.594  16.785   8.209 -0.0791  0.1378  0.1074
   38loPI   C5A  603  17.619  16.821   7.697 -0.2895  0.0334 -0.1157
   38loPI   C6A  604  17.804  17.105   7.506 -0.0948  0.1672 -0.2822
   38loPI   C1B  605  17.009  16.535   9.269  0.0600  0.1845 -0.2170
   38loPI   C2B  606  17.028  16.611   8.864 -0.0623  0.1102  0.0226
   38loPI   C3B  607  16.906  16.489   8.384  0.2231  0.0192  0.1700
   38loPI   C4B  608  16.772  16.362   7.984 -0.3550 -0.1099 -0.2065
   39loPI    C1  609  18.287   3.180  10.388  0.1357 -0.0070 -0.2861
   39loPI    C2  610  18.271   3.438  10.693 -0.1555  0.1232 -0.4084
   39loPI    C3  611  18.569   3.172  10.672 -0.3468 -0.1553  0.2046
   39loPI   PO4  612  18.066   2.992  10.341  0.0914  0.2739  0.1331
   39loPI   GL1  613  17.803   2.988   9.985  0.1036 -0.1093 -0.0366
   39loPI   GL2  614  17.669   2.723   9.820  0.0820 -0.0948  0.0370
   39loPI   C1A  615  17.602   3.215   9.647 -0.0798 -0.0951  0.0841
   39loPI   C2A  616  17.514   3.268   9.268 -0.0239  0.0391 -0.1148
   39loPI   C3A  617  17.574   3.313   8.872  0.4666 -0.1527  0.1344
   39loPI   C4A  618  17.703   3.406   8.508  0.1192 -0.1357  0.2479
   39loPI   C5A  619  18.062   3.335   8.280 -0.2485 -0.0209 -0.0816
   39loPI   C6A  620  18.148   2.930   8.040 -0.0214 -0.2796 -0.0509
   39loPI   C1B  621  17.689   2.782   9.392 -0.0037  0.0019 -0.0653
   39loPI   C2B  622  17.683   2.802   8.963 -0.0796  0.0588  0.0158
   39loPI   C3B  623  17.453   2.893   8.628  0.1759 -0.0605  0.1455
   39loPI   C4B  624  17.590   2.947   8.152  0.0558  0.0905  0.4053
   40loPI    C1  625  14.490  15.479  10.139 -0.1994 -0.3142 -0.0406
   40loPI    C2  626  14.640  15.116  10.060  0.2123 -0.2016  0.1955
   40loPI    C3  627  14.760  15.316  10.385 -0.0217  0.1422  0.0763
   40loPI   PO4  628  14.423  15.554   9.869  0.1784 -0.0485 -0.1393
   40loPI   GL1  629  14.366  15.338   9.549 -0.4712 -0.3548  0.4715
   40loPI   GL2  630  14.730  15.244   9.593 -0.0195  0.2237 -0.1046
   40loPI   C1A  631  14.506  15.448   9.038  0.3419  0.3306 -0.1000
   40loPI   C2A  632  14.585  15.502   8.656  0.1468  0.0516  0.0270
   40loPI   C3A  633  14.397  15.529   8.139 -0.0870 -0.0621 -0.2150
   40loPI   C4A  634  14.174  15.790   8.017 -0.0425  0.1003 -0.0942
   40loPI   C5A  635  14.026  15.808   7.568 -0.0659 -0.3489 -0.1103
   40loPI   C6A  636  13.610  15.889   7.401  0.0755  0.1394  0.1783
   40loPI   C1B  637  14.913  15.656   9.423  0.0318 -0.0582  0.1433
   40loPI   C2B  638  14.794  15.838   8.986  0.2174  0.0693 -0.1585
   40loPI   C3B  639  14.754  15.991   8.494  0.1228 -0.0618 -0.2446
   40loPI   C4B  640  14.688  15.956   8.030  0.1096  0.2098  0.0122
   41loPI    C1  641  14.210   5.653  10.171 -0.1810  0.2349 -0.0750
   41loPI    C2  642  13.946   5.535  10.447  0.0037 -0.1009 -0.0360
   41loPI    C3  643  14.062   5.281  10.161  0.4701 -0.0414  0.0934
   41loPI   PO4  644  14.098   5.837   9.985 -0.1827  0.2335 -0.0999
   41loPI   GL1  645  14.179   5.925   9.510 -0.2084  0.0413 -0.1111
   41loPI   GL2  646  14.247   6.249   9.342 -0.2077 -0.1655 -0.1790
   41loPI   C1A  647  14.227   5.725   9.069 -0.1447  0.2880  0.1544
   41loPI   C2A  648  14.239   5.601   8.759  0.3281  0.1898 -0.0560
   41loPI   C3A  649  14.306   5.603   8.362 -0.3307  0.0765  0.0267
   41loPI   C4A  650  14.444   5.490   7.990  0.2422  0.1150  0.0825
   41loPI   C5A  651  14.215   5.571   7.647  0.1629  0.0609  0.1475
   41loPI   C6A  652  14.121   5.991   7.463 -0.2435  0.0058 -0.0269
   41loPI   C1B  653  14.488   6.237   8.924  0.1112  0.0760  0.2026
   41loPI   C2B  654  14.251   6.104   8.587  0.0546 -0.2715 -0.5018
   41loPI   C3B  655  14.189   6.009   8.154  0.1706  0.4098 -0.2290
   41loPI   C4B  656  14.428   6.165   7.822 -0.1696  0.0329 -0.1908
   42loPI    C1  657   3.895  15.143  10.315 -0.1695  0.0749  0.0336
   42loPI    C2  658   3.932  14.777  10.472  0.2064  0.0197 -0.1700
   42loPI    C3  659   4.186  15.066  10.579  0.0683  0.1539 -0.2011
   42loPI   PO4  660   3.825  15.162  10.006  0.2243 -0.2062  0.2576
   42loPI   GL1  661   3.514  15.039   9.753  0.1338  0.3507 -0.1168
   42loPI   GL2  662   3.443  14.739   9.844  0.0583  0.0094 -0.0548
   42loPI   C1A  663   3.517  15.268   9.443 -0.1815  0.0241  0.3157
   42loPI   C2A  664   3.543  15.317   9.016 -0.2519 -0.1398  0.3775
   42loPI   C3A  665   3.691  15.607   8.642 -0.2704  0.0510 -0.0684
   42loPI   C4A  666   3.913  15.707   8.272 -0.1382  0.0011 -0.0412
   42loPI   C5A  667   3.989  15.957   7.811  0.0701 -0.0276  0.0259
   42loPI   C6A  668   3.674  16.232   7.632 -0.0390 -0.0156  0.0303
   42loPI   C1B  669   3.407  14.737   9.346  0.0881  0.0081  0.2578
   42loPI   C2B  670   3.431  14.895   8.926  0.2058 -0.0058  0.1013
   42loPI   C3B  671   3.334  15.156   8.577  0.1200 -0.0278 -0.1945
   42loPI   C4B  672   3.555  15.314   8.166 -0.0020 -0.2834  0.0204
   43loPI    C1  673   4.022  18.635  10.240  0.0100  0.2050  0.0172
   43loPI    C2  674   4.222  18.972  10.319  0.2950  0.0441 -0.0070
   43loPI    C3  675   4.398  18.617  10.375 -0.0142 -0.1030  0.0501
   43loPI   PO4  676   3.910  18.670  10.032  0.2936  0.5369  0.2021
   43loPI   GL1  677   3.572  18.886   9.736  0.0784  0.3378 -0.2079
   43loPI   GL2  678   3.329  19.033   9.668  0.0683 -0.2921 -0.1467
   43loPI   C1A  679   3.779  18.886   9.358  0.3728  0.3063 -0.1394
   43loPI   C2A  680   3.779  18.877   8.912 -0.2914  0.2471  0.3472
   43loPI   C3A  681   3.884  19.183   8.595  0.0109  0.0172  0.3046
   43loPI   C4A  682   3.944  19.338   8.072 -0.0740  0.0576 -0.1048
   43loPI   C5A  683   3.755  19.321   7.657  0.1212 -0.2277 -0.2189
   43loPI   C6A  684   3.753  19.423   7.208  0.0718  0.1670  0.1392
   43loPI   C1B  685   3.309  19.154   9.263  0.0467  0.0119 -0.2268
   43loPI   C2B  686   3.412  19.301   8.935 -0.3395  0.2964  0.0402
   43loPI   C3B  687   3.392  19.405   8.437  0.1567  0.3588  0.0211
   43loPI   C4B  688   3.403  19.307   8.005  0.1308 -0.1522 -0.2224
   44loPI    C1  689   6.653   1.064  10.281  0.2127 -0.0376  0.0612
   44loPI    C2  690   6.285   1.049  10.438  0.1545 -0.0498 -0.0748
   44loPI    C3  691   6.562   1.288  10.599  0.1124 -0.1040  0.0799
   44loPI   PO4  692   6.650   1.211   9.974  0.0730  0.0199 -0.3627
   44loPI   GL1  693   6.393   1.195   9.596  0.1713 -0.0891  0.0509
   44loPI   GL2  694   6.167   1.009   9.503  0.0525 -0.3068  0.3111
   44loPI   C1A  695   6.464   1.278   9.128 -0.0529  0.0858  0.0193
   44loPI   C2A  696   6.460   1.144   8.728 -0.0003  0.3093  0.2769
   44loPI   C3A  697   6.371   1.265   8.289 -0.0216 -0.0105  0.0206
   44loPI   C4A  698   6.447   1.526   7.982 -0.1595 -0.1427  0.0421
   44loPI   C5A  699   6.450   1.716   7.600 -0.1376  0.1322 -0.3977
   44loPI   C6A  700   6.694   1.784   7.292  0.0941 -0.1044 -0.0858
   44loPI   C1B  701   6.022   1.161   9.049  0.0591 -0.2890  0.1110
   44loPI   C2B  702   5.580   1.456   8.902  0.4271  0.0185  0.0061
   44loPI   C3B  703   5.440   1.626   8.479 -0.1871  0.2016 -0.1350
   44loPI   C4B  704   4.989   1.534   8.325  0.1063 -0.3306  0.0412
   45loPI    C1  705  11.274  11.934  10.037 -0.1601  0.0998 -0.1840
   45loPI    C2  706  11.127  11.611   9.853  0.0191 -0.1174  0.0467
   45loPI    C3  707  11.079  11.655  10.247  0.2933 -0.0329  0.0729
   45loPI   PO4  708  11.326  12.114   9.769 -0.0246  0.1210 -0.1863
   45loPI   GL1  709  11.180  11.991   9.454 -0.3008  0.2263 -0.1672
   45loPI   GL2  710  11.551  11.828   9.366  0.0814  0.0494 -0.0913
   45loPI   C1A  711  11.036  11.766   9.059  0.0461  0.4269  0.1018
   45loPI   C2A  712  11.167  11.635   8.582 -0.0283 -0.2384 -0.2826
   45loPI   C3A  713  11.052  11.721   8.277  0.0713 -0.2232  0.1476
   45loPI   C4A  714  10.896  11.516   7.950  0.1794 -0.2285  0.1315
   45loPI   C5A  715  11.131  11.172   7.764  0.1986 -0.0251 -0.1408
   45loPI   C6A  716  11.406  10.988   7.487 -0.1049  0.2443 -0.3358
   45loPI   C1B  717  11.537  11.658   8.957 -0.1079 -0.0561  0.2223
   45loPI   C2B  718  11.717  11.523   8.552  0.0805 -0.1233  0.0531
   45loPI   C3B  719  11.943  11.471   8.217 -0.1062  0.2269  0.3738
   45loPI   C4B  720  11.894  11.731   7.821 -0.1185 -0.0724 -0.1785
   46loPI    C1  721   7.768   3.917  10.215 -0.0175 -0.2633 -0.0127
   46loPI    C2  722   7.756   3.846  10.609 -0.1172 -0.1220  0.0104
   46loPI    C3  723   7.684   4.214  10.469  0.2043 -0.1055 -0.1206
   46loPI   PO4  724   7.880   3.633  10.081  0.0110 -0.0627 -0.2016
   46loPI   GL1  725   7.997   3.520   9.599 -0.0095  0.0088  0.1589
   46loPI   GL2  726   7.995   3.207   9.475  0.0376 -0.5040  0.0970
   46loPI   C1A  727   8.084   3.602   9.096  0.1509 -0.1318  0.0812
   46loPI   C2A  728   8.145   3.646   8.568 -0.0674  0.0790  0.1224
   46loPI   C3A  729   8.132   3.634   8.054  0.1049 -0.0073  0.1495
   46loPI   C4A  730   8.127   3.808   7.619 -0.1949 -0.3803 -0.0515
   46loPI   C5A  731   8.020   3.891   7.288  0.4386 -0.0430  0.1456
   46loPI   C6A  732   7.658   3.621   7.105 -0.2639 -0.0650  0.0468
   46loPI   C1B  733   8.069   2.951   9.143 -0.0193 -0.0443 -0.0131
   46loPI   C2B  734   8.146   3.050   8.676  0.1201  0.0505 -0.0126
   46loPI   C3B  735   8.103   3.198   8.331  0.1791  0.2123  0.1165
   46loPI   C4B  736   8.103   3.113   7.951 -0.1543 -0.3096 -0.1754
   47loPI    C1  737   8.838  12.395  10.271  0.0827 -0.4436 -0.1167
   47loPI    C2  738   9.073  12.336  10.589 -0.3373 -0.3458  0.2209
   47loPI    C3  739   8.810  12.055  10.480 -0.1442 -0.4100 -0.0898
   47loPI   PO4  740   9.004  12.376  10.050 -0.1685 -0.1404 -0.2655
   47loPI   GL1  741   8.990  12.177   9.614  0.0901 -0.4393  0.0742
   47loPI   GL2  742   8.955  11.861   9.512  0.0346 -0.1798  0.0573
   47loPI   C1A  743   8.689  12.387   9.362 -0.0647 -0.2812 -0.1599
   47loPI   C2A  744   8.561  12.684   8.977 -0.1051  0.0891  0.1573
   47loPI   C3A  745   8.304  12.960   8.964 -0.0870  0.1913 -0.0480
   47loPI   C4A  746   8.166  13.043   8.567  0.0980  0.2040  0.0661
   47loPI   C5A  747   7.914  13.111   8.142  0.2227 -0.2245  0.1139
   47loPI   C6A  748   7.717  13.422   7.981 -0.1471  0.0923 -0.1947
   47loPI   C1B  749   8.684  11.875   9.168  0.1773  0.0440  0.2078
   47loPI   C2B  750   8.641  11.801   8.678 -0.2036 -0.0659  0.2895
   47loPI   C3B  751   8.721  11.661   8.258 -0.1110 -0.3738  0.1640
   47loPI   C4B  752   8.673  11.584   7.855  0.2168 -0.2320  0.1411
   48loPI    C1  753   3.374   3.272  10.414 -0.1816  0.0927 -0.0369
   48loPI    C2  754   3.020   3.194  10.245 -0.3118  0.0138  0.2666
   48loPI    C3  755   3.189   2.926  10.489  0.0857 -0.0630 -0.0824
   48loPI   PO4  756   3.451   3.438  10.262 -0.0733  0.0367 -0.1510
   48loPI   GL1  757   3.364   3.554   9.862 -0.0547  0.1393 -0.3542
   48loPI   GL2  758   3.517   3.849   9.811 -0.0827  0.0095 -0.1035
   48loPI   C1A  759   3.415   3.513   9.403 -0.1500 -0.4183 -0.0950
   48loPI   C2A  760   3.714   3.521   9.060  0.2997 -0.2382 -0.0526
   48loPI   C3A  761   3.691   3.474   8.694  0.0445 -0.2193  0.3556
   48loPI   C4A  762   3.687   3.362   8.239  0.2006  0.0814  0.0383
   48loPI   C5A  763   3.955   3.125   7.881 -0.0084 -0.1171 -0.1363
   48loPI   C6A  764   3.946   2.922   7.575 -0.1396 -0.0440  0.4191
   48loPI   C1B  765   3.458   4.058   9.462  0.1101 -0.0486 -0.1945
   48loPI   C2B  766   3.465   3.938   9.090  0.1976  0.3840 -0.0508
   48loPI   C3B  767   3.490   3.933   8.742 -0.1959  0.2346  0.3862
   48loPI   C4B  768   3.604   4.091   8.424  0.0474  0.1036  0.2972
   49loPI    C1  769  14.236   8.076  10.201 -0.2238 -0.0836  0.1983
   49loPI    C2  770  14.502   8.263  10.434 -0.2815  0.1924  0.0465
   49loPI    C3  771  14.320   7.932  10.565  0.2816 -0.1183  0.0759
   49loPI   PO4  772  14.360   8.134   9.956 -0.0510  0.2890 -0.2705
   49loPI   GL1  773  14.241   8.513   9.665  0.0478  0.3057 -0.0404
   49loPI   GL2  774  14.373   8.690   9.449 -0.0780  0.2397  0.3094
   49loPI   C1A  775  14.324   8.227   9.300  0.0271  0.2303 -0.0323
   49loPI   C2A  776  14.241   8.189   8.890  0.2858 -0.0927  0.1260
   49loPI   C3A  777  14.191   8.238   8.437  0.1221 -0.1070  0.1650
   49loPI   C4A  778  14.157   8.356   7.908 -0.2212  0.0625 -0.0430
   49loPI   C5A  779  14.291   8.062   7.642 -0.3024 -0.2469  0.2291
   49loPI   C6A  780  14.303   7.734   7.439  0.1279 -0.0425 -0.2184
   49loPI   C1B  781  14.132   8.728   9.164 -0.2712  0.0231  0.0421
   49loPI   C2B  782  14.159   9.024   8.798 -0.1267  0.4336 -0.1941
   49loPI   C3B  783  14.118   9.173   8.360 -0.2265  0.2049  0.3411
   49loPI   C4B  784  14.024   9.391   7.893 -0.3222  0.0045 -0.1435
   50loPI    C1  785   8.224   0.134  10.091  0.3403 -0.0003  0.0005
   50loPI    C2  786   8.508   0.351   9.910  0.2112  0.3063  0.1572
   50loPI    C3  787   8.302   0.506  10.216 -0.0522  0.0482  0.1156
   50loPI   PO4  788   8.142  -0.028   9.891 -0.0246 -0.0556 -0.1563
   50loPI   GL1  789   8.453  -0.106   9.585  0.0669  0.0821 -0.1526
   50loPI   GL2  790   8.318  -0.225   9.392  0.0622  0.0257  0.1050
   50loPI   C1A  791   8.425   0.193   9.217  0.2477  0.0292 -0.2712
   50loPI   C2A  792   8.601   0.263   8.776 -0.1613  0.1823  0.2566
   50loPI   C3A  793   8.840   0.201   8.428  0.0918 -0.0796  0.0725
   50loPI   C4A  794   9.097  -0.103   8.078  0.0603  0.0875  0.0993
   50loPI   C5A  795   9.226  -0.447   7.868  0.1026  0.2849 -0.1192
   50loPI   C6A  796   9.260  -0.806   7.877 -0.3681 -0.1887 -0.1545
   50loPI   C1B  797   8.514  -0.307   9.099  0.3703  0.2051 -0.0096
   50loPI   C2B  798   8.662  -0.407   8.700  0.2207  0.3486 -0.1665
   50loPI   C3B  799   8.693  -0.383   8.287 -0.0189 -0.3603 -0.2599
   50loPI   C4B  800   8.705  -0.442   7.843  0.1607 -0.0288 -0.0770
   51loPI    C1  801   0.750   9.909   9.932 -0.0093  0.1529 -0.0159
   51loPI    C2  802   0.728   9.555  10.118  0.1695  0.2178  0.1328
   51loPI    C3  803   0.856   9.877  10.317  0.0410  0.3601 -0.0115
   51loPI   PO4  804   0.918   9.761   9.644 -0.0399  0.6014  0.1716
   51loPI   GL1  805   1.025   9.911   9.235 -0.2342  0.1422  0.3875
   51loPI   GL2  806   0.811   9.723   9.164  0.2577 -0.1117  0.1096
   51loPI   C1A  807   1.288   9.734   8.890  0.0019 -0.0578  0.1136
   51loPI   C2A  808   1.727   9.689   8.599 -0.2267 -0.3654 -0.1325
   51loPI   C3A  809   2.002   9.687   8.278  0.0056 -0.0564 -0.2669
   51loPI   C4A  810   2.304   9.791   7.967  0.2377 -0.2790  0.2481
   51loPI   C5A  811   2.625   9.619   7.798  0.0325 -0.0254  0.3896
   51loPI   C6A  812   2.966   9.236   7.781 -0.1338 -0.1297 -0.0193
   51loPI   C1B  813   0.474   9.530   8.783 -0.0335 -0.1093 -0.0640
   51loPI   C2B  814   0.372   9.654   8.354 -0.1982  0.1597 -0.1565
   51loPI   C3B  815   0.153   9.750   8.044  0.0669 -0.1517 -0.0609
   51loPI   C4B  816   0.030   9.916   7.688  0.1964  0.2872  0.0257
   52loPI    C1  817   6.296  13.923   9.959 -0.0275  0.0562 -0.1281
   52loPI    C2  818   6.627  13.961   9.737  0.1247  0.0700  0.0976
   52loPI    C3  819   6.641  14.029  10.131 -0.1443  0.0533  0.1123
   52loPI   PO4  820   6.167  14.012   9.854  0.3591 -0.2241 -0.0618
   52loPI   GL1  821   6.306  14.209   9.474  0.1551  0.1812  0.1146
   52loPI   GL2  822   6.190  14.508   9.388 -0.3055  0.0284 -0.1048
   52loPI   C1A  823   6.543  13.928   9.110 -0.1550 -0.1155  0.1802
   52loPI   C2A  824   6.657  13.815   8.656 -0.3344  0.1216 -0.1555
   52loPI   C3A  825   6.812  13.742   8.161  0.1482  0.0054 -0.1309
   52loPI   C4A  826   6.775  13.543   7.849 -0.2605 -0.2774  0.0297
   52loPI   C5A  827   7.068  13.207   7.682 -0.4377  0.0953 -0.2902
   52loPI   C6A  828   7.121  12.716   7.713 -0.1409  0.1966 -0.0226
   52loPI   C1B  829   6.231  14.400   8.930 -0.3045 -0.0123  0.2582
   52loPI   C2B  830   6.157  14.482   8.496 -0.1496  0.0382  0.0225
   52loPI   C3B  831   6.329  14.153   8.262  0.1880  0.2289  0.0086
   52loPI   C4B  832   6.571  13.992   7.881 -0.1047  0.2081 -0.0041
   53loPI    C1  833   0.583   3.600  10.145 -0.0785  0.0467 -0.0220
   53loPI    C2  834   0.351   3.610  10.471  0.0322  0.0273  0.0582
   53loPI    C3  835   0.721   3.461  10.494  0.0066 -0.0625 -0.0988
   53loPI   PO4  836   0.381   3.541   9.900 -0.0051 -0.1147  0.1384
   53loPI   GL1  837   0.270   3.338   9.592 -0.3342  0.3000  0.1485
   53loPI   GL2  838   0.512   3.091   9.744  0.4604  0.0474 -0.0168
   53loPI   C1A  839   0.206   3.293   9.212  0.0419 -0.0045  0.0009
   53loPI   C2A  840   0.196   3.083   8.824  0.2105 -0.0248 -0.3270
   53loPI   C3A  841   0.068   2.963   8.439  0.1538 -0.1554 -0.0886
   53loPI   C4A  842   0.149   3.005   7.888  0.0104  0.1501 -0.2923
   53loPI   C5A  843   0.065   2.791   7.436 -0.0289 -0.1567  0.0756
   53loPI   C6A  844  -0.006   2.652   7.084 -0.1576 -0.0383  0.2027
   53loPI   C1B  845   0.442   2.917   9.426  0.2800 -0.2094  0.1599
   53loPI   C2B  846   0.116   2.725   9.249  0.1968  0.0964  0.1906
   53loPI   C3B  847   0.000   2.638   8.788  0.1081  0.1818 -0.1194
   53loPI   C4B  848   0.006   2.478   8.373  0.3557 -0.0888  0.0806
   54loPI    C1  849  10.204   9.222  10.099  0.1601  0.0554  0.1559
   54loPI    C2  850   9.905   9.331  10.340  0.0604  0.0712  0.0263
   54loPI    C3  851  10.057   8.962  10.365 -0.0573  0.0208  0.0046
   54loPI   PO4  852  10.191   9.172   9.887 -0.2363  0.0386 -0.0265
   54loPI   GL1  853  10.120   9.189   9.541  0.0712 -0.1113  0.0984
   54loPI   GL2  854  10.419   8.842   9.501 -0.1373 -0.0511 -0.0417
   54loPI   C1A  855   9.969   9.277   9.160 -0.0291  0.1325  0.0653
   54loPI   C2A  856   9.771   9.401   8.789 -0.1570  0.0452  0.0665
   54loPI   C3A  857   9.775   9.675   8.355  0.1734  0.1740 -0.1984
   54loPI   C4A  858   9.682   9.818   7.889 -0.1077  0.0512  0.0703
   54loPI   C5A  859   9.295  10.065   7.835  0.3546  0.0598  0.0741
   54loPI   C6A  860   8.974   9.874   7.705 -0.0654 -0.1382  0.2662
   54loPI   C1B  861  10.267   8.768   9.090  0.3558  0.2252 -0.0664
   54loPI   C2B  862  10.023   8.885   8.725  0.2253  0.1420 -0.1708
   54loPI   C3B  863   9.773   9.139   8.310 -0.1153  0.1388 -0.0954
   54loPI   C4B  864   9.762   9.352   8.017 -0.1423 -0.0116  0.4006
   55loPI    C1  865  10.023   4.685  10.138  0.1574 -0.0027 -0.1074
   55loPI    C2  866  10.067   4.545  10.510 -0.0585  0.0320 -0.0671
   55loPI    C3  867   9.701   4.594  10.357  0.0313 -0.1236 -0.3386
   55loPI   PO4  868  10.078   4.499   9.968 -0.0656 -0.0004 -0.0498
   55loPI   GL1  869  10.012   4.544   9.558 -0.0732 -0.1847 -0.1547
   55loPI   GL2  870  10.134   4.311   9.345 -0.2238 -0.4020  0.0465
   55loPI   C1A  871   9.712   4.642   9.178  0.0045  0.1132 -0.1583
   55loPI   C2A  872   9.588   4.609   8.748 -0.1963 -0.0703 -0.1544
   55loPI   C3A  873   9.671   4.650   8.364  0.0225 -0.1196  0.1034
   55loPI   C4A  874   9.616   4.684   7.895  0.0596  0.0142  0.2919
   55loPI   C5A  875   9.722   4.558   7.463 -0.3244  0.3018  0.0708
   55loPI   C6A  876   9.516   4.356   7.236 -0.0972  0.1489 -0.1024
   55loPI   C1B  877  10.104   4.365   8.939  0.0973 -0.1523  0.2098
   55loPI   C2B  878  10.004   4.322   8.532 -0.0714 -0.0081  0.0389
   55loPI   C3B  879  10.099   4.460   8.179  0.1446  0.1382  0.0078
   55loPI   C4B  880  10.138   4.435   7.772  0.2148  0.0853  0.0575
   56loPI    C1  881   3.066   8.264   9.908  0.1774  0.3562  0.2165
   56loPI    C2  882   3.227   8.320  10.270  0.2650 -0.1649  0.2656
   56loPI    C3  883   3.186   7.950  10.124 -0.0758  0.0171 -0.1221
   56loPI   PO4  884   3.195   8.371   9.678  0.1557  0.2224 -0.2198
   56loPI   GL1  885   3.479   8.264   9.357  0.0985 -0.1420  0.1656
   56loPI   GL2  886   3.577   7.928   9.208 -0.0381 -0.0814 -0.1365
   56loPI   C1A  887   3.500   8.274   8.843 -0.1210 -0.0054 -0.0488
   56loPI   C2A  888   3.696   8.230   8.444  0.1841  0.0758  0.0529
   56loPI   C3A  889   3.766   8.064   8.043 -0.2587 -0.2776 -0.1450
   56loPI   C4A  890   3.552   7.994   7.770 -0.2037 -0.1437 -0.1495
   56loPI   C5A  891   3.334   7.966   7.485 -0.1451  0.1690  0.1581
   56loPI   C6A  892   3.137   8.332   7.338  0.3440 -0.0197 -0.0630
   56loPI   C1B  893   3.847   7.800   8.763  0.1568  0.0014 -0.2025
   56loPI   C2B  894   3.963   7.695   8.327 -0.0901  0.0805  0.1155
   56loPI   C3B  895   3.980   7.688   7.815  0.1034  0.0929  0.0744
   56loPI   C4B  896   4.213   7.501   7.364  0.2101 -0.3228 -0.1532
   57loPI    C1  897  18.963   4.049  10.420 -0.0526 -0.2658  0.0574
   57loPI    C2  898  19.350   4.147  10.447 -0.0655 -0.2128  0.0504
   57loPI    C3  899  19.166   3.971  10.756 -0.0815 -0.0741  0.1206
   57loPI   PO4  900  19.011   3.895  10.157 -0.1147  0.1125  0.1596
   57loPI   GL1  901  19.049   3.968   9.705  0.4581  0.1365 -0.0121
   57loPI   GL2  902  18.755   4.016   9.736  0.0120  0.1256 -0.2608
   57loPI   C1A  903  18.934   3.635   9.369 -0.0345  0.2153 -0.1514
   57loPI   C2A  904  18.861   3.535   8.934  0.3010 -0.0659 -0.3703
   57loPI   C3A  905  18.941   3.441   8.523 -0.0206  0.2352 -0.0441
   57loPI   C4A  906  18.972   3.895   8.222  0.0526 -0.0216 -0.2231
   57loPI   C5A  907  18.802   4.191   7.879  0.0492 -0.1708  0.2141
   57loPI   C6A  908  18.330   4.148   7.729 -0.1418 -0.0007  0.1157
   57loPI   C1B  909  18.808   4.112   9.338  0.0226  0.0261 -0.0200
   57loPI   C2B  910  18.846   4.245   8.917 -0.0687  0.2069  0.0824
   57loPI   C3B  911  18.972   4.362   8.511 -0.0483  0.1418 -0.3115
   57loPI   C4B  912  19.086   4.633   8.165  0.0074  0.1797  0.0955
   58loPI    C1  913   0.606  15.645  10.230 -0.0537  0.2367 -0.1699
   58loPI    C2  914   0.758  15.976  10.394 -0.1807  0.3002 -0.1788
   58loPI    C3  915   0.445  15.794  10.564  0.1521 -0.0599  0.0674
   58loPI   PO4  916   0.553  15.691   9.988  0.0542  0.0727  0.1785
   58loPI   GL1  917   0.739  15.528   9.609 -0.3833  0.1590 -0.0113
   58loPI   GL2  918   0.630  15.252   9.660 -0.1813  0.0094  0.0125
   58loPI   C1A  919   0.869  15.692   9.245  0.2149  0.0595 -0.1684
   58loPI   C2A  920   0.996  15.907   8.934  0.0596 -0.1062 -0.3185
   58loPI   C3A  921   1.206  15.916   8.556  0.0381  0.0373  0.1688
   58loPI   C4A  922   1.061  15.754   8.083 -0.0471  0.0245  0.0988
   58loPI   C5A  923   1.290  15.536   7.677 -0.4475 -0.1376 -0.4509
   58loPI   C6A  924   1.396  15.765   7.331  0.0230 -0.0180  0.1096
   58loPI   C1B  925   0.791  15.188   9.246 -0.0129 -0.0134 -0.0144
   58loPI   C2B  926   0.759  15.351   8.861 -0.0632  0.0265  0.2743
   58loPI   C3B  927   1.003  15.429   8.529  0.2135 -0.0909 -0.1574
   58loPI   C4B  928   1.215  15.311   8.154  0.0087  0.3414 -0.1903
   59loPI    C1  929  14.487   8.618  10.137  0.0462 -0.2128  0.2820
   59loPI    C2  930  14.327   8.829  10.436 -0.1632 -0.0801  0.0801
   59loPI    C3  931  14.105   8.561  10.239 -0.0621 -0.0789 -0.0362
   59loPI   PO4  932  14.678   8.734   9.904  0.2232 -0.1100 -0.1576
   59loPI   GL1  933  14.843   8.936   9.435  0.4242 -0.1711 -0.2565
   59loPI   GL2  934  15.188   9.100   9.413  0.2047 -0.0383  0.1045
   59loPI   C1A  935  14.720   8.838   9.030 -0.0349 -0.2679  0.1555
   59loPI   C2A  936  14.594   8.815   8.590 -0.2019  0.2120  0.0077
   59loPI   C3A  937  14.686   8.768   8.166  0.2026  0.0359 -0.0770
   59loPI   C4A  938  14.796   8.888   7.822 -0.2860  0.0476  0.1081
   59loPI   C5A  939  14.946   9.185   7.462 -0.0492 -0.3475  0.2837
   59loPI   C6A  940  15.335   9.361   7.192 -0.1692  0.1477  0.0317
   59loPI   C1B  941  15.252   9.163   9.021  0.1326  0.0693  0.0463
   59loPI   C2B  942  15.513   9.231   8.570 -0.4790  0.2070  0.0470
   59loPI   C3B  943  15.532   9.421   8.112 -0.1060 -0.2021 -0.0247
   59loPI   C4B  944  15.739   9.849   8.025 -0.0839  0.1021  0.0296
   60loPI    C1  945   4.709  11.962  10.427 -0.1490 -0.0743 -0.1647
   60loPI    C2  946   4.479  12.285  10.480 -0.1611 -0.1052 -0.0238
   60loPI    C3  947   4.789  12.218  10.724  0.2267  0.1319 -0.4359
   60loPI   PO4  948   4.784  11.917  10.122  0.4962  0.4362  0.2039
   60loPI   GL1  949   4.812  12.065   9.682 -0.2692  0.2506  0.1476
   60loPI   GL2  950   4.790  12.354   9.560 -0.1273 -0.1702 -0.2502
   60loPI   C1A  951   4.743  11.892   9.244  0.0831 -0.2326 -0.0638
   60loPI   C2A  952   4.925  11.838   8.846  0.0294 -0.2433 -0.2345
   60loPI   C3A  953   4.882  11.892   8.420  0.0537 -0.3701 -0.3772
   60loPI   C4A  954   4.747  11.837   7.971  0.1410  0.1279 -0.0212
   60loPI   C5A  955   4.676  11.898   7.533 -0.0410 -0.0138 -0.0399
   60loPI   C6A  956   4.739  11.896   7.133 -0.2709 -0.2369 -0.2849
   60loPI   C1B  957   4.841  12.366   9.109 -0.3197  0.1313  0.0064
   60loPI   C2B  958   4.840  12.322   8.684 -0.0991 -0.0126  0.0341
   60loPI   C3B  959   4.762  12.293   8.191  0.1178  0.2667 -0.0122
   60loPI   C4B  960   4.867  12.750   7.930 -0.0651  0.2149  0.1829
   61loPI    C1  961  14.985  12.664  10.102  0.0547  0.2040  0.0555
   61loPI    C2  962  14.719  12.884  10.303  0.0806  0.1700  0.1273
   61loPI    C3  963  14.731  12.488  10.355  0.0222  0.1491 -0.0149
   61loPI   PO4  964  15.133  12.911  10.040 -0.3172  0.3339 -0.0243
   61loPI   GL1  965  15.132  12.929   9.641  0.1523  0.0354 -0.0207
   61loPI   GL2  966  15.317  12.666   9.480 -0.0661 -0.1802 -0.3191
   61loPI   C1A  967  14.782  12.906   9.376  0.1321  0.1317 -0.2032
   61loPI   C2A  968  14.715  12.817   8.983  0.4205 -0.0352 -0.0599
   61loPI   C3A  969  14.746  12.706   8.616 -0.1084  0.1667 -0.0258
   61loPI   C4A  970  14.881  12.698   8.264  0.1809 -0.1988 -0.1566
   61loPI   C5A  971  14.975  12.626   7.866  0.0285  0.1064 -0.3598
   61loPI   C6A  972  14.935  12.772   7.442  0.2118  0.2181 -0.1769
   61loPI   C1B  973  15.121  12.547   9.098 -0.1932  0.2634  0.0537
   61loPI   C2B  974  15.221  12.521   8.619  0.3535  0.2830 -0.0029
   61loPI   C3B  975  15.287  12.389   8.217 -0.1149 -0.0059 -0.0325
   61loPI   C4B  976  15.313  12.332   7.758  0.0095  0.4111 -0.0777
   62loPI    C1  977   2.161  17.521  10.174 -0.3135 -0.1819 -0.2042
   62loPI    C2  978   2.002  17.354  10.500  0.0885 -0.0763  0.0529
   62loPI    C3  979   2.370  17.251  10.382 -0.0128 -0.0357 -0.3108
   62loPI   PO4  980   2.025  17.600   9.945 -0.1274  0.2876  0.3020
   62loPI   GL1  981   1.910  17.475   9.628 -0.1118  0.0572  0.4465
   62loPI   GL2  982   1.550  17.450   9.677 -0.3566  0.2561 -0.1414
   62loPI   C1A  983   1.732  17.654   9.278  0.2268 -0.2153  0.1541
   62loPI   C2A  984   1.585  17.626   8.869 -0.2743  0.3779 -0.3395
   62loPI   C3A  985   1.469  17.772   8.558  0.2456  0.0134 -0.0134
   62loPI   C4A  986   1.505  17.844   8.134  0.0542  0.1246 -0.0801
   62loPI   C5A  987   1.294  17.857   7.665 -0.1505 -0.3358  0.2843
   62loPI   C6A  988   1.069  17.834   7.390 -0.0149  0.0607 -0.0975
   62loPI   C1B  989   1.191  17.424   9.333  0.1147  0.0278 -0.0862
   62loPI   C2B  990   0.981  17.610   8.925 -0.0812 -0.1169  0.2799
   62loPI   C3B  991   0.974  17.652   8.419 -0.1425  0.0813 -0.2439
   62loPI   C4B  992   1.030  17.535   7.937 -0.1059  0.1120 -0.2245
   63loPI    C1  993  11.422  16.207   9.847  0.0576  0.1220  0.1845
   63loPI    C2  994  11.024  16.180   9.876  0.0630  0.0655  0.2053
   63loPI    C3  995  11.224  16.441  10.104  0.0093  0.3001 -0.0125
   63loPI   PO4  996  11.456  16.129   9.626 -0.1587 -0.0261  0.3437
   63loPI   GL1  997  11.730  16.113   9.277 -0.0410 -0.0632 -0.2605
   63loPI   GL2  998  11.660  16.407   9.214  0.2838  0.0515  0.1891
   63loPI   C1A  999  12.144  16.330   9.134 -0.0982 -0.1883  0.1769
   63loPI   C2A 1000  12.084  16.569   8.697 -0.0830  0.0500 -0.2212
   63loPI   C3A 1001  12.098  16.590   8.234 -0.4018  0.2547  0.0916
   63loPI   C4A 1002  11.922  16.385   7.854 -0.0749  0.0843  0.2498
   63loPI   C5A 1003  11.637  16.205   7.507 -0.2457  0.3849 -0.2830
   63loPI   C6A 1004  11.560  15.830   7.258  0.1351 -0.2298 -0.1250
   63loPI   C1B 1005  11.569  16.395   8.802 -0.1074 -0.1417  0.5297
   63loPI   C2B 1006  11.695  16.293   8.371  0.2020 -0.1586 -0.0849
   63loPI   C3B 1007  11.737  15.959   8.029  0.1021  0.2773 -0.1909
   63loPI   C4B 1008  11.752  15.672   7.681  0.1165 -0.1848  0.2138
   64loPI    C1 1009   4.419   9.606  10.756  0.1638 -0.0405 -0.0177
   64loPI    C2 1010   4.660   9.847  10.965 -0.0647  0.3065 -0.1458
   64loPI    C3 1011   4.380   9.632  11.154  0.0715  0.2185 -0.0419
   64loPI   PO4 1012   4.299   9.775  10.575 -0.0643 -0.3386  0.1361
   64loPI   GL1 1013   4.338   9.980  10.185 -0.1630 -0.0272  0.0729
   64loPI   GL2 1014   4.410   9.742  10.056  0.1477 -0.1083 -0.0152
   64loPI   C1A 1015   4.043  10.132   9.779 -0.0405 -0.1354 -0.2939
   64loPI   C2A 1016   4.033  10.116   9.251 -0.0597 -0.1972 -0.1368
   64loPI   C3A 1017   4.031  10.195   8.801  0.0456  0.1981  0.1423
   64loPI   C4A 1018   3.963  10.028   8.366  0.1810 -0.0209  0.1342
   64loPI   C5A 1019   4.032  10.051   7.906 -0.0317 -0.4905 -0.3089
   64loPI   C6A 1020   4.342   9.921   7.678  0.0706  0.1242  0.0896
   64loPI   C1B 1021   4.430   9.769   9.593 -0.0287 -0.1330 -0.1914
   64loPI   C2B 1022   4.474   9.786   9.111 -0.2656  0.0988 -0.1147
   64loPI   C3B 1023   4.359   9.911   8.646 -0.0524 -0.2009  0.3364
   64loPI   C4B 1024   4.492  10.042   8.196 -0.1409  0.2578  0.0554
   65loPI    C1 1025   9.280   4.189  10.539  0.1865 -0.3659  0.0366
   65loPI    C2 1026   8.977   3.965  10.673  0.1163 -0.1509  0.2452
   65loPI    C3 1027   9.322   3.978  10.876  0.1041 -0.0361  0.2591
   65loPI   PO4 1028   9.271   4.184  10.339  0.2897  0.2126 -0.0768
   65loPI   GL1 1029   9.251   4.235   9.952  0.0528  0.0817  0.1505
   65loPI   GL2 1030   9.554   4.355   9.876  0.1571  0.1805 -0.1424
   65loPI   C1A 1031   9.155   4.447   9.546 -0.1606 -0.1829  0.2391
   65loPI   C2A 1032   9.173   4.487   9.132  0.1578 -0.1444  0.1973
   65loPI   C3A 1033   9.129   4.409   8.690 -0.1925  0.0275  0.1383
   65loPI   C4A 1034   9.246   4.452   8.232 -0.0149 -0.0329  0.1424
   65loPI   C5A 1035   9.347   4.250   7.793  0.3918  0.3881 -0.0387
   65loPI   C6A 1036   9.306   3.892   7.605 -0.4580  0.1524 -0.2076
   65loPI   C1B 1037   9.586   4.241   9.467  0.2662 -0.0418  0.3011
   65loPI   C2B 1038   9.567   4.200   9.057  0.0112  0.2449 -0.1494
   65loPI   C3B 1039   9.530   4.165   8.564 -0.3734  0.1066  0.1967
   65loPI   C4B 1040   9.671   4.133   8.200  0.6088 -0.3292  0.1750
   66loPI    C1 1041   7.160   1.084  10.046  0.0483  0.2169 -0.0422
   66loPI    C2 1042   7.145   0.822  10.348 -0.0137  0.0541 -0.1846
   66loPI    C3 1043   7.121   1.215  10.422 -0.0048  0.0167  0.0231
   66loPI   PO4 1044   7.337   1.012   9.888  0.3017  0.2008  0.1115
   66loPI   GL1 1045   7.165   0.957   9.536 -0.0048  0.3374 -0.0398
   66loPI   GL2 1046   6.860   0.982   9.521 -0.1204 -0.2193 -0.0511
   66loPI   C1A 1047   7.454   0.932   9.225  0.0808 -0.1037 -0.1391
   66loPI   C2A 1048   7.786   1.019   8.985 -0.1610  0.1158  0.1567
   66loPI   C3A 1049   7.957   1.310   8.593  0.2725  0.0956 -0.0320
   66loPI   C4A 1050   8.187   1.470   8.370  0.2062 -0.1231 -0.0972
   66loPI   C5A 1051   8.126   1.740   8.087 -0.0130 -0.3942 -0.4165
   66loPI   C6A 1052   7.795   1.948   7.803 -0.0791  0.2358  0.1431
   66loPI   C1B 1053   6.979   1.105   9.122 -0.3786 -0.0976  0.1394
   66loPI   C2B 1054   6.981   1.152   8.741  0.0330  0.0774 -0.1263
   66loPI   C3B 1055   6.837   1.171   8.385 -0.4128 -0.0039  0.0191
   66loPI   C4B 1056   6.675   0.959   8.021 -0.0615 -0.0642 -0.0815
   67loPI    C1 1057   9.996   6.826  10.057  0.0515  0.1246 -0.0393
   67loPI    C2 1058  10.235   6.544  10.211 -0.2591 -0.0777  0.0810
   67loPI    C3 1059   9.944   6.703  10.435 -0.2519  0.1517 -0.0704
   67loPI   PO4 1060   9.867   6.764   9.840  0.2124 -0.1168  0.2392
   67loPI   GL1 1061   9.959   6.788   9.453  0.1698  0.3153 -0.1832
   67loPI   GL2 1062  10.132   6.544   9.220  0.2149 -0.0127 -0.0606
   67loPI   C1A 1063   9.724   6.776   8.988  0.2485  0.0197  0.2128
   67loPI   C2A 1064   9.646   7.195   8.760 -0.2361  0.1293  0.1231
   67loPI   C3A 1065   9.964   7.548   8.741 -0.1667  0.1488 -0.0767
   67loPI   C4A 1066   9.856   7.820   8.393  0.1903 -0.2519 -0.2453
   67loPI   C5A 1067   9.509   7.817   8.030  0.2532 -0.2068  0.1908
   67loPI   C6A 1068   9.223   7.975   7.794  0.0834  0.0350 -0.0447
   67loPI   C1B 1069  10.208   6.615   8.741 -0.3431  0.2149 -0.1607
   67loPI   C2B 1070  10.169   6.442   8.480  0.4073 -0.2562  0.1456
   67loPI   C3B 1071  10.261   6.569   8.034  0.1411  0.0204  0.2283
   67loPI   C4B 1072  10.564   6.711   7.782 -0.1748  0.4108 -0.0130
   68loPI    C1 1073  18.433  10.490   9.919  0.0608 -0.1098  0.0285
   68loPI    C2 1074  18.582  10.806  10.115  0.0923 -0.0282 -0.1250
   68loPI    C3 1075  18.381  10.523  10.314  0.3929 -0.1061  0.0750
   68loPI   PO4 1076  18.676  10.443   9.710 -0.0332  0.3970  0.1339
   68loPI   GL1 1077  18.651  10.535   9.325 -0.0147 -0.0045 -0.1139
   68loPI   GL2 1078  18.877  10.641   9.280 -0.2655  0.0400  0.1371
   68loPI   C1A 1079  18.709  10.341   8.873 -0.1280 -0.1722 -0.2566
   68loPI   C2A 1080  18.828  10.327   8.540 -0.2797  0.0450  0.2329
   68loPI   C3A 1081  18.823  10.327   8.111 -0.2205  0.1856  0.2724
   68loPI   C4A 1082  18.662  10.278   7.682  0.0900 -0.0177  0.0718
   68loPI   C5A 1083  18.548   9.994   7.302  0.1774  0.0322 -0.3242
   68loPI   C6A 1084  18.769  10.050   6.973  0.0747 -0.2857 -0.0762
   68loPI   C1B 1085  18.665  10.834   8.917 -0.1164  0.1135 -0.0914
   68loPI   C2B 1086  18.541  10.843   8.574 -0.1578 -0.1370 -0.0522
   68loPI   C3B 1087  18.712  10.804   8.036  0.2262  0.2662  0.1293
   68loPI   C4B 1088  18.821  10.853   7.587  0.2130 -0.1221 -0.3539
   69loPI    C1 1089   6.789   9.925  10.548 -0.1220 -0.1884 -0.0342
   69loPI    C2 1090   6.846   9.660  10.842  0.1989 -0.1269 -0.0376
   69loPI    C3 1091   6.991  10.031  10.876 -0.0274 -0.0268 -0.1433
   69loPI   PO4 1092   6.951   9.831  10.328  0.0275 -0.0074  0.1992
   69loPI   GL1 1093   7.045   9.917   9.889 -0.2345 -0.1133  0.2091
   69loPI   GL2 1094   7.150  10.177   9.938  0.0956  0.5036  0.2416
   69loPI   C1A 1095   6.894   9.913   9.533  0.0687 -0.2468 -0.0673
   69loPI   C2A 1096   6.759   9.776   9.165  0.1903 -0.5151  0.0062
   69loPI   C3A 1097   6.884  10.110   8.901  0.0473  0.0166 -0.0155
   69loPI   C4A 1098   6.937  10.095   8.361  0.0909 -0.1464  0.1481
   69loPI   C5A 1099   6.797   9.983   7.932  0.3962  0.4077 -0.2231
   69loPI   C6A 1100   6.492  10.015   7.613  0.2394 -0.1815  0.0787
   69loPI   C1B 1101   7.146  10.529   9.682  0.1536 -0.2545 -0.0188
   69loPI   C2B 1102   7.207  10.660   9.285 -0.1332 -0.0906  0.0286
   69loPI   C3B 1103   7.080  10.848   8.871 -0.1147 -0.1040  0.3090
   69loPI   C4B 1104   7.099  10.891   8.415  0.0408  0.0065 -0.4901
   70loPI    C1 1105   5.644  13.886  10.042 -0.0165  0.0182  0.0526
   70loPI    C2 1106   5.932  13.862  10.319  0.1002 -0.0161 -0.0705
   70loPI    C3 1107   5.547  13.848  10.428  0.1466 -0.2409  0.0701
   70loPI   PO4 1108   5.724  13.800   9.818 -0.1548 -0.2820  0.1689
   70loPI   GL1 1109   5.749  13.770   9.460  0.0858  0.2023 -0.2700
   70loPI   GL2 1110   5.905  13.883   9.256 -0.2544 -0.2614  0.1676
   70loPI   C1A 1111   5.653  13.478   9.150 -0.0105 -0.0140  0.1888
   70loPI   C2A 1112   5.789  13.411   8.781  0.4725 -0.2095  0.1146
   70loPI   C3A 1113   5.959  13.343   8.349 -0.1415  0.1124  0.0828
   70loPI   C4A 1114   5.736  13.240   7.946  0.1077 -0.1150 -0.2057
   70loPI   C5A 1115   5.464  13.346   7.755  0.0629  0.2440  0.1230
   70loPI   C6A 1116   5.280  13.454   7.387  0.1565  0.3731 -0.2068
   70loPI   C1B 1117   5.971  13.960   8.893  0.0511 -0.1326  0.0924
   70loPI   C2B 1118   6.136  13.747   8.489  0.1964  0.0164 -0.1717
   70loPI   C3B 1119   6.375  13.569   8.196 -0.0092 -0.1048  0.0507
   70loPI   C4B 1120   6.247  13.633   7.815 -0.0535  0.1402 -0.1979
   71loPI    C1 1121   4.634   5.569  10.343  0.0087 -0.0698  0.0350
   71loPI    C2 1122   4.577   5.293  10.626 -0.1049 -0.0590  0.0230
   71loPI    C3 1123   4.306   5.582  10.570  0.0801  0.1377  0.1292
   71loPI   PO4 1124   4.666   5.479  10.057  0.0301  0.2204  0.2803
   71loPI   GL1 1125   4.868   5.336   9.700 -0.1461  0.2105 -0.1756
   71loPI   GL2 1126   5.186   5.441   9.566 -0.1021 -0.1235  0.1520
   71loPI   C1A 1127   4.793   5.183   9.305  0.2750 -0.1646 -0.1487
   71loPI   C2A 1128   4.853   5.197   8.838  0.1174  0.4454  0.0722
   71loPI   C3A 1129   4.802   5.401   8.489 -0.0890 -0.0554 -0.2038
   71loPI   C4A 1130   4.812   5.696   8.132  0.2020  0.1303  0.0298
   71loPI   C5A 1131   4.735   5.693   7.706 -0.0073  0.1514 -0.4561
   71loPI   C6A 1132   4.549   5.334   7.426 -0.1504  0.0113  0.1875
   71loPI   C1B 1133   4.847   5.632   9.241  0.2649  0.1866 -0.0617
   71loPI   C2B 1134   4.540   5.650   8.879 -0.2296 -0.4013 -0.0271
   71loPI   C3B 1135   4.417   5.756   8.510  0.0355 -0.0306 -0.1272
   71loPI   C4B 1136   4.344   5.755   8.123  0.0991  0.0213  0.1165
   72loPI    C1 1137  14.836  12.427   9.683 -0.3309  0.1544 -0.2037
   72loPI    C2 1138  14.550  12.275   9.918 -0.0224 -0.2354 -0.0677
   72loPI    C3 1139  14.553  12.666   9.833 -0.4875 -0.1952  0.0739
   72loPI   PO4 1140  15.096  12.315   9.744 -0.0157  0.0810  0.1562
   72loPI   GL1 1141  15.531  12.200   9.628 -0.1854 -0.1188  0.0124
   72loPI   GL2 1142  15.841  11.995   9.708  0.2704  0.0648 -0.1064
   72loPI   C1A 1143  15.719  12.395   9.274  0.3241 -0.2047 -0.2854
   72loPI   C2A 1144  15.987  12.359   8.840 -0.3269 -0.1013  0.2224
   72loPI   C3A 1145  16.136  12.694   8.642 -0.0990  0.1618 -0.0437
   72loPI   C4A 1146  16.244  12.961   8.194  0.0657  0.2603 -0.0392
   72loPI   C5A 1147  16.242  13.258   7.897  0.0351 -0.0264 -0.3508
   72loPI   C6A 1148  15.903  13.485   7.842 -0.1842  0.1093  0.1529
   72loPI   C1B 1149  15.950  11.593   9.391 -0.5078 -0.1671 -0.1459
   72loPI   C2B 1150  15.848  11.298   8.952  0.1987 -0.1812 -0.3507
   72loPI   C3B 1151  15.560  11.226   8.727  0.2638  0.0599 -0.0971
   72loPI   C4B 1152  15.403  11.220   8.307 -0.0315  0.2383  0.0214
   73loPI    C1 1153   6.364  16.574  10.306  0.0302 -0.1020 -0.0542
   73loPI    C2 1154   6.216  16.846  10.559  0.1244 -0.0442 -0.0608
   73loPI    C3 1155   6.461  16.559  10.694  0.1615 -0.0230 -0.0833
   73loPI   PO4 1156   6.149  16.623  10.087  0.3536  0.0416 -0.1894
   73loPI   GL1 1157   6.047  16.505   9.689  0.2655  0.3264 -0.2302
   73loPI   GL2 1158   5.914  16.746   9.512 -0.0415 -0.0986  0.1117
   73loPI   C1A 1159   5.855  16.253   9.274  0.0585  0.2247  0.0345
   73loPI   C2A 1160   5.937  16.270   8.906 -0.0681  0.2199  0.0352
   73loPI   C3A 1161   6.057  16.126   8.458 -0.1860 -0.0145 -0.3144
   73loPI   C4A 1162   6.029  15.975   8.106 -0.2142  0.0258 -0.0113
   73loPI   C5A 1163   5.719  16.091   7.803 -0.2872  0.1977 -0.1460
   73loPI   C6A 1164   5.490  16.284   7.488 -0.2730 -0.0617 -0.2990
   73loPI   C1B 1165   6.219  16.573   9.278  0.2434 -0.0847  0.1145
   73loPI   C2B 1166   6.465  16.462   8.955  0.2084  0.0951 -0.2757
   73loPI   C3B 1167   6.500  16.237   8.671 -0.2926 -0.0619 -0.2742
   73loPI   C4B 1168   6.598  16.328   8.237  0.3716  0.2678 -0.0922
   74loPI    C1 1169  16.082  15.188  10.235 -0.1231 -0.1678  0.0483
   74loPI    C2 1170  16.318  15.000  10.497 -0.0053  0.2479  0.2490
   74loPI    C3 1171  15.923  15.011  10.557  0.0046  0.2052  0.3243
   74loPI   PO4 1172  16.292  15.298  10.071  0.1418  0.0242 -0.1865
   74loPI   GL1 1173  16.462  15.590   9.781  0.2895 -0.3223  0.1201
   74loPI   GL2 1174  16.753  15.795   9.731  0.0382 -0.0644 -0.2152
   74loPI   C1A 1175  16.561  15.299   9.482  0.0116 -0.0048 -0.0738
   74loPI   C2A 1176  16.700  15.210   8.993  0.2104 -0.1824  0.2439
   74loPI   C3A 1177  17.016  15.174   8.731 -0.0735 -0.0850  0.1369
   74loPI   C4A 1178  17.101  15.185   8.301  0.0509 -0.0173  0.0359
   74loPI   C5A 1179  17.213  14.988   8.004 -0.0153  0.0476 -0.1399
   74loPI   C6A 1180  16.909  14.798   7.849 -0.1986 -0.0534 -0.4099
   74loPI   C1B 1181  16.774  15.742   9.220  0.0888  0.3016 -0.0063
   74loPI   C2B 1182  16.964  15.689   8.877  0.0355  0.0205  0.2685
   74loPI   C3B 1183  16.739  15.651   8.428  0.0998  0.1626  0.2307
   74loPI   C4B 1184  16.591  15.312   8.271 -0.0504 -0.3469 -0.1413
   75loPI    C1 1185   8.019   2.625  10.389 -0.2537 -0.1720 -0.3828
   75loPI    C2 1186   7.707   2.777  10.587 -0.0508 -0.1175 -0.0989
   75loPI    C3 1187   7.708   2.392  10.480 -0.1132 -0.1773  0.1113
   75loPI   PO4 1188   8.123   2.791  10.211  0.3308  0.3890  0.1482
   75loPI   GL1 1189   7.941   2.794   9.790 -0.2078  0.0826  0.0854
   75loPI   GL2 1190   8.219   2.867   9.758  0.0393  0.0682  0.0670
   75loPI   C1A 1191   7.975   2.537   9.385 -0.1548  0.1634  0.0391
   75loPI   C2A 1192   7.834   2.342   8.960 -0.1232 -0.0799 -0.0395
   75loPI   C3A 1193   7.676   2.308   8.442  0.1005 -0.3527  0.1275
   75loPI   C4A 1194   7.713   2.383   8.049 -0.1184 -0.2159 -0.2240
   75loPI   C5A 1195   7.847   2.458   7.527 -0.2425  0.3674  0.0072
   75loPI   C6A 1196   7.855   2.334   7.018 -0.1538 -0.1668 -0.2118
   75loPI   C1B 1197   8.522   2.811   9.426 -0.0785 -0.0527 -0.1651
   75loPI   C2B 1198   8.652   2.600   9.089  0.3755 -0.0049  0.1070
   75loPI   C3B 1199   8.915   2.433   8.783  0.0541 -0.0879  0.2175
   75loPI   C4B 1200   9.016   2.443   8.398  0.1643  0.0603 -0.1281
   76loPI    C1 1201   8.656  18.062  10.003  0.0875 -0.0372 -0.2392
   76loPI    C2 1202   8.996  17.934  10.171 -0.0749 -0.0461  0.0881
   76loPI    C3 1203   8.676  17.693  10.156 -0.1889  0.1002  0.1422
   76loPI   PO4 1204   8.752  18.245   9.676  0.0346 -0.0158  0.1878
   76loPI   GL1 1205   8.596  18.245   9.235  0.0037 -0.0268 -0.1470
   76loPI   GL2 1206   8.745  17.960   9.232  0.3090 -0.0661  0.2715
   76loPI   C1A 1207   8.408  18.218   8.862 -0.0943  0.0875  0.0833
   76loPI   C2A 1208   8.273  18.371   8.387 -0.0962 -0.4873  0.0600
   76loPI   C3A 1209   8.186  18.222   7.956 -0.1185 -0.2411 -0.1596
   76loPI   C4A 1210   8.253  17.844   7.738  0.1115 -0.0097  0.2360
   76loPI   C5A 1211   8.466  17.564   7.807 -0.3218  0.1939 -0.2603
   76loPI   C6A 1212   8.784  17.420   8.102  0.2207  0.2693  0.2743
   76loPI   C1B 1213   8.719  17.713   8.921  0.0616 -0.0735 -0.1643
   76loPI   C2B 1214   8.715  17.334   8.651  0.0257 -0.1216  0.0936
   76loPI   C3B 1215   8.745  16.992   8.442 -0.1030  0.2129 -0.1353
   76loPI   C4B 1216   8.754  16.743   8.038  0.4656 -0.0376  0.4173
   77loPI    C1 1217   8.662  13.856   9.915 -0.2634  0.3323  0.0891
   77loPI    C2 1218   8.550  13.627  10.223 -0.1479  0.0448 -0.0788
   77loPI    C3 1219   8.924  13.767  10.203 -0.1253 -0.0240 -0.1405
   77loPI   PO4 1220   8.446  13.773   9.717  0.0187 -0.0816 -0.0342
   77loPI   GL1 1221   8.398  13.981   9.338  0.0810 -0.0686 -0.1356
   77loPI   GL2 1222   8.545  13.826   9.126  0.1455  0.1014  0.4052
   77loPI   C1A 1223   8.398  14.317   9.065  0.2406  0.1654 -0.3644
   77loPI   C2A 1224   8.501  14.325   8.618  0.1776  0.0389 -0.0751
   77loPI   C3A 1225   8.661  14.397   8.096  0.0397 -0.3014 -0.0997
   77loPI   C4A 1226   8.494  14.394   7.688  0.0609  0.4049 -0.1039
   77loPI   C5A 1227   8.187  14.159   7.484 -0.1578 -0.1923 -0.4316
   77loPI   C6A 1228   7.890  13.876   7.557  0.4119 -0.0976 -0.0922
   77loPI   C1B 1229   8.538  13.779   8.673 -0.1594  0.4056  0.1491
   77loPI   C2B 1230   8.525  13.919   8.308 -0.1510 -0.2983  0.3492
   77loPI   C3B 1231   8.650  13.915   7.894  0.2118  0.0081  0.1871
   77loPI   C4B 1232   8.776  13.780   7.526  0.2439  0.2925 -0.1163
   78loPI    C1 1233   2.342   5.990  10.261 -0.3299  0.1676  0.0339
   78loPI    C2 1234   2.220   6.065  10.635 -0.1076 -0.1019  0.1638
   78loPI    C3 1235   2.594   5.940  10.568 -0.1421 -0.0433 -0.1515
   78loPI   PO4 1236   2.271   6.156  10.086  0.0175 -0.2384  0.2817
   78loPI   GL1 1237   2.337   6.274   9.687  0.0845  0.3481  0.0632
   78loPI   GL2 1238   2.579   6.380   9.623 -0.1121 -0.0922  0.2435
   78loPI   C1A 1239   2.192   6.391   9.324 -0.2440 -0.3295 -0.3474
   78loPI   C2A 1240   2.011   6.256   8.969 -0.1639  0.0406  0.3783
   78loPI   C3A 1241   1.979   6.203   8.508  0.1144  0.1319  0.1289
   78loPI   C4A 1242   1.809   6.265   8.138 -0.2366  0.0277 -0.1438
   78loPI   C5A 1243   1.527   6.526   7.901 -0.0979 -0.1126 -0.2636
   78loPI   C6A 1244   1.297   6.468   7.512  0.0167  0.3244 -0.0193
   78loPI   C1B 1245   2.668   6.545   9.247  0.0268 -0.0357  0.0910
   78loPI   C2B 1246   2.751   6.500   8.813 -0.0971  0.2062  0.2242
   78loPI   C3B 1247   3.081   6.341   8.525 -0.0828  0.3114 -0.1087
   78loPI   C4B 1248   3.067   6.192   8.063  0.1276 -0.1211 -0.2007
   79loPI    C1 1249  15.754   3.687  10.219 -0.0946  0.1891 -0.0434
   79loPI    C2 1250  15.475   3.399  10.226  0.0500  0.0497  0.0338
   79loPI    C3 1251  15.796   3.373  10.464  0.1761  0.1618 -0.1221
   79loPI   PO4 1252  15.742   3.822  10.004  0.4834 -0.0844  0.2628
   79loPI   GL1 1253  15.937   3.725   9.620  0.0212 -0.4418 -0.0690
   79loPI   GL2 1254  16.145   3.909   9.557 -0.2540  0.2657  0.1297
   79loPI   C1A 1255  16.111   3.405   9.337 -0.1206 -0.1181 -0.0231
   79loPI   C2A 1256  16.102   3.280   8.918  0.0849  0.0102  0.0581
   79loPI   C3A 1257  16.320   3.341   8.530  0.5417 -0.0816 -0.0897
   79loPI   C4A 1258  16.279   3.494   8.100  0.2115 -0.1632  0.1900
   79loPI   C5A 1259  16.313   3.652   7.691  0.3917  0.6215  0.2094
   79loPI   C6A 1260  16.010   3.539   7.350 -0.2542  0.2546  0.0215
   79loPI   C1B 1261  15.992   3.924   9.190  0.0562  0.0797 -0.0579
   79loPI   C2B 1262  15.801   3.679   8.851  0.1535  0.3137 -0.0431
   79loPI   C3B 1263  15.835   3.743   8.450 -0.1193  0.1327 -0.2184
   79loPI   C4B 1264  15.872   3.702   7.964 -0.0293 -0.1307 -0.3584
   80loPI    C1 1265   3.867   5.459  10.386  0.2772 -0.1279  0.0616
   80loPI    C2 1266   3.735   5.147  10.598 -0.0345 -0.0680 -0.0392
   80loPI    C3 1267   3.802   5.497  10.779  0.1764 -0.1519  0.0477
   80loPI   PO4 1268   3.765   5.420  10.204 -0.0693 -0.2285 -0.0370
   80loPI   GL1 1269   3.799   5.403   9.709  0.1284 -0.1033 -0.0974
   80loPI   GL2 1270   4.027   5.677   9.555  0.7786 -0.6351 -0.0655
   80loPI   C1A 1271   3.656   5.488   9.293  0.0889  0.3387  0.0755
   80loPI   C2A 1272   3.453   5.847   9.018 -0.0630  0.3282 -0.0845
   80loPI   C3A 1273   3.425   5.988   8.588 -0.2534  0.1131 -0.4856
   80loPI   C4A 1274   3.637   6.288   8.355  0.2522 -0.1502  0.2137
   80loPI   C5A 1275   3.929   6.610   8.038 -0.1198  0.1640  0.2003
   80loPI   C6A 1276   4.293   6.821   8.236 -0.1318  0.2164 -0.2510
   80loPI   C1B 1277   3.801   5.994   9.393  0.0578 -0.3821 -0.2703
   80loPI   C2B 1278   3.568   6.385   9.288 -0.0943 -0.1717 -0.0346
   80loPI   C3B 1279   3.620   6.789   9.233  0.0511 -0.1095 -0.1460
   80loPI   C4B 1280   3.688   6.986   8.889 -0.2504 -0.3099 -0.0067
   81loPI    C1 1281  14.568  17.229  10.237 -0.0694 -0.0504  0.0577
   81loPI    C2 1282  14.196  17.091  10.287 -0.1360  0.0133 -0.2408
   81loPI    C3 1283  14.274  17.478  10.347  0.0046 -0.0998  0.3772
   81loPI   PO4 1284  14.571  17.004   9.969 -0.1399  0.1259  0.1932
   81loPI   GL1 1285  14.427  17.006   9.520  0.0178 -0.1259  0.2515
   81loPI   GL2 1286  14.667  16.734   9.489 -0.1880 -0.0209 -0.1084
   81loPI   C1A 1287  14.343  17.017   9.145 -0.3254  0.0361  0.0701
   81loPI   C2A 1288  14.571  16.937   8.750  0.0659 -0.1308  0.1770
   81loPI   C3A 1289  14.901  17.080   8.430 -0.1744  0.2145  0.1444
   81loPI   C4A 1290  14.929  17.030   7.972  0.0702 -0.1279 -0.0440
   81loPI   C5A 1291  15.184  17.200   7.547 -0.1623  0.2196  0.4136
   81loPI   C6A 1292  15.465  17.248   7.221 -0.1207  0.1079  0.0146
   81loPI   C1B 1293  14.794  16.610   9.129  0.0103 -0.0686  0.0631
   81loPI   C2B 1294  14.833  16.543   8.685  0.0391  0.0901 -0.0451
   81loPI   C3B 1295  14.850  16.439   8.229 -0.3042  0.0648  0.1589
   81loPI   C4B 1296  14.967  16.373   7.953  0.0416 -0.1159  0.1241
   82loPI    C1 1297  18.448  17.667  10.194  0.0229  0.0576 -0.1208
   82loPI    C2 1298  18.112  17.459  10.254  0.0458  0.0300 -0.0872
   82loPI    C3 1299  18.141  17.835  10.387  0.1434 -0.0732  0.1906
   82loPI   PO4 1300  18.517  17.551   9.821 -0.1165 -0.0803  0.0896
   82loPI   GL1 1301  18.864  17.578   9.493  0.0770  0.0221  0.0066
   82loPI   GL2 1302  18.921  17.875   9.439 -0.0385  0.0417 -0.2275
   82loPI   C1A 1303  18.791  17.587   9.054 -0.4101 -0.1356 -0.0407
   82loPI   C2A 1304  18.654  17.707   8.683  0.0337  0.0017 -0.1144
   82loPI   C3A 1305  18.781  17.750   8.256  0.2090  0.1718  0.2072
   82loPI   C4A 1306  18.980  17.640   7.923  0.1511  0.1792  0.0945
   82loPI   C5A 1307  19.198  17.276   7.901 -0.0117 -0.2433  0.0784
   82loPI   C6A 1308  19.450  17.141   7.523 -0.2064 -0.2856  0.1710
   82loPI   C1B 1309  18.829  18.117   9.030  0.1505  0.2308  0.1295
   82loPI   C2B 1310  19.044  18.236   8.565  0.2472  0.0623 -0.1622
   82loPI   C3B 1311  19.201  18.021   8.220 -0.0343  0.0838  0.0033
   82loPI   C4B 1312  19.296  18.086   7.860 -0.4706  0.1053 -0.1426
   83loPI    C1 1313  10.489   7.219  10.201  0.2999  0.0784 -0.1529
   83loPI    C2 1314  10.473   6.914  10.459 -0.2642  0.0817 -0.1723
   83loPI    C3 1315  10.777   6.941  10.201 -0.0001 -0.2409  0.0949
   83loPI   PO4 1316  10.301   7.205  10.098  0.1833 -0.3789 -0.1410
   83loPI   GL1 1317  10.248   7.203   9.594  0.0983  0.1134  0.3660
   83loPI   GL2 1318  10.421   7.455   9.370 -0.0845 -0.1172 -0.0307
   83loPI   C1A 1319  10.318   6.985   9.131  0.0464 -0.2171  0.2172
   83loPI   C2A 1320  10.295   7.205   8.696 -0.2574 -0.3152 -0.0057
   83loPI   C3A 1321  10.304   7.513   8.359 -0.3277  0.0338  0.1285
   83loPI   C4A 1322  10.234   7.870   8.013  0.0866  0.1313 -0.1568
   83loPI   C5A 1323  10.378   8.225   7.797  0.1436  0.0107  0.1735
   83loPI   C6A 1324  10.148   8.597   7.818  0.0225 -0.5298  0.1568
   83loPI   C1B 1325  10.358   7.666   9.026  0.1627  0.0404  0.0441
   83loPI   C2B 1326  10.252   8.015   8.670  0.1565  0.0298  0.1549
   83loPI   C3B 1327  10.450   8.227   8.325 -0.0978  0.1341 -0.0311
   83loPI   C4B 1328  10.728   8.288   8.123  0.0427  0.2987  0.0118
   84loPI    C1 1329  12.380  10.429  10.254  0.1611 -0.2193 -0.1820
   84loPI    C2 1330  12.368  10.055  10.394  0.0953 -0.1118  0.1069
   84loPI    C3 1331  12.220  10.355  10.613  0.0890  0.0760 -0.1505
   84loPI   PO4 1332  12.215  10.453   9.958 -0.0790  0.3443  0.1902
   84loPI   GL1 1333  12.169  10.513   9.451 -0.2272 -0.0084  0.1838
   84loPI   GL2 1334  11.948  10.241   9.430 -0.3272 -0.1386 -0.1198
   84loPI   C1A 1335  11.848  10.676   9.159 -0.2250  0.0491 -0.1890
   84loPI   C2A 1336  11.710  11.053   8.819 -0.0749 -0.1587  0.1962
   84loPI   C3A 1337  11.731  11.052   8.441 -0.0149  0.1382  0.0291
   84loPI   C4A 1338  11.744  11.082   7.993  0.0424  0.1232  0.1320
   84loPI   C5A 1339  12.032  11.148   7.603 -0.2654 -0.3244 -0.1282
   84loPI   C6A 1340  12.274  11.319   7.244 -0.1102  0.1334  0.4610
   84loPI   C1B 1341  12.067  10.092   9.017 -0.1621 -0.3971  0.1522
   84loPI   C2B 1342  12.120  10.194   8.624  0.0297 -0.0583  0.1122
   84loPI   C3B 1343  11.926  10.076   8.313  0.1851 -0.0171 -0.1830
   84loPI   C4B 1344  11.932  10.187   7.846  0.2271 -0.1324 -0.1933
   85loPI    C1 1345   0.119  12.403  10.393  0.1379 -0.0341 -0.1612
   85loPI    C2 1346   0.463  12.221  10.301  0.2795  0.1813 -0.0681
   85loPI    C3 1347   0.356  12.266  10.684  0.0484 -0.0609 -0.1004
   85loPI   PO4 1348  -0.013  12.368  10.174  0.0097 -0.0957 -0.2161
   85loPI   GL1 1349  -0.116  12.444   9.730  0.1002  0.1297  0.0452
   85loPI   GL2 1350  -0.024  12.718   9.669  0.1720 -0.0866  0.0535
   85loPI   C1A 1351  -0.479  12.563   9.441 -0.3962  0.2507  0.0321
   85loPI   C2A 1352  -0.651  12.395   9.013  0.1341 -0.1988  0.0581
   85loPI   C3A 1353  -0.687  12.489   8.519 -0.4607  0.1940 -0.0607
   85loPI   C4A 1354  -0.580  12.617   8.097 -0.1724 -0.0295 -0.2205
   85loPI   C5A 1355  -0.630  12.476   7.759  0.1614  0.0241 -0.0415
   85loPI   C6A 1356  -0.744  12.510   7.378 -0.1556 -0.1882 -0.2606
   85loPI   C1B 1357   0.074  12.552   9.241  0.0443  0.0750 -0.0603
   85loPI   C2B 1358  -0.055  12.597   8.858 -0.3128 -0.0177 -0.0016
   85loPI   C3B 1359  -0.173  12.569   8.568  0.1933 -0.0222 -0.2161
   85loPI   C4B 1360  -0.131  12.680   8.197 -0.0244  0.0466  0.0436
   86loPI    C1 1361  11.378  13.500   9.635 -0.1432 -0.0374  0.0354
   86loPI    C2 1362  11.387  13.580  10.027  0.0409  0.1484 -0.0051
   86loPI    C3 1363  11.596  13.807   9.772 -0.2047  0.1271 -0.2288
   86loPI   PO4 1364  11.430  13.155   9.567  0.0106  0.0985 -0.1808
   86loPI   GL1 1365  11.499  13.214   9.141 -0.0351  0.2117  0.1078
   86loPI   GL2 1366  11.641  13.485   8.914  0.0194 -0.3179  0.0474
   86loPI   C1A 1367  11.437  12.889   8.831 -0.1661 -0.0658 -0.0501
   86loPI   C2A 1368  11.256  12.811   8.386 -0.0699 -0.1621  0.2707
   86loPI   C3A 1369  11.185  12.925   7.956  0.4953 -0.0955 -0.4341
   86loPI   C4A 1370  11.028  13.155   7.609 -0.0810  0.0804 -0.1843
   86loPI   C5A 1371  11.096  13.387   7.326 -0.2874  0.1960 -0.1743
   86loPI   C6A 1372  11.411  13.393   6.992 -0.1049 -0.0976  0.0511
   86loPI   C1B 1373  11.858  13.169   8.849 -0.1334 -0.1182  0.0733
   86loPI   C2B 1374  12.061  13.069   8.473 -0.1585 -0.2258  0.2058
   86loPI   C3B 1375  12.113  13.228   8.116  0.0029 -0.0419 -0.1550
   86loPI   C4B 1376  12.019  13.606   8.005  0.1956  0.0081  0.0197
   87loPI    C1 1377   0.047   6.895   9.991 -0.2323  0.0088  0.0436
   87loPI    C2 1378   0.423   6.778  10.056 -0.1790  0.0617 -0.1608
   87loPI    C3 1379   0.199   6.908  10.361 -0.0011  0.1206 -0.0535
   87loPI   PO4 1380  -0.025   7.096   9.773  0.0683 -0.2698 -0.2164
   87loPI   GL1 1381  -0.065   7.226   9.431 -0.1078 -0.3145  0.1319
   87loPI   GL2 1382   0.296   7.219   9.272  0.0559  0.2683  0.0056
   87loPI   C1A 1383  -0.020   7.479   8.980  0.0921  0.1613  0.0535
   87loPI   C2A 1384  -0.041   7.445   8.617 -0.1827  0.0924  0.0020
   87loPI   C3A 1385  -0.206   7.461   8.171  0.1107 -0.0791  0.1312
   87loPI   C4A 1386  -0.301   7.554   7.835  0.1744  0.3792 -0.4530
   87loPI   C5A 1387  -0.258   7.652   7.339 -0.0410  0.1679  0.0579
   87loPI   C6A 1388  -0.027   7.752   6.953  0.2329  0.0629  0.1969
   87loPI   C1B 1389   0.487   7.450   8.863  0.1727 -0.0891 -0.3219
   87loPI   C2B 1390   0.728   7.711   8.590  0.0158  0.3100  0.0184
   87loPI   C3B 1391   0.617   7.911   8.231  0.1969 -0.2732  0.0229
   87loPI   C4B 1392   0.771   7.885   7.887 -0.1549  0.2319 -0.1560
   88loPI    C1 1393   9.034  13.628   9.695  0.0390 -0.0314  0.0830
   88loPI    C2 1394   8.751  13.345   9.710  0.0342 -0.0541 -0.3298
   88loPI    C3 1395   9.137  13.242   9.684  0.0539 -0.0219 -0.1713
   88loPI   PO4 1396   8.905  13.815   9.456 -0.0360 -0.0107 -0.1185
   88loPI   GL1 1397   8.913  14.256   9.206 -0.0850  0.2908  0.0007
   88loPI   GL2 1398   8.908  14.427   8.970 -0.2556  0.1420 -0.0958
   88loPI   C1A 1399   8.991  13.990   8.787 -0.1855 -0.1775 -0.0148
   88loPI   C2A 1400   8.921  13.600   8.448  0.0237 -0.1498  0.0412
   88loPI   C3A 1401   9.027  13.328   8.188 -0.1937  0.0340 -0.2061
   88loPI   C4A 1402   9.268  13.345   7.744  0.0136  0.2091  0.0042
   88loPI   C5A 1403   9.072  13.467   7.344 -0.1162  0.0550  0.2991
   88loPI   C6A 1404   8.977  13.700   7.005 -0.2793 -0.0583 -0.0091
   88loPI   C1B 1405   8.973  14.458   8.486  0.0222  0.0732  0.1041
   88loPI   C2B 1406   9.034  14.096   8.217 -0.0159  0.2601 -0.0076
   88loPI   C3B 1407   9.110  13.753   7.992  0.2155  0.2910  0.2871
   88loPI   C4B 1408   9.354  13.842   7.608  0.2752  0.0921 -0.0240
   89loPI    C1 1409  12.851  10.967   9.952  0.2585 -0.0925 -0.0568
   89loPI    C2 1410  12.740  10.607   9.818  0.1816 -0.0193 -0.1924
   89loPI    C3 1411  12.463  10.873   9.931  0.2401 -0.0207 -0.0441
   89loPI   PO4 1412  13.111  11.038   9.734  0.1554 -0.0125  0.1647
   89loPI   GL1 1413  13.018  11.176   9.255  0.1134  0.0351  0.0445
   89loPI   GL2 1414  13.068  10.910   9.066  0.0663 -0.0268 -0.3021
   89loPI   C1A 1415  13.458  11.209   9.066  0.2867  0.2178  0.1428
   89loPI   C2A 1416  13.625  11.433   8.748  0.0703 -0.0387 -0.2135
   89loPI   C3A 1417  13.625  11.734   8.378  0.0557 -0.0601 -0.1791
   89loPI   C4A 1418  13.374  11.956   8.233 -0.0850 -0.0290 -0.1174
   89loPI   C5A 1419  13.068  12.067   8.063 -0.3460 -0.1064 -0.0043
   89loPI   C6A 1420  12.568  12.051   7.918  0.0722 -0.0329 -0.0003
   89loPI   C1B 1421  13.161  11.026   8.687 -0.2787  0.0834 -0.0139
   89loPI   C2B 1422  13.176  10.992   8.221  0.0223 -0.2887  0.0529
   89loPI   C3B 1423  12.891  11.054   7.884 -0.0405 -0.0620  0.2678
   89loPI   C4B 1424  12.500  11.083   7.663  0.1032 -0.1659  0.3136
   90loPI    C1 1425  17.167   7.085  10.012 -0.2770 -0.0306 -0.0330
   90loPI    C2 1426  17.100   6.815  10.299 -0.2358  0.0795  0.0815
   90loPI    C3 1427  17.155   7.199  10.396  0.1744  0.0556 -0.0390
   90loPI   PO4 1428  16.991   7.018   9.833  0.0017  0.2307 -0.2480
   90loPI   GL1 1429  16.855   6.928   9.407 -0.5868  0.1505  0.1033
   90loPI   GL2 1430  16.554   6.895   9.225 -0.0440 -0.0964 -0.0158
   90loPI   C1A 1431  16.960   6.917   8.949  0.0914 -0.1346 -0.0744
   90loPI   C2A 1432  16.946   6.948   8.469 -0.1804  0.3109  0.1811
   90loPI   C3A 1433  16.901   6.651   8.089  0.0518  0.4070 -0.0790
   90loPI   C4A 1434  16.984   6.529   7.651 -0.2053 -0.4331 -0.4362
   90loPI   C5A 1435  17.159   6.550   7.367 -0.0259  0.1509  0.0121
   90loPI   C6A 1436  17.393   6.367   7.078  0.1977  0.5446  0.0654
   90loPI   C1B 1437  16.474   6.838   8.884  0.2290  0.2400 -0.1993
   90loPI   C2B 1438  16.451   6.978   8.448  0.0863 -0.3853  0.0626
   90loPI   C3B 1439  16.691   7.192   8.075  0.3141 -0.1241  0.0345
   90loPI   C4B 1440  16.865   7.050   7.618  0.1108  0.0233 -0.0357
   91loPI    C1 1441  14.977   4.537   9.980  0.0743  0.2134 -0.0609
   91loPI    C2 1442  14.886   4.178  10.133  0.0964  0.1480 -0.1999
   91loPI    C3 1443  14.759   4.511  10.315 -0.3011  0.0622 -0.3099
   91loPI   PO4 1444  15.285   4.508   9.840 -0.1665  0.0382  0.0540
   91loPI   GL1 1445  15.334   4.341   9.506  0.0616 -0.3019  0.0125
   91loPI   GL2 1446  15.490   4.052   9.407  0.1227  0.0806  0.2297
   91loPI   C1A 1447  15.378   4.551   9.071 -0.0193  0.1667 -0.1839
   91loPI   C2A 1448  15.376   4.467   8.616 -0.1210  0.1279 -0.2343
   91loPI   C3A 1449  15.455   4.186   8.230  0.0675 -0.2915  0.1512
   91loPI   C4A 1450  15.439   3.957   7.770 -0.2080 -0.0338 -0.1613
   91loPI   C5A 1451  15.592   3.669   7.512 -0.1939 -0.2119 -0.0221
   91loPI   C6A 1452  15.662   3.208   7.475  0.0772  0.1392  0.0581
   91loPI   C1B 1453  15.447   4.055   8.971  0.0738 -0.2746 -0.0954
   91loPI   C2B 1454  15.365   3.837   8.591 -0.1631 -0.1498  0.1016
   91loPI   C3B 1455  15.420   3.633   8.221 -0.2242  0.1189 -0.0995
   91loPI   C4B 1456  15.293   3.167   8.143 -0.0300  0.1568 -0.4170
   92loPI    C1 1457  17.868  18.486  10.344  0.1138 -0.0365 -0.0258
   92loPI    C2 1458  18.099  18.396  10.659  0.2222  0.2101 -0.0329
   92loPI    C3 1459  17.877  18.729  10.661  0.0937  0.1266 -0.1492
   92loPI   PO4 1460  17.818  18.183  10.237  0.2525 -0.1664 -0.1847
   92loPI   GL1 1461  17.522  18.249   9.833 -0.1007 -0.3593 -0.3933
   92loPI   GL2 1462  17.291  17.962   9.855 -0.0098 -0.0320 -0.2057
   92loPI   C1A 1463  17.672  18.411   9.383 -0.0039 -0.0865  0.1888
   92loPI   C2A 1464  17.613  18.622   9.029 -0.0303  0.0243 -0.0523
   92loPI   C3A 1465  17.718  18.593   8.661 -0.1636  0.0079  0.2330
   92loPI   C4A 1466  17.870  18.726   8.304  0.1009 -0.0962 -0.1974
   92loPI   C5A 1467  17.893  18.992   7.935 -0.1804 -0.0010  0.1520
   92loPI   C6A 1468  17.770  19.282   7.726  0.0800 -0.2685  0.2404
   92loPI   C1B 1469  17.447  17.928   9.385 -0.0429 -0.2647 -0.0952
   92loPI   C2B 1470  17.966  17.835   9.232 -0.0127  0.0780  0.0943
   92loPI   C3B 1471  18.277  17.484   9.136  0.1850 -0.1380 -0.4053
   92loPI   C4B 1472  18.485  17.188   9.004  0.0095 -0.2080 -0.1650
   93loPI    C1 1473  17.509   3.762  10.262 -0.1048  0.0086 -0.0509
   93loPI    C2 1474  17.168   3.596  10.388 -0.0617  0.0446  0.1158
   93loPI    C3 1475  17.472   3.647  10.644  0.1280 -0.1360 -0.0696
   93loPI   PO4 1476  17.554   3.714  10.015 -0.2964 -0.0199  0.2411
   93loPI   GL1 1477  17.330   3.671   9.470 -0.0673  0.2671  0.1931
   93loPI   GL2 1478  17.625   3.976   9.584 -0.0949  0.1777 -0.1384
   93loPI   C1A 1479  17.414   3.938   9.021  0.4487  0.1120 -0.1071
   93loPI   C2A 1480  17.461   3.995   8.617 -0.1946  0.4281  0.0579
   93loPI   C3A 1481  17.312   3.937   8.264  0.1319  0.2135 -0.4903
   93loPI   C4A 1482  17.340   3.816   7.817 -0.2435  0.0125  0.0124
   93loPI   C5A 1483  17.245   3.723   7.319 -0.0245  0.0489  0.0982
   93loPI   C6A 1484  17.504   3.262   7.238 -0.0511 -0.0660 -0.0694
   93loPI   C1B 1485  17.880   4.129   9.254 -0.0254 -0.1669 -0.2278
   93loPI   C2B 1486  17.942   4.231   8.924 -0.1027 -0.3641 -0.1969
   93loPI   C3B 1487  17.911   4.321   8.574 -0.0057 -0.2008  0.1615
   93loPI   C4B 1488  17.957   4.700   8.311  0.0663  0.1086  0.5782
   94loPI    C1 1489   6.907   3.685  10.242  0.0501 -0.1985  0.0190
   94loPI    C2 1490   7.240   3.756  10.451 -0.0828  0.0433  0.1528
   94loPI    C3 1491   6.886   3.747  10.636 -0.1485 -0.2562  0.0183
   94loPI   PO4 1492   6.929   3.781  10.041  0.0452  0.2377 -0.1928
   94loPI   GL1 1493   6.872   3.624   9.598  0.1866 -0.0525  0.1457
   94loPI   GL2 1494   6.651   3.461   9.425 -0.2658 -0.1926  0.2882
   94loPI   C1A 1495   7.062   3.562   9.157  0.0656  0.3101 -0.0430
   94loPI   C2A 1496   7.205   3.510   8.788  0.2893 -0.2204  0.1996
   94loPI   C3A 1497   7.009   3.596   8.378  0.1009  0.2533  0.0554
   94loPI   C4A 1498   7.219   3.709   7.993 -0.1088 -0.1538 -0.2183
   94loPI   C5A 1499   7.359   3.602   7.672 -0.2833 -0.0432  0.1880
   94loPI   C6A 1500   7.186   3.480   7.238  0.0576 -0.3573 -0.1717
   94loPI   C1B 1501   6.536   3.757   9.021 -0.2455  0.1063 -0.2911
   94loPI   C2B 1502   6.692   4.017   8.595 -0.2238 -0.0686 -0.2286
   94loPI   C3B 1503   6.515   4.272   8.273  0.1000  0.1413 -0.2966
   94loPI   C4B 1504   6.653   4.607   8.014 -0.1349  0.0088  0.0322
   95loPI    C1 1505   9.180  18.870   9.613 -0.0204  0.2232 -0.2502
   95loPI    C2 1506   8.936  18.624   9.413  0.0689 -0.1556  0.0961
   95loPI    C3 1507   8.858  18.717   9.794  0.1048  0.2593  0.0065
   95loPI   PO4 1508   9.404  18.775   9.548  0.1160  0.3137  0.4353
   95loPI   GL1 1509   9.526  18.596   9.207  0.2953  0.1781  0.3330
   95loPI   GL2 1510   9.809  18.587   9.142  0.0893  0.1174 -0.3495
   95loPI   C1A 1511   9.240  18.427   9.001  0.0200 -0.0591  0.0441
   95loPI   C2A 1512   8.929  18.182   8.730 -0.1926 -0.2707 -0.2345
   95loPI   C3A 1513   8.707  18.129   8.353  0.3309 -0.0303  0.1480
   95loPI   C4A 1514   8.760  17.951   7.947  0.0816  0.0310  0.0284
   95loPI   C5A 1515   8.961  17.727   7.628 -0.0874  0.1679 -0.0598
   95loPI   C6A 1516   9.256  17.422   7.410 -0.2343 -0.2282  0.0788
   95loPI   C1B 1517   9.662  18.514   8.688 -0.0437 -0.1726  0.0260
   95loPI   C2B 1518   9.575  18.599   8.222 -0.1078  0.0563  0.1298
   95loPI   C3B 1519   9.747  18.667   7.712  0.2416 -0.1191 -0.1645
   95loPI   C4B 1520   9.702  18.868   7.347  0.2226  0.1005 -0.0381
   96loPI    C1 1521  10.397  18.266   9.882 -0.2104  0.1587 -0.2867
   96loPI    C2 1522  10.172  18.064  10.145 -0.0053 -0.0694 -0.2826
   96loPI    C3 1523  10.290  18.437  10.227 -0.2276 -0.0145 -0.2047
   96loPI   PO4 1524  10.173  18.255   9.576  0.2302 -0.5318 -0.1741
   96loPI   GL1 1525  10.016  18.162   9.313 -0.2213  0.0328  0.2550
   96loPI   GL2 1526   9.677  18.090   9.163  0.0999  0.2381 -0.0810
   96loPI   C1A 1527  10.141  18.173   8.885 -0.0720  0.0237  0.0808
   96loPI   C2A 1528  10.055  18.332   8.472 -0.0448  0.0490  0.3800
   96loPI   C3A 1529  10.069  18.530   8.090 -0.1636 -0.2208 -0.1768
   96loPI   C4A 1530  10.167  18.440   7.678  0.1618 -0.1745 -0.0704
   96loPI   C5A 1531   9.954  18.408   7.191  0.1153  0.5910 -0.1397
   96loPI   C6A 1532   9.927  18.321   6.725 -0.1907 -0.2897 -0.2825
   96loPI   C1B 1533   9.589  18.038   8.719  0.2335  0.3690  0.1796
   96loPI   C2B 1534   9.519  17.970   8.235 -0.1776 -0.1463  0.0838
   96loPI   C3B 1535   9.748  18.104   7.949  0.1824 -0.0344  0.1295
   96loPI   C4B 1536   9.698  18.167   7.565 -0.0956 -0.0915  0.0478
   97loPI    C1 1537  17.411   8.271  10.223 -0.0904  0.0354  0.2103
   97loPI    C2 1538  17.540   8.573   9.994 -0.1338 -0.1491 -0.0624
   97loPI    C3 1539  17.746   8.468  10.320  0.0301 -0.0013 -0.1163
   97loPI   PO4 1540  17.447   7.996   9.970 -0.2243  0.0851 -0.1620
   97loPI   GL1 1541  17.597   8.004   9.507 -0.0357 -0.0026 -0.0379
   97loPI   GL2 1542  17.563   7.828   9.295 -0.0855 -0.0769 -0.2476
   97loPI   C1A 1543  17.351   8.293   9.187  0.3194 -0.1422 -0.0288
   97loPI   C2A 1544  17.297   8.240   8.710 -0.2097  0.0893 -0.0192
   97loPI   C3A 1545  17.384   8.457   8.390  0.1394 -0.1075  0.3620
   97loPI   C4A 1546  17.496   8.547   7.899 -0.1074  0.0507 -0.2231
   97loPI   C5A 1547  17.637   8.706   7.604 -0.0179 -0.3356 -0.1480
   97loPI   C6A 1548  17.500   9.076   7.339  0.4067  0.2675  0.0331
   97loPI   C1B 1549  17.520   7.739   8.879  0.1316 -0.1239  0.3019
   97loPI   C2B 1550  17.475   7.871   8.453  0.1099  0.1234 -0.2696
   97loPI   C3B 1551  17.536   7.929   7.947  0.1603 -0.1969  0.2771
   97loPI   C4B 1552  17.749   8.178   7.636  0.3614 -0.1140  0.5331
   98loPI    C1 1553  15.799  13.157   9.965 -0.3707 -0.1954  0.1578
   98loPI    C2 1554  15.922  12.790  10.063  0.1243  0.0138  0.3481
   98loPI    C3 1555  16.153  13.024   9.836 -0.2553  0.1573  0.1012
   98loPI   PO4 1556  15.639  13.115   9.890 -0.0385 -0.0651  0.1676
   98loPI   GL1 1557  15.494  13.209   9.534  0.1076  0.2383  0.0953
   98loPI   GL2 1558  15.909  13.280   9.456 -0.1177 -0.3827  0.0608
   98loPI   C1A 1559  15.620  13.002   9.142  0.0333  0.1977 -0.1020
   98loPI   C2A 1560  15.605  12.728   8.840 -0.1184 -0.0781 -0.0142
   98loPI   C3A 1561  15.748  12.597   8.408  0.0363  0.0143 -0.2438
   98loPI   C4A 1562  15.891  12.590   8.028  0.2006 -0.1008  0.0170
   98loPI   C5A 1563  15.811  12.567   7.532 -0.0317  0.1150 -0.3147
   98loPI   C6A 1564  15.486  12.635   7.265 -0.0706  0.0479 -0.2112
   98loPI   C1B 1565  16.150  13.515   9.188  0.1541  0.0957  0.3293
   98loPI   C2B 1566  16.330  13.787   8.861  0.3720 -0.1618 -0.6508
   98loPI   C3B 1567  16.324  13.989   8.371  0.2689 -0.2584  0.1472
   98loPI   C4B 1568  16.135  13.919   8.060  0.2305  0.1271  0.0944
   99loPI    C1 1569   0.949  10.374  10.049  0.0413  0.0563  0.0699
   99loPI    C2 1570   1.237  10.108   9.969 -0.1647 -0.0861 -0.2175
   99loPI    C3 1571   1.329  10.458  10.140  0.1552 -0.1960 -0.1585
   99loPI   PO4 1572   0.866  10.381   9.791  0.1799 -0.0323  0.0045
   99loPI   GL1 1573   1.168  10.306   9.495 -0.1745  0.2329  0.0619
   99loPI   GL2 1574   1.547  10.332   9.607  0.1318 -0.1550  0.1127
   99loPI   C1A 1575   1.222  10.529   9.130  0.2103 -0.1179  0.0139
   99loPI   C2A 1576   1.167  10.425   8.697  0.0767 -0.1980  0.0815
   99loPI   C3A 1577   1.358   9.973   8.515  0.3927 -0.1841 -0.1360
   99loPI   C4A 1578   1.494   9.869   8.192 -0.1727 -0.2618  0.4810
   99loPI   C5A 1579   1.751   9.845   7.852  0.0558  0.0309 -0.3426
   99loPI   C6A 1580   2.048   9.752   7.506  0.2266 -0.0326  0.3202
   99loPI   C1B 1581   1.569  10.183   9.168 -0.0413  0.0034  0.0332
   99loPI   C2B 1582   1.670  10.288   8.800  0.0502  0.0384  0.4709
   99loPI   C3B 1583   1.821  10.173   8.341 -0.1203  0.1307  0.1467
   99loPI   C4B 1584   1.942  10.259   7.810 -0.1368  0.3859 -0.0167
  100loPI    C1 1585  16.095   6.140  10.147 -0.1512 -0.1661  0.1168
  100loPI    C2 1586  15.708   6.241  10.136 -0.0707  0.1264 -0.2273
  100loPI    C3 1587  15.978   6.494  10.289 -0.0165 -0.0954  0.0537
  100loPI   PO4 1588  16.178   6.106   9.841  0.1641  0.3835 -0.0825
  100loPI   GL1 1589  15.905   6.101   9.588  0.0801  0.0601  0.1399
  100loPI   GL2 1590  15.862   6.361   9.378  0.0477 -0.0079  0.2793
  100loPI   C1A 1591  15.906   5.895   9.240  0.1842  0.1847  0.3381
  100loPI   C2A 1592  16.000   5.672   8.925 -0.1298 -0.0807 -0.5400
  100loPI   C3A 1593  16.135   5.683   8.501  0.2185 -0.2310 -0.0788
  100loPI   C4A 1594  16.142   5.651   8.051  0.1252  0.0568 -0.2383
  100loPI   C5A 1595  15.891   5.683   7.728  0.2886  0.1794 -0.0205
  100loPI   C6A 1596  15.621   5.939   7.489  0.2677  0.1682  0.2280
  100loPI   C1B 1597  16.005   6.562   9.015 -0.5782 -0.3836  0.0604
  100loPI   C2B 1598  15.985   6.630   8.621 -0.1131 -0.2722  0.2429
  100loPI   C3B 1599  16.065   6.259   8.328  0.1465 -0.0046  0.3354
  100loPI   C4B 1600  16.137   6.158   7.845  0.1055 -0.0985 -0.0165
  101loPI    C1 1601   0.614  14.891  10.401  0.1148  0.1302  0.0632
  101loPI    C2 1602   0.580  14.615  10.688 -0.3269  0.2255  0.1108
  101loPI    C3 1603   0.784  14.952  10.757  0.2532 -0.0969  0.0378
  101loPI   PO4 1604   0.663  14.789  10.136 -0.1685  0.1602 -0.2124
  101loPI   GL1 1605   0.427  14.803   9.780 -0.1239  0.0282  0.0790
  101loPI   GL2 1606   0.142  14.955   9.546  0.1662 -0.0438  0.1066
  101loPI   C1A 1607   0.563  14.760   9.342  0.0799 -0.1107 -0.2827
  101loPI   C2A 1608   0.523  14.780   8.920  0.2204 -0.2739  0.1958
  101loPI   C3A 1609   0.525  14.905   8.543 -0.0865  0.1278 -0.2589
  101loPI   C4A 1610   0.472  14.906   8.110  0.1357 -0.0677  0.1316
  101loPI   C5A 1611   0.412  14.557   7.704  0.0462  0.1615 -0.0099
  101loPI   C6A 1612   0.098  14.327   7.558 -0.1760 -0.0466 -0.3745
  101loPI   C1B 1613   0.211  15.124   9.269  0.2286  0.1845  0.2029
  101loPI   C2B 1614   0.253  15.268   8.852 -0.0018  0.0390  0.1719
  101loPI   C3B 1615   0.322  15.392   8.446  0.0512 -0.2278 -0.0748
  101loPI   C4B 1616   0.656  15.350   8.149  0.3887 -0.1412 -0.0019
  102loPI    C1 1617   2.356   1.575  10.217 -0.2065 -0.0127 -0.0500
  102loPI    C2 1618   2.245   1.258  10.434  0.0602  0.0283  0.1506
  102loPI    C3 1619   2.011   1.582  10.419 -0.0779 -0.0697  0.1742
  102loPI   PO4 1620   2.380   1.516   9.913  0.0920  0.2090  0.2694
  102loPI   GL1 1621   2.191   1.602   9.568  0.1761 -0.0562  0.0943
  102loPI   GL2 1622   1.916   1.785   9.475 -0.0829 -0.0309  0.2390
  102loPI   C1A 1623   2.256   1.782   9.129  0.1436 -0.0162  0.4722
  102loPI   C2A 1624   2.327   1.854   8.714  0.2105  0.0781  0.3939
  102loPI   C3A 1625   2.246   1.420   8.487 -0.0001 -0.0383  0.3616
  102loPI   C4A 1626   1.933   1.396   8.215  0.0410 -0.0549  0.2178
  102loPI   C5A 1627   1.706   1.218   7.905  0.1343 -0.0799  0.1335
  102loPI   C6A 1628   1.411   1.323   7.469 -0.0059  0.1479 -0.4550
  102loPI   C1B 1629   1.784   1.738   8.962  0.0022  0.0330 -0.1002
  102loPI   C2B 1630   1.816   1.923   8.506 -0.0507  0.1532  0.3042
  102loPI   C3B 1631   2.154   1.963   8.215  0.0892 -0.0472  0.1787
  102loPI   C4B 1632   2.190   2.286   7.794 -0.0011 -0.1508 -0.2883
  103loPI    C1 1633   0.887  12.483  10.084  0.1757 -0.0036 -0.0282
  103loPI    C2 1634   1.074  12.641  10.400 -0.0795 -0.1496  0.1999
  103loPI    C3 1635   1.093  12.247  10.332 -0.1517 -0.1397  0.1204
  103loPI   PO4 1636   0.869  12.616   9.753 -0.0778  0.2824  0.4117
  103loPI   GL1 1637   1.174  12.632   9.379  0.0012  0.0242 -0.0209
  103loPI   GL2 1638   1.313  12.827   9.524 -0.3063 -0.0764  0.2677
  103loPI   C1A 1639   1.101  12.462   8.936  0.4038 -0.0103  0.0438
  103loPI   C2A 1640   1.251  12.422   8.565 -0.1038  0.1744  0.0471
  103loPI   C3A 1641   1.328  12.427   8.133  0.1482 -0.0918  0.1848
  103loPI   C4A 1642   1.355  12.347   7.712 -0.0035  0.0349  0.2634
  103loPI   C5A 1643   1.181  12.175   7.244  0.0175 -0.0173  0.1862
  103loPI   C6A 1644   1.420  11.906   6.922  0.1922 -0.3445  0.0664
  103loPI   C1B 1645   1.371  13.033   9.055  0.1533  0.2620 -0.0652
  103loPI   C2B 1646   1.315  12.971   8.669 -0.0092  0.2841 -0.1175
  103loPI   C3B 1647   1.411  12.894   8.285 -0.0328  0.0815 -0.1086
  103loPI   C4B 1648   1.247  12.872   7.888  0.1051 -0.3374  0.4520
  104loPI    C1 1649  18.903  11.141  10.298 -0.1289  0.0119  0.0131
  104loPI    C2 1650  18.870  11.365  10.627 -0.0180  0.0292  0.0130
  104loPI    C3 1651  18.545  11.195  10.467 -0.1319  0.3353 -0.0897
  104loPI   PO4 1652  19.057  11.306  10.027 -0.1064  0.1181  0.0741
  104loPI   GL1 1653  19.201  11.310   9.647 -0.2946  0.3179  0.3191
  104loPI   GL2 1654  19.140  11.601   9.591 -0.2316 -0.5105  0.0582
  104loPI   C1A 1655  18.777  11.330   9.340 -0.1925  0.2245  0.0732
  104loPI   C2A 1656  19.043  11.212   8.952  0.1062  0.2322  0.0967
  104loPI   C3A 1657  18.872  11.191   8.498  0.0814 -0.1944  0.0840
  104loPI   C4A 1658  18.923  11.278   8.019  0.2522 -0.0174  0.4260
  104loPI   C5A 1659  18.883  11.379   7.606  0.1402 -0.1591  0.1992
  104loPI   C6A 1660  19.090  11.370   7.219 -0.4818  0.0891  0.0130
  104loPI   C1B 1661  19.147  11.665   9.182 -0.3310  0.2186  0.2894
  104loPI   C2B 1662  19.047  11.659   8.789  0.1556  0.0139 -0.0421
  104loPI   C3B 1663  18.885  11.653   8.390 -0.3019  0.1914 -0.1072
  104loPI   C4B 1664  18.551  11.708   8.131 -0.2917 -0.3336 -0.0898
  105loPI    C1 1665   2.971  17.274  10.329 -0.0258 -0.3405 -0.1590
  105loPI    C2 1666   2.836  17.073  10.647  0.2170 -0.2981 -0.0258
  105loPI    C3 1667   3.222  17.176  10.625  0.0554  0.3668  0.0271
  105loPI   PO4 1668   2.844  17.255  10.057 -0.1400  0.0508 -0.0311
  105loPI   GL1 1669   2.406  17.072   9.930  0.2612  0.1878 -0.1275
  105loPI   GL2 1670   2.580  16.975   9.712 -0.1821  0.3070 -0.2271
  105loPI   C1A 1671   2.224  17.198   9.435 -0.0934  0.1574 -0.1678
  105loPI   C2A 1672   2.148  17.294   9.113 -0.0938 -0.2655  0.1191
  105loPI   C3A 1673   2.026  17.489   8.819  0.0794  0.0805 -0.1253
  105loPI   C4A 1674   1.835  17.442   8.425  0.1334 -0.0662 -0.0069
  105loPI   C5A 1675   1.973  17.250   8.010 -0.3046 -0.1424  0.3476
  105loPI   C6A 1676   1.731  17.079   7.618 -0.5052 -0.2117  0.0895
  105loPI   C1B 1677   2.649  16.948   9.265  0.0508  0.1271  0.1637
  105loPI   C2B 1678   2.823  17.071   8.829 -0.0650  0.0905 -0.1022
  105loPI   C3B 1679   3.039  17.271   8.666  0.0066  0.2400  0.3144
  105loPI   C4B 1680   3.060  17.713   8.825  0.3859  0.0552 -0.1196
  106loPI    C1 1681   9.772   5.461   9.982 -0.0812 -0.1252  0.0071
  106loPI    C2 1682   9.689   5.090  10.106  0.0534 -0.0970  0.1861
  106loPI    C3 1683   9.815   5.365  10.368 -0.2833  0.1460  0.1002
  106loPI   PO4 1684   9.775   5.419   9.780  0.1316 -0.3276  0.6083
  106loPI   GL1 1685   9.698   5.242   9.292 -0.2152 -0.0864  0.1941
  106loPI   GL2 1686  10.014   5.115   9.488  0.0134 -0.1708 -0.1133
  106loPI   C1A 1687   9.605   5.116   8.887  0.1600  0.1325  0.0965
  106loPI   C2A 1688   9.603   5.154   8.491  0.0915  0.1092 -0.1773
  106loPI   C3A 1689   9.713   5.159   8.113 -0.0051 -0.1791 -0.2193
  106loPI   C4A 1690   9.687   5.203   7.688 -0.1289  0.2896 -0.2261
  106loPI   C5A 1691   9.415   4.963   7.437 -0.1801  0.1578 -0.0110
  106loPI   C6A 1692   9.027   5.089   7.441 -0.1048  0.1762  0.1000
  106loPI   C1B 1693  10.129   4.906   9.189 -0.1942 -0.0694 -0.0845
  106loPI   C2B 1694  10.010   4.827   8.711 -0.3633 -0.0242 -0.1352
  106loPI   C3B 1695  10.127   4.950   8.351 -0.0034  0.0725  0.1478
  106loPI   C4B 1696  10.133   4.937   7.943  0.2269  0.1366  0.2139
  107loPI    C1 1697   2.470  10.090   9.987  0.1037  0.2723  0.1036
  107loPI    C2 1698   2.370   9.985  10.360 -0.0892  0.2599  0.0498
  107loPI    C3 1699   2.672   9.800  10.175 -0.1406  0.1072  0.1168
  107loPI   PO4 1700   2.273  10.281   9.888  0.0342 -0.2609  0.1069
  107loPI   GL1 1701   2.262  10.299   9.421  0.3171  0.2064 -0.1515
  107loPI   GL2 1702   1.990  10.411   9.357  0.0250  0.0693 -0.2759
  107loPI   C1A 1703   2.597  10.504   9.139 -0.0362  0.3880  0.4194
  107loPI   C2A 1704   2.608  10.850   8.793 -0.0679 -0.0141 -0.1816
  107loPI   C3A 1705   2.524  11.023   8.329  0.1307 -0.1963 -0.1128
  107loPI   C4A 1706   2.513  11.053   7.870 -0.1359 -0.0814 -0.0656
  107loPI   C5A 1707   2.830  11.007   7.593  0.0728 -0.2150  0.2493
  107loPI   C6A 1708   2.881  10.952   7.301 -0.1767 -0.0102  0.3153
  107loPI   C1B 1709   2.154  10.468   8.925 -0.1049  0.2649 -0.3050
  107loPI   C2B 1710   2.107  10.633   8.490 -0.4102  0.0865  0.1342
  107loPI   C3B 1711   2.023  10.755   8.065  0.1684  0.3608  0.3342
  107loPI   C4B 1712   1.940  11.050   7.631  0.0071 -0.1739  0.0448
  108loPI    C1 1713  15.277   2.705  10.032 -0.0395  0.1520  0.0322
  108loPI    C2 1714  15.236   2.556  10.401  0.0016 -0.1116 -0.0678
  108loPI    C3 1715  15.412   2.911  10.347 -0.2952  0.0800  0.1916
  108loPI   PO4 1716  15.380   2.517   9.884  0.4752 -0.2779 -0.0508
  108loPI   GL1 1717  15.405   2.490   9.452 -0.1443  0.0700 -0.0579
  108loPI   GL2 1718  15.753   2.363   9.245  0.1078  0.1726 -0.0614
  108loPI   C1A 1719  15.269   2.445   9.005  0.0849  0.0506 -0.2717
  108loPI   C2A 1720  15.279   2.326   8.597 -0.0392 -0.0584  0.1512
  108loPI   C3A 1721  15.220   2.353   8.209  0.0447 -0.0682  0.0627
  108loPI   C4A 1722  15.274   2.388   7.713  0.1027 -0.4680  0.2557
  108loPI   C5A 1723  15.441   2.694   7.341 -0.2100  0.1812 -0.1027
  108loPI   C6A 1724  15.597   3.034   6.999 -0.1091 -0.2845 -0.1460
  108loPI   C1B 1725  15.833   2.397   8.813  0.0250  0.0057 -0.0612
  108loPI   C2B 1726  15.732   2.305   8.399 -0.0017  0.1733  0.3143
  108loPI   C3B 1727  15.648   2.118   7.914  0.0612 -0.2344 -0.2039
  108loPI   C4B 1728  15.667   2.263   7.450 -0.2985 -0.1290  0.2006
  109loPI    C1 1729  10.102   1.860   9.913  0.2250 -0.1764 -0.2801
  109loPI    C2 1730  10.097   1.951  10.303  0.0545 -0.2491 -0.2643
  109loPI    C3 1731  10.177   1.577  10.186  0.1031 -0.2279 -0.2995
  109loPI   PO4 1732  10.177   2.058   9.745 -0.1293  0.1333 -0.1526
  109loPI   GL1 1733  10.157   2.033   9.340 -0.1868 -0.1500  0.1770
  109loPI   GL2 1734  10.393   1.929   9.294  0.1655  0.1504 -0.0502
  109loPI   C1A 1735   9.910   1.751   9.057  0.1042  0.0588  0.2345
  109loPI   C2A 1736   9.908   1.691   8.720  0.0409  0.0288  0.2628
  109loPI   C3A 1737   9.930   1.715   8.308 -0.0680  0.1790  0.3241
  109loPI   C4A 1738   9.917   1.879   7.990  0.3806  0.1309 -0.3854
  109loPI   C5A 1739   9.685   1.987   7.683 -0.1890 -0.0582 -0.0619
  109loPI   C6A 1740   9.282   2.121   7.487  0.0701  0.2650  0.0079
  109loPI   C1B 1741  10.360   1.951   8.883 -0.1834  0.0604 -0.1856
  109loPI   C2B 1742  10.385   1.953   8.353  0.0378  0.0487 -0.1890
  109loPI   C3B 1743  10.328   2.112   7.982  0.0373 -0.1967  0.0262
  109loPI   C4B 1744  10.185   2.116   7.521 -0.0533  0.2861 -0.4007
  110loPI    C1 1745  15.163   5.919  10.124  0.0009 -0.2645  0.1325
  110loPI    C2 1746  14.938   6.235  10.027  0.0922 -0.2557 -0.0550
  110loPI    C3 1747  15.226   6.272  10.301  0.0572 -0.1936 -0.0266
  110loPI   PO4 1748  15.251   5.775   9.927  0.1601  0.1110 -0.0998
  110loPI   GL1 1749  15.478   5.842   9.529 -0.5076  0.0209  0.0207
  110loPI   GL2 1750  15.233   5.782   9.405  0.0723  0.2594 -0.1270
  110loPI   C1A 1751  15.441   6.044   9.085 -0.0081 -0.3556 -0.0063
  110loPI   C2A 1752  15.695   6.014   8.785 -0.1624  0.1440  0.0654
  110loPI   C3A 1753  15.703   5.924   8.286 -0.0399 -0.0096  0.1408
  110loPI   C4A 1754  15.515   5.614   8.067  0.1129  0.1834 -0.2851
  110loPI   C5A 1755  15.452   5.233   7.787 -0.0772 -0.1361 -0.1597
  110loPI   C6A 1756  15.707   4.938   7.547  0.2974 -0.1041  0.2099
  110loPI   C1B 1757  15.077   5.709   9.011 -0.3093  0.0914  0.2094
  110loPI   C2B 1758  15.250   5.710   8.649  0.0224 -0.0236  0.1799
  110loPI   C3B 1759  15.218   6.031   8.369  0.2982 -0.1419 -0.1282
  110loPI   C4B 1760  15.393   6.180   7.948  0.0914  0.1017  0.2614
  111loPI    C1 1761   7.946   4.518  10.152  0.1246  0.0607  0.0094
  111loPI    C2 1762   8.342   4.468  10.185  0.1096 -0.0335  0.0497
  111loPI    C3 1763   8.107   4.423  10.506  0.0694  0.0555  0.0331
  111loPI   PO4 1764   7.936   4.694   9.965  0.0740  0.0669  0.0231
  111loPI   GL1 1765   8.075   4.752   9.575  0.3444 -0.2393  0.1198
  111loPI   GL2 1766   8.253   4.479   9.538  0.2153  0.0281  0.1213
  111loPI   C1A 1767   8.209   5.066   9.230 -0.0570  0.0061  0.4277
  111loPI   C2A 1768   8.334   5.080   8.866  0.0191 -0.1346  0.0557
  111loPI   C3A 1769   8.348   5.092   8.452 -0.0209  0.2108  0.1937
  111loPI   C4A 1770   8.296   5.091   8.060 -0.2008 -0.1242 -0.0552
  111loPI   C5A 1771   8.091   5.274   7.629 -0.0476 -0.0974  0.0478
  111loPI   C6A 1772   7.794   5.559   7.581 -0.0934  0.0058  0.1093
  111loPI   C1B 1773   8.209   4.476   9.152 -0.0573  0.0262 -0.1862
  111loPI   C2B 1774   8.283   4.581   8.825  0.0829 -0.2172  0.0068
  111loPI   C3B 1775   8.274   4.595   8.339 -0.4715  0.2757 -0.3073
  111loPI   C4B 1776   8.367   4.566   7.910 -0.1920  0.3327 -0.0821
  112loPI    C1 1777  16.843  14.460  10.264 -0.1073 -0.1510  0.1617
  112loPI    C2 1778  16.812  14.388   9.871 -0.0540  0.0537  0.1188
  112loPI    C3 1779  17.013  14.708  10.001 -0.1797  0.0574  0.3093
  112loPI   PO4 1780  16.547  14.385  10.350  0.1136 -0.3033  0.3970
  112loPI   GL1 1781  16.367  14.552  10.041 -0.0698 -0.2019  0.0089
  112loPI   GL2 1782  16.505  14.859   9.942  0.1222 -0.1782 -0.0578
  112loPI   C1A 1783  16.351  14.387   9.660  0.1066  0.0462 -0.5062
  112loPI   C2A 1784  16.181  14.299   9.297 -0.1368 -0.2697 -0.0313
  112loPI   C3A 1785  16.108  14.509   8.865  0.0429 -0.0108 -0.0266
  112loPI   C4A 1786  16.101  14.567   8.392 -0.1029 -0.2465 -0.1405
  112loPI   C5A 1787  16.315  14.399   8.025  0.0312  0.1989  0.1486
  112loPI   C6A 1788  16.677  14.408   7.697 -0.3335  0.2285 -0.0105
  112loPI   C1B 1789  16.695  14.771   9.567  0.2355  0.1806 -0.2379
  112loPI   C2B 1790  16.836  14.548   9.139  0.3210 -0.1275  0.0605
  112loPI   C3B 1791  16.925  14.664   8.780  0.1387  0.2392  0.2017
  112loPI   C4B 1792  17.004  14.732   8.389  0.0554 -0.0382  0.0632
  113loPI    C1 1793  10.730  17.509  10.000  0.1224  0.1679  0.3211
  113loPI    C2 1794  10.477  17.787   9.861  0.1982 -0.0494 -0.2778
  113loPI    C3 1795  10.337  17.472  10.065  0.0360  0.0577 -0.2223
  113loPI   PO4 1796  10.894  17.471   9.732  0.2025  0.0679 -0.2042
  113loPI   GL1 1797  10.988  17.731   9.416  0.1363  0.1262 -0.4692
  113loPI   GL2 1798  11.205  18.006   9.411 -0.2179  0.0139 -0.2188
  113loPI   C1A 1799  10.891  17.850   9.035 -0.0756  0.1419  0.0728
  113loPI   C2A 1800  10.564  17.807   8.743 -0.0829  0.0925  0.1717
  113loPI   C3A 1801  10.725  17.744   8.296 -0.2391  0.3358  0.0316
  113loPI   C4A 1802  10.658  17.706   7.838  0.3203  0.0244 -0.0328
  113loPI   C5A 1803  10.881  17.640   7.470  0.1559 -0.0569  0.1968
  113loPI   C6A 1804  11.210  17.816   7.270 -0.0106 -0.3919  0.1226
  113loPI   C1B 1805  11.176  18.314   9.104  0.1032 -0.0003 -0.0622
  113loPI   C2B 1806  11.049  18.246   8.732 -0.2278 -0.1466 -0.3311
  113loPI   C3B 1807  11.118  18.214   8.238 -0.0650 -0.4193  0.0061
  113loPI   C4B 1808  11.034  18.023   7.889 -0.0071  0.1898 -0.0196
  114loPI    C1 1809   1.805   7.227  10.132 -0.2690  0.0830  0.1618
  114loPI    C2 1810   1.825   7.486  10.435 -0.0563 -0.0361  0.2521
  114loPI    C3 1811   1.544   7.201  10.434 -0.0743 -0.0188  0.3238
  114loPI   PO4 1812   1.827   7.400   9.951 -0.1460  0.2617 -0.0481
  114loPI   GL1 1813   1.603   7.418   9.584 -0.0244  0.0371 -0.0108
  114loPI   GL2 1814   1.593   7.740   9.417 -0.0907  0.3893  0.1528
  114loPI   C1A 1815   1.678   7.173   9.276  0.0343 -0.1920  0.0356
  114loPI   C2A 1816   1.465   7.427   8.912 -0.0394  0.0040 -0.0424
  114loPI   C3A 1817   1.299   7.461   8.479 -0.1239  0.3009  0.0997
  114loPI   C4A 1818   1.078   7.514   8.118  0.0136  0.3298  0.0863
  114loPI   C5A 1819   1.071   7.307   7.756  0.4286 -0.1821  0.1671
  114loPI   C6A 1820   1.115   7.123   7.359 -0.0812 -0.0966  0.0712
  114loPI   C1B 1821   1.803   7.849   9.093 -0.0022  0.2056 -0.0356
  114loPI   C2B 1822   2.169   7.887   8.679  0.1896  0.1666  0.0631
  114loPI   C3B 1823   2.181   8.017   8.217  0.2369  0.1020 -0.1737
  114loPI   C4B 1824   2.324   7.986   7.822 -0.1333  0.1564 -0.0963
  115loPI    C1 1825  13.893  16.306  10.133 -0.2252 -0.1350  0.0540
  115loPI    C2 1826  14.160  16.579  10.253 -0.2332 -0.1769  0.1687
  115loPI    C3 1827  13.981  16.343  10.522  0.0464 -0.5479  0.0379
  115loPI   PO4 1828  13.909  16.386   9.847  0.0764 -0.2514 -0.2636
  115loPI   GL1 1829  13.741  16.269   9.514 -0.1390  0.4790 -0.0006
  115loPI   GL2 1830  13.660  16.006   9.522 -0.0364 -0.4039  0.0281
  115loPI   C1A 1831  13.935  16.205   9.155  0.1584 -0.0117  0.2588
  115loPI   C2A 1832  13.807  16.058   8.790 -0.2257  0.3606  0.3262
  115loPI   C3A 1833  13.534  15.846   8.596 -0.0916 -0.0595 -0.0549
  115loPI   C4A 1834  13.381  15.818   8.166 -0.1421  0.1752 -0.3729
  115loPI   C5A 1835  13.193  15.922   7.785  0.1146 -0.0816  0.1959
  115loPI   C6A 1836  13.088  15.594   7.470 -0.3974 -0.2924  0.2802
  115loPI   C1B 1837  13.429  15.829   9.157  0.0178  0.1067  0.2291
  115loPI   C2B 1838  13.084  16.041   8.910 -0.0450  0.0639  0.1698
  115loPI   C3B 1839  13.059  16.093   8.499 -0.2643  0.0445  0.1820
  115loPI   C4B 1840  12.861  15.861   8.144  0.1931 -0.2538  0.1828
  116loPI    C1 1841  12.112  17.927  10.087  0.0016 -0.0138 -0.1772
  116loPI    C2 1842  11.725  17.825  10.088  0.0087 -0.0473 -0.4091
  116loPI    C3 1843  11.851  18.134  10.308 -0.0986 -0.2201 -0.0992
  116loPI   PO4 1844  12.243  17.956   9.869 -0.0636  0.1501  0.1112
  116loPI   GL1 1845  12.309  17.808   9.550  0.0115 -0.1562 -0.0311
  116loPI   GL2 1846  12.613  17.753   9.479 -0.2197 -0.0381 -0.0168
  116loPI   C1A 1847  12.132  17.758   9.076 -0.0772  0.0948  0.2010
  116loPI   C2A 1848  12.139  17.852   8.695 -0.1702 -0.1482  0.0631
  116loPI   C3A 1849  12.132  17.771   8.300 -0.3368  0.1492 -0.3596
  116loPI   C4A 1850  12.295  17.716   7.902 -0.3322 -0.1930 -0.2385
  116loPI   C5A 1851  12.665  17.810   7.863  0.2286  0.1750 -0.4070
  116loPI   C6A 1852  12.958  17.875   7.650  0.3100 -0.1149 -0.2494
  116loPI   C1B 1853  12.703  17.538   9.189  0.1417  0.0130 -0.1793
  116loPI   C2B 1854  12.639  17.566   8.714 -0.2268  0.0642  0.1765
  116loPI   C3B 1855  12.569  17.558   8.357 -0.1804 -0.0777  0.0309
  116loPI   C4B 1856  12.762  17.326   8.156  0.1530  0.3032 -0.1345
  117loPI    C1 1857  13.154   2.355   9.989 -0.2985  0.0775 -0.0618
  117loPI    C2 1858  12.846   2.106   9.933 -0.1495 -0.1469  0.0997
  117loPI    C3 1859  13.178   1.976  10.114 -0.1022  0.1935  0.2647
  117loPI   PO4 1860  13.108   2.564   9.790 -0.0501  0.3173 -0.4543
  117loPI   GL1 1861  13.093   2.672   9.431  0.1854 -0.0779 -0.2206
  117loPI   GL2 1862  12.770   2.751   9.429  0.4840 -0.1305 -0.1706
  117loPI   C1A 1863  13.048   2.604   8.971 -0.3930 -0.1273 -0.5524
  117loPI   C2A 1864  13.184   2.533   8.584 -0.4902  0.0051 -0.0711
  117loPI   C3A 1865  13.058   2.330   8.274  0.1872  0.0270  0.1706
  117loPI   C4A 1866  13.226   2.350   7.730 -0.1642  0.0198 -0.0964
  117loPI   C5A 1867  12.954   2.432   7.359 -0.4998  0.1206  0.2144
  117loPI   C6A 1868  13.228   2.524   7.016 -0.1617  0.4896 -0.2854
  117loPI   C1B 1869  12.614   2.828   8.958  0.1883 -0.3741  0.0635
  117loPI   C2B 1870  12.713   2.717   8.553  0.1091  0.0059 -0.2955
  117loPI   C3B 1871  12.707   2.659   8.093 -0.1724 -0.1645 -0.0371
  117loPI   C4B 1872  12.621   2.293   7.857 -0.1963  0.3227  0.0551
  118loPI    C1 1873   3.233   1.880   9.955  0.2459  0.1495 -0.1351
  118loPI    C2 1874   2.994   2.177  10.076 -0.1636 -0.2509  0.0704
  118loPI    C3 1875   3.102   1.891  10.333  0.0789 -0.3798 -0.1697
  118loPI   PO4 1876   3.475   2.063   9.917 -0.1297  0.1323  0.2265
  118loPI   GL1 1877   3.377   2.324   9.614  0.1344 -0.0100 -0.1415
  118loPI   GL2 1878   3.225   2.458   9.685  0.3027  0.1699  0.0847
  118loPI   C1A 1879   3.528   2.317   9.219 -0.1715 -0.1819  0.2478
  118loPI   C2A 1880   3.560   2.591   9.014 -0.1809  0.3224  0.3311
  118loPI   C3A 1881   3.404   2.595   8.592  0.1486  0.0481 -0.0057
  118loPI   C4A 1882   3.261   2.526   8.247 -0.1677  0.2545 -0.0112
  118loPI   C5A 1883   2.976   2.248   8.041  0.0343  0.1801 -0.2840
  118loPI   C6A 1884   2.974   2.107   7.663 -0.2476  0.0775  0.1413
  118loPI   C1B 1885   3.089   2.628   9.327  0.4408 -0.0411  0.1429
  118loPI   C2B 1886   3.116   2.373   8.872  0.1198 -0.1163 -0.2699
  118loPI   C3B 1887   3.165   2.138   8.573 -0.0003 -0.0850 -0.0771
  118loPI   C4B 1888   2.821   1.727   8.409 -0.5789  0.0461  0.0495
  119loPI    C1 1889   7.039  10.352  10.391 -0.0653  0.1121 -0.1179
  119loPI    C2 1890   7.358  10.471  10.182  0.0681  0.1510  0.1044
  119loPI    C3 1891   7.368  10.125  10.382 -0.0482  0.1280  0.0711
  119loPI   PO4 1892   6.752  10.328  10.242 -0.0007  0.2297 -0.1234
  119loPI   GL1 1893   6.562  10.351   9.805 -0.1008 -0.2099 -0.0102
  119loPI   GL2 1894   6.665  10.624   9.803 -0.4132  0.1813 -0.4142
  119loPI   C1A 1895   6.668  10.453   9.339 -0.1451  0.0138 -0.1670
  119loPI   C2A 1896   6.643  10.567   8.949 -0.1797 -0.1598  0.0024
  119loPI   C3A 1897   6.817  10.526   8.580  0.1590  0.0050 -0.0392
  119loPI   C4A 1898   6.760  10.623   8.194  0.0264 -0.1264  0.2934
  119loPI   C5A 1899   7.097  10.908   7.912  0.2471 -0.0608  0.1044
  119loPI   C6A 1900   7.319  11.172   7.623 -0.3444 -0.1634  0.0292
  119loPI   C1B 1901   6.450  10.957   9.463  0.0910 -0.1032 -0.0235
  119loPI   C2B 1902   6.290  11.031   9.097 -0.0784 -0.3076 -0.2403
  119loPI   C3B 1903   6.113  11.047   8.734 -0.0491  0.3382 -0.5064
  119loPI   C4B 1904   6.007  11.022   8.289  0.1403  0.0903 -0.1220
  120loPI    C1 1905   4.876   0.803  10.050 -0.1799 -0.2080  0.1681
  120loPI    C2 1906   5.260   0.810  10.164 -0.1443 -0.0918  0.0441
  120loPI    C3 1907   5.032   1.135  10.208 -0.2111 -0.1400  0.0570
  120loPI   PO4 1908   4.915   0.667   9.788  0.0113  0.0029  0.0781
  120loPI   GL1 1909   4.983   0.586   9.266  0.1619 -0.1342  0.0007
  120loPI   GL2 1910   4.942   0.911   9.359 -0.0617  0.0968  0.1131
  120loPI   C1A 1911   5.256   0.556   8.988  0.0879  0.0618 -0.4583
  120loPI   C2A 1912   5.220   0.400   8.653 -0.2379  0.0637  0.1241
  120loPI   C3A 1913   5.121   0.366   8.194  0.1684  0.0898  0.0159
  120loPI   C4A 1914   5.335   0.413   7.654 -0.0125 -0.0913  0.2049
  120loPI   C5A 1915   5.598   0.594   7.366 -0.0928 -0.2896  0.2360
  120loPI   C6A 1916   5.936   0.663   7.083 -0.0422  0.1030  0.0475
  120loPI   C1B 1917   5.096   1.143   8.976 -0.1155  0.1163 -0.1729
  120loPI   C2B 1918   5.029   1.112   8.555 -0.0206  0.2256  0.1342
  120loPI   C3B 1919   5.058   0.853   8.083 -0.1546  0.3044  0.0133
  120loPI   C4B 1920   4.690   0.959   7.759  0.3340  0.3401  0.0540
  121loPI    C1 1921   4.684  13.072  10.376 -0.1238 -0.0516  0.1553
  121loPI    C2 1922   4.357  13.279  10.477 -0.0695  0.0750  0.0735
  121loPI    C3 1923   4.694  13.323  10.688 -0.0308  0.1429 -0.0015
  121loPI   PO4 1924   4.692  13.058  10.187 -0.2902  0.1118  0.2789
  121loPI   GL1 1925   5.073  12.892  10.006  0.0473  0.0300  0.0467
  121loPI   GL2 1926   4.778  12.817   9.768 -0.2428  0.2874 -0.0525
  121loPI   C1A 1927   5.266  12.627   9.663 -0.1043  0.0049 -0.0826
  121loPI   C2A 1928   5.335  12.543   9.237  0.1693  0.0267  0.1849
  121loPI   C3A 1929   5.165  12.733   8.829 -0.3680  0.3020 -0.0767
  121loPI   C4A 1930   5.130  12.624   8.373 -0.0682 -0.3135 -0.3505
  121loPI   C5A 1931   5.393  12.335   8.050  0.1903 -0.0273 -0.0202
  121loPI   C6A 1932   5.312  11.878   8.157 -0.1066 -0.3386  0.0720
  121loPI   C1B 1933   4.899  12.826   9.317 -0.0262  0.4289 -0.0654
  121loPI   C2B 1934   4.682  12.758   8.815  0.2182  0.1711 -0.0935
  121loPI   C3B 1935   4.597  12.692   8.393 -0.0299  0.1057  0.1613
  121loPI   C4B 1936   4.259  12.537   8.124 -0.2551 -0.1139  0.0091
  122loPI    C1 1937   6.229   6.464  10.272 -0.0713  0.1271 -0.2284
  122loPI    C2 1938   6.489   6.214  10.445 -0.1503 -0.0381 -0.3454
  122loPI    C3 1939   6.574   6.604  10.416 -0.1869  0.0147  0.1701
  122loPI   PO4 1940   6.207   6.465  10.072  0.2101  0.1167 -0.0136
  122loPI   GL1 1941   6.301   6.532   9.637 -0.1533  0.0597  0.0807
  122loPI   GL2 1942   6.021   6.763   9.631  0.3820  0.1907  0.2545
  122loPI   C1A 1943   6.405   6.532   9.213  0.3008  0.0959  0.0117
  122loPI   C2A 1944   6.398   6.743   8.864 -0.2355 -0.0906  0.1786
  122loPI   C3A 1945   6.503   6.820   8.354  0.1222 -0.4912 -0.1352
  122loPI   C4A 1946   6.588   6.627   7.989 -0.4720 -0.3074  0.0621
  122loPI   C5A 1947   6.840   6.509   7.605 -0.0869  0.2319 -0.0520
  122loPI   C6A 1948   7.147   6.396   7.207 -0.0946  0.2190 -0.5033
  122loPI   C1B 1949   5.793   6.781   9.333 -0.1918  0.1047  0.1636
  122loPI   C2B 1950   5.534   6.690   9.015 -0.0330  0.0490  0.1616
  122loPI   C3B 1951   5.554   6.674   8.618  0.4299  0.2457  0.0949
  122loPI   C4B 1952   5.790   6.774   8.193 -0.0341 -0.0862 -0.1722
  123loPI    C1 1953  16.894  10.421  10.650 -0.1285 -0.0072  0.2515
  123loPI    C2 1954  16.815  10.060  10.802  0.2758 -0.3067 -0.2185
  123loPI    C3 1955  17.150  10.252  10.906 -0.0347  0.0344  0.1859
  123loPI   PO4 1956  16.797  10.322  10.353  0.2325 -0.2522  0.0927
  123loPI   GL1 1957  16.806  10.043  10.011  0.0535  0.1124 -0.0160
  123loPI   GL2 1958  17.003  10.273   9.913 -0.0820  0.2189 -0.2640
  123loPI   C1A 1959  16.888   9.784   9.613 -0.0136  0.4578 -0.1094
  123loPI   C2A 1960  17.131   9.457   9.345  0.0147 -0.2065  0.2313
  123loPI   C3A 1961  17.176   9.517   9.009  0.2097 -0.1140  0.1364
  123loPI   C4A 1962  16.937   9.372   8.658 -0.3290 -0.0300  0.1675
  123loPI   C5A 1963  17.009   9.211   8.236  0.2415 -0.3369  0.3278
  123loPI   C6A 1964  17.229   9.337   7.785 -0.1345  0.0720  0.2058
  123loPI   C1B 1965  16.778  10.354   9.611 -0.0625 -0.0493 -0.2540
  123loPI   C2B 1966  16.775  10.399   9.136  0.2808 -0.2220 -0.0559
  123loPI   C3B 1967  16.871  10.518   8.691 -0.1398 -0.2740 -0.0890
  123loPI   C4B 1968  16.814  10.294   8.400 -0.0473 -0.1095 -0.0877
  124loPI    C1 1969   1.408  15.358  10.279  0.0365  0.3325  0.0751
  124loPI    C2 1970   1.657  15.083  10.429 -0.2234  0.0106 -0.0702
  124loPI    C3 1971   1.441  15.313  10.675 -0.0664  0.0299  0.0516
  124loPI   PO4 1972   1.561  15.460  10.125 -0.0179  0.3954 -0.0140
  124loPI   GL1 1973   1.863  15.501   9.779 -0.0633 -0.0641  0.1447
  124loPI   GL2 1974   2.181  15.549   9.717 -0.1115  0.3996  0.0599
  124loPI   C1A 1975   1.796  15.407   9.353  0.1890 -0.3108  0.2456
  124loPI   C2A 1976   1.878  15.606   8.930 -0.1929  0.0011 -0.1880
  124loPI   C3A 1977   2.106  15.640   8.526 -0.0295 -0.0641  0.0370
  124loPI   C4A 1978   1.935  15.634   8.073  0.0980  0.0697 -0.0804
  124loPI   C5A 1979   1.920  15.663   7.575 -0.2128 -0.1617 -0.0412
  124loPI   C6A 1980   1.859  15.642   7.157  0.0678  0.0413 -0.1722
  124loPI   C1B 1981   2.235  15.579   9.310 -0.0623 -0.3072  0.2123
  124loPI   C2B 1982   2.344  15.868   8.893 -0.0827 -0.0536 -0.0583
  124loPI   C3B 1983   2.238  16.116   8.689 -0.0711 -0.1267 -0.3150
  124loPI   C4B 1984   2.036  16.462   8.754 -0.4226  0.0946  0.0689
  125loPI    C1 1985  12.431   0.972  10.035  0.0191 -0.0812 -0.0054
  125loPI    C2 1986  12.739   1.142  10.226  0.1084 -0.2492  0.0019
  125loPI    C3 1987  12.415   1.029  10.431 -0.0338  0.0865 -0.0306
  125loPI   PO4 1988  12.497   1.061   9.799  0.1680 -0.0480 -0.0309
  125loPI   GL1 1989  12.715   1.061   9.435 -0.3689  0.1144  0.0993
  125loPI   GL2 1990  12.461   0.869   9.320 -0.4141  0.1291 -0.2053
  125loPI   C1A 1991  12.868   0.942   8.993  0.0960  0.3323  0.0331
  125loPI   C2A 1992  13.107   1.227   8.767 -0.1282  0.0477 -0.0984
  125loPI   C3A 1993  13.083   1.307   8.378 -0.0138 -0.0565 -0.0150
  125loPI   C4A 1994  13.275   1.229   8.126  0.0498  0.1853 -0.2314
  125loPI   C5A 1995  13.318   0.859   7.919  0.1371 -0.0363  0.1848
  125loPI   C6A 1996  13.307   0.743   7.555  0.1238 -0.1050 -0.3396
  125loPI   C1B 1997  12.497   1.233   8.970 -0.2833  0.0954  0.1081
  125loPI   C2B 1998  12.655   1.197   8.516 -0.2774 -0.1303 -0.2815
  125loPI   C3B 1999  12.787   1.234   7.992  0.1674 -0.2176 -0.0214
  125loPI   C4B 2000  12.806   1.031   7.626  0.2038 -0.0690  0.2003
  126loPI    C1 2001   9.344   1.614   9.897  0.1361  0.2789  0.2635
  126loPI    C2 2002   9.660   1.656  10.138  0.1785 -0.2796  0.3174
  126loPI    C3 2003   9.363   1.407  10.239 -0.0506 -0.1257  0.0363
  126loPI   PO4 2004   9.389   1.484   9.724  0.0975 -0.2697  0.2220
  126loPI   GL1 2005   9.561   1.384   9.324 -0.0648 -0.1910  0.1270
  126loPI   GL2 2006   9.409   1.072   9.138  0.0929 -0.0831 -0.0696
  126loPI   C1A 2007   9.519   1.434   8.833  0.2016  0.0263 -0.2030
  126loPI   C2A 2008   9.524   1.478   8.481  0.1970  0.1670  0.0447
  126loPI   C3A 2009   9.551   1.021   8.087  0.3071  0.0693 -0.0127
  126loPI   C4A 2010   9.154   0.837   7.754  0.0210 -0.2107  0.4095
  126loPI   C5A 2011   8.902   0.845   7.364 -0.0184 -0.3786  0.1889
  126loPI   C6A 2012   8.659   0.914   7.034 -0.1101  0.0701  0.1402
  126loPI   C1B 2013   9.445   0.942   8.622  0.2365 -0.1364 -0.0811
  126loPI   C2B 2014   9.181   0.724   8.249 -0.3868  0.4102 -0.2907
  126loPI   C3B 2015   8.998   0.375   7.941 -0.0545  0.2990  0.2687
  126loPI   C4B 2016   8.861   0.346   7.555  0.1249 -0.2482 -0.0181
  127loPI    C1 2017  17.934  13.196  10.440 -0.1567  0.0156 -0.1003
  127loPI    C2 2018  17.720  13.282  10.767 -0.0016 -0.1332  0.0421
  127loPI    C3 2019  18.044  13.499  10.677  0.0062 -0.1473  0.0361
  127loPI   PO4 2020  17.760  13.183  10.196 -0.0108  0.0073  0.1627
  127loPI   GL1 2021  17.656  13.422   9.908  0.1071  0.1426 -0.3510
  127loPI   GL2 2022  17.960  13.593   9.982  0.0866 -0.0248  0.1059
  127loPI   C1A 2023  17.649  13.817   9.606 -0.2595 -0.0582 -0.1124
  127loPI   C2A 2024  17.605  14.059   9.235  0.1473  0.1727  0.1769
  127loPI   C3A 2025  17.402  13.885   8.851  0.0937  0.0772 -0.1837
  127loPI   C4A 2026  17.244  13.691   8.463 -0.1621 -0.2037 -0.1937
  127loPI   C5A 2027  17.180  13.578   8.162 -0.1555  0.1560 -0.0448
  127loPI   C6A 2028  16.947  13.446   7.866 -0.0082 -0.0293 -0.3609
  127loPI   C1B 2029  17.997  13.427   9.558 -0.0465 -0.1888  0.1143
  127loPI   C2B 2030  17.872  13.505   9.159 -0.2461 -0.2710 -0.1739
  127loPI   C3B 2031  17.662  13.437   8.755 -0.0994 -0.1994  0.7879
  127loPI   C4B 2032  17.630  13.218   8.464  0.1784  0.2149  0.0107
  128loPI    C1 2033   4.552   6.044  10.058 -0.0594 -0.1928 -0.1167
  128loPI    C2 2034   4.463   6.103  10.444 -0.1056  0.1282 -0.1737
  128loPI    C3 2035   4.842   6.134  10.319 -0.0975  0.0725 -0.1635
  128loPI   PO4 2036   4.298   6.159   9.943 -0.1689 -0.0978 -0.0946
  128loPI   GL1 2037   4.200   6.174   9.547 -0.2848  0.1524 -0.0499
  128loPI   GL2 2038   4.186   6.486   9.516 -0.1392 -0.0314  0.1898
  128loPI   C1A 2039   4.300   5.997   9.218 -0.2241 -0.2358  0.4405
  128loPI   C2A 2040   4.050   5.673   8.923  0.0165  0.0495  0.4429
  128loPI   C3A 2041   3.666   5.494   8.650 -0.1644 -0.0641 -0.3401
  128loPI   C4A 2042   3.834   5.485   8.200  0.1338  0.0316  0.1824
  128loPI   C5A 2043   3.710   5.487   7.754 -0.3271  0.0006 -0.1103
  128loPI   C6A 2044   3.429   5.318   7.441 -0.0963 -0.1162 -0.1242
  128loPI   C1B 2045   4.100   6.453   9.112  0.0578 -0.1406  0.1088
  128loPI   C2B 2046   3.930   6.117   8.815  0.0408 -0.2419  0.1690
  128loPI   C3B 2047   3.914   5.912   8.446  0.2392  0.0987 -0.1182
  128loPI   C4B 2048   3.829   6.020   8.000 -0.0380  0.2212  0.0282
  129loPI    C1 2049   5.135  15.033   9.765 -0.0576  0.0937  0.0378
  129loPI    C2 2050   5.349  15.094  10.097 -0.2268  0.0125  0.1632
  129loPI    C3 2051   5.531  14.977   9.761 -0.0761 -0.0688  0.2719
  129loPI   PO4 2052   4.831  15.160   9.891 -0.0053 -0.1000 -0.0310
  129loPI   GL1 2053   4.609  15.339   9.616 -0.1004  0.0941  0.0278
  129loPI   GL2 2054   4.964  15.356   9.431 -0.1586  0.0404  0.0721
  129loPI   C1A 2055   4.451  15.398   9.259  0.1122 -0.1318  0.0049
  129loPI   C2A 2056   4.443  15.588   8.901 -0.1346 -0.0740  0.3068
  129loPI   C3A 2057   4.400  15.526   8.436  0.1403  0.1169 -0.1507
  129loPI   C4A 2058   4.328  15.544   7.996  0.1376  0.4137 -0.2799
  129loPI   C5A 2059   4.145  15.292   7.587  0.1376  0.1202  0.1703
  129loPI   C6A 2060   3.836  15.099   7.225  0.2571 -0.0148  0.0414
  129loPI   C1B 2061   4.910  15.329   8.972 -0.0650 -0.1786 -0.0231
  129loPI   C2B 2062   4.905  15.464   8.510  0.1841  0.0582 -0.2452
  129loPI   C3B 2063   4.948  15.211   8.204  0.1219  0.0105 -0.1261
  129loPI   C4B 2064   4.655  15.111   7.793  0.2563  0.1611 -0.1728
  130loPI    C1 2065  11.698  15.561   9.778  0.1615  0.0291  0.0483
  130loPI    C2 2066  11.808  15.912   9.937 -0.0099  0.0518  0.1191
  130loPI    C3 2067  11.449  15.758  10.021  0.0253 -0.0932  0.0089
  130loPI   PO4 2068  11.621  15.543   9.455  0.1954  0.0683  0.2079
  130loPI   GL1 2069  11.456  15.770   9.168  0.2204 -0.1419 -0.0813
  130loPI   GL2 2070  11.637  15.424   9.008 -0.1018 -0.0973 -0.0315
  130loPI   C1A 2071  11.315  15.939   8.807 -0.3805  0.0813 -0.1854
  130loPI   C2A 2072  11.496  15.765   8.474  0.0487 -0.1802 -0.0097
  130loPI   C3A 2073  11.465  15.471   8.084  0.0478 -0.1987 -0.3235
  130loPI   C4A 2074  11.230  15.433   7.754 -0.3754  0.3741 -0.1849
  130loPI   C5A 2075  11.411  15.384   7.394  0.1613 -0.0357 -0.0519
  130loPI   C6A 2076  11.524  15.443   6.921  0.0989  0.0325 -0.0091
  130loPI   C1B 2077  11.570  15.226   8.583  0.1396  0.2546  0.3996
  130loPI   C2B 2078  11.636  14.898   8.292  0.0144  0.2040  0.2181
  130loPI   C3B 2079  11.908  14.689   7.998 -0.0428  0.0003 -0.1547
  130loPI   C4B 2080  12.090  14.484   7.649  0.1213  0.1340  0.1733
  131loPI    C1 2081  14.920   0.513  10.135 -0.1805 -0.0660 -0.0209
  131loPI    C2 2082  14.609   0.295  10.261 -0.0369 -0.1420  0.2083
  131loPI    C3 2083  14.703   0.636  10.449 -0.2045  0.0739 -0.0913
  131loPI   PO4 2084  14.813   0.518   9.811  0.2744 -0.0840 -0.3694
  131loPI   GL1 2085  14.550   0.455   9.466 -0.2022 -0.1559  0.0173
  131loPI   GL2 2086  14.791   0.497   9.315 -0.0840  0.1817  0.1924
  131loPI   C1A 2087  14.321   0.551   9.101  0.1762 -0.0698  0.2806
  131loPI   C2A 2088  14.262   0.456   8.655 -0.0665  0.3042 -0.1189
  131loPI   C3A 2089  14.240   0.393   8.274  0.1064 -0.1233  0.1575
  131loPI   C4A 2090  14.247   0.356   7.817 -0.0786 -0.1281  0.0667
  131loPI   C5A 2091  14.172   0.377   7.352 -0.1290  0.2304  0.0060
  131loPI   C6A 2092  13.858  -0.015   7.254  0.2331  0.3137 -0.1284
  131loPI   C1B 2093  14.726   0.660   8.866 -0.0100  0.2082  0.0757
  131loPI   C2B 2094  14.692   0.605   8.423  0.0096 -0.3291 -0.0160
  131loPI   C3B 2095  14.695   0.478   8.047  0.0481 -0.0450 -0.2311
  131loPI   C4B 2096  14.609   0.619   7.586  0.1239  0.0960 -0.2367
  132loPI    C1 2097  17.593   7.436  10.211 -0.0513 -0.1007  0.0412
  132loPI    C2 2098  17.970   7.551  10.278 -0.0048 -0.1279 -0.1682
  132loPI    C3 2099  17.752   7.397  10.576  0.0138  0.2672  0.0551
  132loPI   PO4 2100  17.569   7.394   9.996  0.0677  0.1873  0.4856
  132loPI   GL1 2101  17.404   7.477   9.643 -0.0335  0.0557  0.0292
  132loPI   GL2 2102  17.293   7.121   9.524  0.0627  0.4072 -0.2280
  132loPI   C1A 2103  17.343   7.442   9.189 -0.1969  0.1492  0.2512
  132loPI   C2A 2104  17.220   7.373   8.718  0.0626  0.0630 -0.1070
  132loPI   C3A 2105  17.052   7.482   8.400  0.1353  0.1367 -0.1088
  132loPI   C4A 2106  16.929   7.652   8.056 -0.1973  0.1005  0.1820
  132loPI   C5A 2107  17.060   7.892   7.695 -0.4774  0.3066 -0.1154
  132loPI   C6A 2108  17.219   8.217   7.517  0.2392  0.0932 -0.0886
  132loPI   C1B 2109  17.403   6.885   9.178 -0.2864 -0.1252 -0.2019
  132loPI   C2B 2110  17.553   6.931   8.790 -0.0384  0.2058 -0.2067
  132loPI   C3B 2111  17.457   6.965   8.333  0.0721  0.1122 -0.1789
  132loPI   C4B 2112  17.152   7.120   8.006  0.3129  0.0329  0.2507
  133loPI    C1 2113   2.604   6.711  10.228  0.0874  0.0467 -0.2433
  133loPI    C2 2114   2.342   6.480  10.422  0.0930  0.2121 -0.0356
  133loPI    C3 2115   2.724   6.494  10.541  0.1971 -0.0207 -0.3314
  133loPI   PO4 2116   2.470   6.706   9.993  0.2441 -0.1834  0.1820
  133loPI   GL1 2117   2.206   6.794   9.661 -0.0797 -0.4292 -0.3006
  133loPI   GL2 2118   1.863   6.968   9.708  0.0893  0.2960 -0.2171
  133loPI   C1A 2119   2.299   6.872   9.160 -0.1729 -0.0286  0.0801
  133loPI   C2A 2120   2.248   6.575   8.723  0.2254  0.3027 -0.0432
  133loPI   C3A 2121   2.336   6.671   8.242  0.1475 -0.1621 -0.0602
  133loPI   C4A 2122   2.190   6.677   7.864  0.2213 -0.0144 -0.0774
  133loPI   C5A 2123   1.885   6.783   7.512 -0.1118  0.2403 -0.0355
  133loPI   C6A 2124   2.063   6.813   7.037  0.2077  0.0309  0.1221
  133loPI   C1B 2125   1.774   6.644   9.355 -0.1415 -0.2279  0.0325
  133loPI   C2B 2126   1.830   6.801   8.882  0.0459 -0.0530 -0.1092
  133loPI   C3B 2127   1.829   6.719   8.364 -0.2007  0.1137  0.1870
  133loPI   C4B 2128   1.877   7.077   7.942  0.1616 -0.0989  0.3071
  134loPI    C1 2129  11.331   3.105  10.114 -0.0766  0.0056  0.0188
  134loPI    C2 2130  11.594   3.395  10.199  0.1094 -0.0819 -0.2451
  134loPI    C3 2131  11.562   3.077  10.439 -0.0156  0.1015 -0.0154
  134loPI   PO4 2132  11.444   3.001   9.775 -0.2798 -0.4235 -0.3405
  134loPI   GL1 2133  11.190   3.237   9.452  0.2383  0.0818 -0.1160
  134loPI   GL2 2134  11.110   2.936   9.392 -0.2596 -0.0831 -0.0446
  134loPI   C1A 2135  11.330   3.455   9.122 -0.3080 -0.1399  0.1467
  134loPI   C2A 2136  11.365   3.532   8.692  0.0535 -0.1115 -0.0020
  134loPI   C3A 2137  11.462   3.518   8.252  0.1899 -0.1071  0.0250
  134loPI   C4A 2138  11.482   3.645   7.843  0.0924  0.4015 -0.3979
  134loPI   C5A 2139  11.392   3.593   7.428  0.2505  0.1789  0.0335
  134loPI   C6A 2140  11.137   3.474   7.084  0.0481 -0.3275  0.2358
  134loPI   C1B 2141  11.260   2.885   8.879  0.0226  0.0234 -0.1200
  134loPI   C2B 2142  11.365   3.007   8.486  0.0013 -0.4924  0.4372
  134loPI   C3B 2143  11.381   3.078   8.036  0.0024 -0.3081  0.0148
  134loPI   C4B 2144  11.248   3.076   7.622  0.0328 -0.0721 -0.1928
  135loPI    C1 2145   1.290  17.398  10.207 -0.0859  0.0330 -0.0964
  135loPI    C2 2146   1.534  17.700  10.108 -0.1275  0.1130  0.0413
  135loPI    C3 2147   1.518  17.572  10.487 -0.2534  0.0664  0.0207
  135loPI   PO4 2148   1.074  17.422  10.029 -0.2672 -0.0623  0.1859
  135loPI   GL1 2149   0.875  17.623   9.621 -0.1359 -0.0116 -0.0824
  135loPI   GL2 2150   0.697  17.377   9.454  0.3221 -0.2733  0.0799
  135loPI   C1A 2151   0.839  17.874   9.345 -0.0398 -0.3129 -0.1824
  135loPI   C2A 2152   0.746  18.011   9.080  0.2105  0.1034 -0.3687
  135loPI   C3A 2153   0.580  17.969   8.622  0.3137  0.2986  0.2551
  135loPI   C4A 2154   0.747  18.139   8.181 -0.3653 -0.3241  0.0726
  135loPI   C5A 2155   0.755  17.938   7.772  0.0057  0.0218 -0.2170
  135loPI   C6A 2156   0.467  17.620   7.612 -0.0774 -0.0311  0.1958
  135loPI   C1B 2157   0.852  17.124   9.126  0.1965  0.4141  0.0125
  135loPI   C2B 2158   0.932  17.042   8.669  0.1345  0.2453 -0.1000
  135loPI   C3B 2159   1.208  16.894   8.335 -0.0158 -0.0303 -0.1032
  135loPI   C4B 2160   1.655  16.913   8.197 -0.1705 -0.1422 -0.0580
  136loPI    C1 2161  12.048   3.494   9.896 -0.0964 -0.1459 -0.1827
  136loPI    C2 2162  12.138   3.789   9.641 -0.0312  0.0551  0.0683
  136loPI    C3 2163  11.888   3.858   9.946 -0.0513 -0.1633  0.1022
  136loPI   PO4 2164  12.006   3.278   9.708  0.1937 -0.0232  0.0360
  136loPI   GL1 2165  11.787   3.315   9.247 -0.0864  0.0653  0.0395
  136loPI   GL2 2166  12.136   3.512   9.218  0.0051 -0.4995  0.1136
  136loPI   C1A 2167  11.748   3.275   8.864  0.3271 -0.0176 -0.0469
  136loPI   C2A 2168  11.820   3.252   8.485  0.1117 -0.0813 -0.2957
  136loPI   C3A 2169  11.840   3.280   8.041  0.0052 -0.2046 -0.2767
  136loPI   C4A 2170  11.734   3.239   7.595 -0.0424  0.0780 -0.1631
  136loPI   C5A 2171  11.585   3.135   7.199 -0.0557 -0.1695  0.1761
  136loPI   C6A 2172  11.773   2.873   6.810 -0.1248  0.3415 -0.0589
  136loPI   C1B 2173  12.239   3.571   8.768 -0.0746  0.0764  0.0333
  136loPI   C2B 2174  12.318   3.494   8.244 -0.0442  0.1199 -0.0733
  136loPI   C3B 2175  12.277   3.394   7.854 -0.1388  0.1175 -0.0813
  136loPI   C4B 2176  12.345   3.374   7.409  0.1938 -0.0983 -0.0117
  137loPI    C1 2177   8.714   1.970  10.095  0.0002 -0.1123 -0.2246
  137loPI    C2 2178   9.108   1.920  10.144 -0.0034 -0.0240 -0.0993
  137loPI    C3 2179   8.912   2.191  10.363 -0.1798 -0.2477  0.0241
  137loPI   PO4 2180   8.672   1.893   9.807 -0.0231 -0.2813  0.3679
  137loPI   GL1 2181   8.287   1.762   9.449  0.2792 -0.0119  0.1514
  137loPI   GL2 2182   8.632   1.799   9.275  0.2255 -0.0605  0.0932
  137loPI   C1A 2183   8.290   2.164   9.228 -0.0211  0.2696 -0.0176
  137loPI   C2A 2184   8.321   2.380   8.835 -0.0104  0.0343 -0.0998
  137loPI   C3A 2185   8.157   2.539   8.493 -0.3257  0.0962  0.3619
  137loPI   C4A 2186   8.224   2.377   8.133 -0.0026  0.1413  0.1496
  137loPI   C5A 2187   8.270   2.170   7.729 -0.2558  0.3993 -0.1106
  137loPI   C6A 2188   8.254   2.280   7.320 -0.3016  0.0265 -0.1044
  137loPI   C1B 2189   8.716   2.005   8.820  0.3067  0.1679  0.0055
  137loPI   C2B 2190   8.577   2.197   8.410  0.0920  0.2103 -0.2726
  137loPI   C3B 2191   8.663   2.236   8.009  0.0842  0.3427  0.1304
  137loPI   C4B 2192   8.732   2.170   7.528 -0.1030 -0.2480  0.0027
  138loPI    C1 2193  15.004   2.244   9.737 -0.2277  0.3709 -0.1894
  138loPI    C2 2194  15.077   2.075  10.092  0.0126  0.0627 -0.3803
  138loPI    C3 2195  14.824   2.384  10.066  0.1416  0.2161  0.0848
  138loPI   PO4 2196  15.101   2.116   9.562  0.3666 -0.2234  0.0907
  138loPI   GL1 2197  14.954   1.983   9.225 -0.0386 -0.0604  0.0616
  138loPI   GL2 2198  14.957   1.671   9.358  0.2023  0.1327  0.1958
  138loPI   C1A 2199  15.022   1.976   8.897 -0.0275  0.1521  0.1157
  138loPI   C2A 2200  15.003   1.940   8.502 -0.2414  0.1015 -0.0190
  138loPI   C3A 2201  15.062   1.891   8.093  0.0517  0.1350 -0.2981
  138loPI   C4A 2202  15.118   1.932   7.643 -0.0366  0.0916  0.1184
  138loPI   C5A 2203  14.880   1.892   7.234 -0.1681  0.1367  0.0971
  138loPI   C6A 2204  14.813   2.051   6.812 -0.1992  0.0006 -0.0619
  138loPI   C1B 2205  14.723   1.583   9.026 -0.1089  0.1416  0.1380
  138loPI   C2B 2206  14.643   1.565   8.613 -0.0625  0.0444 -0.1389
  138loPI   C3B 2207  14.689   1.614   8.221  0.3304 -0.0551  0.1152
  138loPI   C4B 2208  14.600   1.719   7.741  0.2657 -0.2355 -0.2973
  139loPI    C1 2209   1.007   5.640  10.348  0.0184 -0.0051 -0.0031
  139loPI    C2 2210   0.995   5.926  10.068  0.2569 -0.0450 -0.0569
  139loPI    C3 2211   0.710   5.907  10.348  0.0303  0.0115 -0.2803
  139loPI   PO4 2212   0.978   5.426  10.184  0.0295 -0.0568 -0.0697
  139loPI   GL1 2213   1.112   5.248   9.751 -0.2074  0.1662  0.3395
  139loPI   GL2 2214   1.030   5.548   9.695  0.2287  0.2680  0.2878
  139loPI   C1A 2215   1.156   5.082   9.343  0.0119  0.1254 -0.0604
  139loPI   C2A 2216   1.411   5.400   9.154  0.0893  0.0438 -0.2291
  139loPI   C3A 2217   1.221   5.749   9.279  0.1248 -0.1925  0.1771
  139loPI   C4A 2218   1.077   5.986   8.942  0.1640  0.0109 -0.0610
  139loPI   C5A 2219   1.096   5.850   8.516 -0.2492  0.1510  0.3861
  139loPI   C6A 2220   1.182   5.638   8.003  0.2589 -0.1194 -0.0525
  139loPI   C1B 2221   0.833   5.435   9.358  0.0867  0.0437  0.0469
  139loPI   C2B 2222   0.874   5.366   8.981 -0.0911  0.1484 -0.3709
  139loPI   C3B 2223   0.764   5.157   8.635  0.1130  0.1888  0.2453
  139loPI   C4B 2224   0.922   5.306   8.257  0.1301 -0.1727 -0.2651
  140loPI    C1 2225   8.922   1.473   9.612  0.0761 -0.4242 -0.0921
  140loPI    C2 2226   8.743   1.139   9.739 -0.1824 -0.2348  0.0518
  140loPI    C3 2227   8.894   1.398  10.004 -0.3786 -0.0247 -0.0396
  140loPI   PO4 2228   9.022   1.362   9.353 -0.0669  0.0587  0.0902
  140loPI   GL1 2229   9.120   1.626   9.067 -0.1791 -0.0395 -0.2911
  140loPI   GL2 2230   9.152   1.979   9.062 -0.0236 -0.1256  0.1009
  140loPI   C1A 2231   9.050   1.667   8.671 -0.0011 -0.1848  0.0096
  140loPI   C2A 2232   9.013   1.874   8.305  0.0296 -0.4762  0.0595
  140loPI   C3A 2233   8.961   1.870   7.870  0.1454 -0.1828  0.1873
  140loPI   C4A 2234   8.951   1.719   7.427 -0.1442  0.0203 -0.3176
  140loPI   C5A 2235   9.333   1.697   7.133  0.3064  0.0484  0.2026
  140loPI   C6A 2236   9.828   1.777   6.886  0.2270 -0.0057  0.1104
  140loPI   C1B 2237   9.460   1.947   8.772 -0.1395 -0.3209 -0.1874
  140loPI   C2B 2238   9.470   1.992   8.336  0.0826  0.3709  0.0625
  140loPI   C3B 2239   9.326   2.249   7.945  0.1613  0.1339  0.1218
  140loPI   C4B 2240   8.978   2.583   7.835  0.0071 -0.2368  0.0178
  141loPI    C1 2241   6.992   9.271  10.120  0.1095 -0.1014 -0.0104
  141loPI    C2 2242   6.650   9.346  10.312  0.0435 -0.0305 -0.1547
  141loPI    C3 2243   6.993   9.325  10.516  0.0031  0.2419 -0.0540
  141loPI   PO4 2244   6.922   9.455   9.909 -0.1705 -0.0401  0.1666
  141loPI   GL1 2245   7.090   9.402   9.604 -0.3884 -0.1730 -0.0467
  141loPI   GL2 2246   7.009   9.085   9.588  0.2765  0.3144 -0.3807
  141loPI   C1A 2247   6.990   9.338   9.124 -0.4290 -0.0714  0.0272
  141loPI   C2A 2248   6.941   9.569   8.675  0.0263 -0.0398 -0.1671
  141loPI   C3A 2249   7.041   9.627   8.216 -0.0027 -0.1896  0.2019
  141loPI   C4A 2250   6.946   9.581   7.725 -0.0385 -0.1572  0.0769
  141loPI   C5A 2251   7.011   9.325   7.357 -0.2626  0.1174 -0.3319
  141loPI   C6A 2252   7.254   8.868   7.434  0.2680 -0.2755 -0.0550
  141loPI   C1B 2253   6.914   8.915   9.258  0.1135  0.1224  0.1217
  141loPI   C2B 2254   7.076   9.001   8.754 -0.0199 -0.1238  0.1663
  141loPI   C3B 2255   7.090   9.154   8.362 -0.2285 -0.0401 -0.2667
  141loPI   C4B 2256   6.709   9.315   8.179  0.0370 -0.2683 -0.0276
  142loPI    C1 2257   6.917  18.415  10.101 -0.1537 -0.0395  0.1409
  142loPI    C2 2258   6.682  18.302  10.404  0.0678 -0.2945  0.2217
  142loPI    C3 2259   7.002  18.082  10.307  0.0779 -0.1392 -0.1093
  142loPI   PO4 2260   6.831  18.475   9.991  0.1774  0.1043  0.1210
  142loPI   GL1 2261   6.899  18.555   9.521 -0.4280  0.1867  0.2968
  142loPI   GL2 2262   6.791  18.311   9.517  0.1491  0.0109  0.1894
  142loPI   C1A 2263   6.988  18.720   9.200 -0.2142  0.4811  0.1560
  142loPI   C2A 2264   7.124  18.757   8.831 -0.1540 -0.0972 -0.4037
  142loPI   C3A 2265   7.315  18.823   8.521 -0.0136 -0.1437 -0.1493
  142loPI   C4A 2266   7.373  18.712   8.192 -0.1149 -0.0438 -0.0543
  142loPI   C5A 2267   7.234  18.607   7.735  0.1311 -0.1213 -0.1130
  142loPI   C6A 2268   7.520  18.560   7.376  0.0232 -0.1276  0.0547
  142loPI   C1B 2269   6.484  18.382   9.233 -0.4997  0.0373  0.0619
  142loPI   C2B 2270   6.603  18.283   8.802  0.0388 -0.5674  0.1954
  142loPI   C3B 2271   6.534  18.246   8.375  0.1376 -0.2337 -0.0297
  142loPI   C4B 2272   6.435  18.321   7.916 -0.2496 -0.0709 -0.0737
  143loPI    C1 2273  16.180   7.282  10.029 -0.0466  0.1686  0.0111
  143loPI    C2 2274  15.894   7.003  10.033  0.2576 -0.1493  0.0922
  143loPI    C3 2275  15.857   7.331  10.258 -0.1521 -0.0694 -0.0834
  143loPI   PO4 2276  16.261   7.351   9.823  0.4818  0.2638  0.1483
  143loPI   GL1 2277  16.518   7.284   9.599 -0.0854 -0.1113 -0.0206
  143loPI   GL2 2278  16.849   7.395   9.577  0.1044  0.2399 -0.1975
  143loPI   C1A 2279  16.291   7.285   9.166  0.2959 -0.0972  0.0053
  143loPI   C2A 2280  16.109   7.259   8.773  0.1697  0.0644  0.2220
  143loPI   C3A 2281  16.051   7.395   8.356  0.2428  0.1357  0.1438
  143loPI   C4A 2282  15.943   7.637   7.918  0.1990  0.0370 -0.2954
  143loPI   C5A 2283  15.827   7.970   7.743 -0.0071 -0.0075 -0.1501
  143loPI   C6A 2284  15.592   8.362   7.733  0.1246  0.1775  0.3323
  143loPI   C1B 2285  16.820   7.389   9.087  0.0721 -0.0573  0.3383
  143loPI   C2B 2286  16.671   7.381   8.713  0.1633  0.2477 -0.0637
  143loPI   C3B 2287  16.540   7.752   8.447 -0.2077 -0.1181  0.0321
  143loPI   C4B 2288  16.231   7.973   8.175 -0.0509 -0.3072 -0.3276
  144loPI    C1 2289  10.764   0.183  10.048  0.1381  0.1375  0.0492
  144loPI    C2 2290  10.943   0.210  10.405  0.0605 -0.0025  0.0998
  144loPI    C3 2291  10.682  -0.084  10.334  0.0319  0.0587 -0.0538
  144loPI   PO4 2292  10.864   0.499   9.987  0.1022  0.0262 -0.0693
  144loPI   GL1 2293  10.664   0.690   9.629  0.1662  0.0611  0.0356
  144loPI   GL2 2294  11.004   0.844   9.507  0.1091 -0.1009  0.3305
  144loPI   C1A 2295  10.661   0.541   9.308 -0.2017  0.2348  0.1404
  144loPI   C2A 2296  10.741   0.503   8.904  0.0121  0.3360 -0.1180
  144loPI   C3A 2297  10.852   0.719   8.423  0.1623  0.2945 -0.2712
  144loPI   C4A 2298  10.970   0.585   8.028  0.1086 -0.1167 -0.2658
  144loPI   C5A 2299  11.341   0.299   7.853  0.0927  0.0824  0.1159
  144loPI   C6A 2300  11.299  -0.031   7.548  0.0489 -0.0200  0.1982
  144loPI   C1B 2301  11.175   0.760   8.974  0.0442 -0.0255 -0.0043
  144loPI   C2B 2302  11.299   0.939   8.583  0.2598  0.2606 -0.0709
  144loPI   C3B 2303  11.283   0.948   8.070 -0.1134 -0.2861 -0.0525
  144loPI   C4B 2304  11.160   1.175   7.686  0.0965 -0.2373  0.3865
  145loPI    C1 2305   4.498  14.543  10.392 -0.1781 -0.2407  0.0415
  145loPI    C2 2306   4.279  14.464  10.718 -0.1121 -0.0897  0.1234
  145loPI    C3 2307   4.584  14.722  10.739 -0.0836 -0.1079 -0.0497
  145loPI   PO4 2308   4.309  14.480  10.205 -0.2232  0.3790 -0.0016
  145loPI   GL1 2309   4.341  14.388   9.788 -0.2423 -0.1001 -0.2283
  145loPI   GL2 2310   4.078  14.243   9.689 -0.0936  0.0852 -0.0371
  145loPI   C1A 2311   4.519  14.228   9.376  0.0164 -0.3739  0.0344
  145loPI   C2A 2312   4.403  14.102   8.983  0.2401  0.2273 -0.0822
  145loPI   C3A 2313   4.266  14.015   8.600  0.0981 -0.1325  0.0460
  145loPI   C4A 2314   4.155  14.179   8.285  0.0646  0.1044 -0.0456
  145loPI   C5A 2315   3.821  14.149   8.023  0.0429 -0.2620  0.2592
  145loPI   C6A 2316   3.421  14.160   8.008 -0.1175  0.0516 -0.3271
  145loPI   C1B 2317   4.066  14.414   9.264 -0.0677 -0.1891  0.0826
  145loPI   C2B 2318   4.215  14.492   8.769  0.0410 -0.1558  0.2492
  145loPI   C3B 2319   4.280  14.737   8.469  0.0853 -0.0101 -0.0413
  145loPI   C4B 2320   4.482  15.042   8.287  0.0664  0.1750  0.1299
  146loPI    C1 2321   1.839   4.197  10.318  0.2389 -0.1344 -0.2421
  146loPI    C2 2322   1.735   4.506  10.550  0.1487 -0.1151 -0.3073
  146loPI    C3 2323   1.860   4.164  10.716  0.0203 -0.1244 -0.2281
  146loPI   PO4 2324   1.843   4.318  10.040 -0.0161 -0.2915  0.1981
  146loPI   GL1 2325   1.934   4.122   9.743 -0.1380 -0.0944  0.1277
  146loPI   GL2 2326   1.719   4.479   9.634 -0.1827 -0.1453 -0.1162
  146loPI   C1A 2327   2.248   4.212   9.429  0.0400 -0.1682  0.0707
  146loPI   C2A 2328   2.689   4.269   9.327 -0.3368 -0.3133  0.0714
  146loPI   C3A 2329   2.865   4.488   9.119  0.0428  0.0591 -0.4501
  146loPI   C4A 2330   2.789   4.547   8.664 -0.5461  0.1214 -0.0124
  146loPI   C5A 2331   2.847   4.517   8.239  0.3534  0.0526  0.1345
  146loPI   C6A 2332   2.623   4.575   7.990 -0.0016 -0.2184 -0.2405
  146loPI   C1B 2333   1.808   4.271   9.210 -0.1125  0.2060 -0.2516
  146loPI   C2B 2334   1.867   3.896   9.037  0.3341  0.2873  0.0815
  146loPI   C3B 2335   2.010   3.522   8.869  0.3041  0.0930  0.1737
  146loPI   C4B 2336   1.915   3.105   8.843 -0.0410  0.1272 -0.0264
  147loPI    C1 2337   5.910  10.623  10.441 -0.1496  0.1479 -0.0072
  147loPI    C2 2338   6.199  10.793  10.660 -0.0752 -0.1040  0.0943
  147loPI    C3 2339   5.874  10.643  10.839 -0.1778  0.0017 -0.0016
  147loPI   PO4 2340   5.897  10.736  10.229  0.3171 -0.1531  0.0918
  147loPI   GL1 2341   6.090  10.795   9.825  0.0891  0.0601  0.0675
  147loPI   GL2 2342   5.792  10.988   9.737  0.2869  0.1758  0.1318
  147loPI   C1A 2343   6.196  10.557   9.557  0.2097  0.0369  0.1236
  147loPI   C2A 2344   6.225  10.555   9.204  0.2182  0.2541  0.0867
  147loPI   C3A 2345   6.209  10.503   8.751 -0.1724  0.0275  0.1329
  147loPI   C4A 2346   6.291  10.630   8.349  0.0788 -0.0521 -0.3340
  147loPI   C5A 2347   6.238  10.564   8.008 -0.1528  0.0646  0.1180
  147loPI   C6A 2348   6.106  10.515   7.562 -0.3188  0.1461 -0.1559
  147loPI   C1B 2349   5.912  10.904   9.345  0.0987 -0.1477 -0.0981
  147loPI   C2B 2350   5.826  10.715   8.992  0.2232  0.0103  0.1812
  147loPI   C3B 2351   5.644  10.726   8.459 -0.2499  0.0975 -0.2551
  147loPI   C4B 2352   5.631  10.451   8.165 -0.3056  0.1107  0.0215
  148loPI    C1 2353  11.938  13.414   9.505 -0.0655  0.0873 -0.1691
  148loPI    C2 2354  12.078  13.612   9.823  0.2108 -0.1473 -0.1402
  148loPI    C3 2355  11.816  13.314   9.872  0.0458 -0.0071 -0.1574
  148loPI   PO4 2356  11.823  13.547   9.367 -0.0073 -0.1295  0.0869
  148loPI   GL1 2357  11.656  13.889   9.303 -0.0996  0.2051 -0.0810
  148loPI   GL2 2358  11.375  13.774   9.218 -0.2644 -0.1926 -0.0770
  148loPI   C1A 2359  11.867  14.100   8.997 -0.0417 -0.2688 -0.2172
  148loPI   C2A 2360  12.026  14.241   8.689 -0.2853  0.0098 -0.0625
  148loPI   C3A 2361  12.156  14.326   8.274 -0.1595 -0.1356  0.0718
  148loPI   C4A 2362  12.521  14.308   7.962 -0.1030 -0.0673 -0.1967
  148loPI   C5A 2363  12.936  14.332   7.796  0.0522 -0.1388 -0.0810
  148loPI   C6A 2364  13.332  14.235   7.666 -0.0409  0.1950  0.0580
  148loPI   C1B 2365  11.413  13.823   8.742 -0.0537  0.1597 -0.3064
  148loPI   C2B 2366  11.646  13.955   8.472 -0.0614 -0.0249  0.0838
  148loPI   C3B 2367  11.682  14.044   8.107  0.0330  0.0034  0.0714
  148loPI   C4B 2368  12.063  14.025   7.814  0.0795 -0.0891 -0.2744
  149loPI    C1 2369  12.587  13.220  10.302  0.0462 -0.0135  0.1900
  149loPI    C2 2370  12.303  13.011  10.114  0.1739 -0.1428  0.1385
  149loPI    C3 2371  12.502  12.848  10.420  0.4636 -0.2008 -0.0774
  149loPI   PO4 2372  12.681  13.395  10.071 -0.5532  0.0707  0.0184
  149loPI   GL1 2373  12.571  13.567   9.696  0.3740  0.3336 -0.0089
  149loPI   GL2 2374  12.868  13.297   9.584  0.0819 -0.0891  0.1746
  149loPI   C1A 2375  12.505  13.473   9.225  0.4359 -0.0547  0.1616
  149loPI   C2A 2376  12.484  13.364   8.787 -0.1942  0.2236 -0.0984
  149loPI   C3A 2377  12.512  13.389   8.335  0.1674  0.3396 -0.0895
  149loPI   C4A 2378  12.549  13.241   7.923 -0.0210 -0.2241  0.1041
  149loPI   C5A 2379  12.780  13.472   7.585  0.4482  0.3552 -0.1318
  149loPI   C6A 2380  12.851  13.921   7.507 -0.2995 -0.1044 -0.0104
  149loPI   C1B 2381  12.928  12.938   9.335 -0.1576  0.3605  0.5257
  149loPI   C2B 2382  12.965  12.742   8.982  0.1745 -0.1629 -0.2173
  149loPI   C3B 2383  12.762  12.552   8.612  0.0562  0.1264 -0.0792
  149loPI   C4B 2384  12.742  12.473   8.165 -0.0937  0.0875 -0.0453
  150loPI    C1 2385   8.311   6.714  10.294  0.0820 -0.0567 -0.0390
  150loPI    C2 2386   8.014   6.526  10.484  0.1294 -0.0602  0.0318
  150loPI    C3 2387   8.393   6.413  10.544  0.1507 -0.0046  0.0016
  150loPI   PO4 2388   8.154   6.681  10.040  0.1005  0.2479 -0.0775
  150loPI   GL1 2389   8.097   6.678   9.683  0.4719  0.1110  0.1670
  150loPI   GL2 2390   7.980   6.881   9.538  0.1131  0.0892 -0.1069
  150loPI   C1A 2391   7.977   6.514   9.190  0.1483 -0.3694  0.0170
  150loPI   C2A 2392   7.972   6.555   8.725 -0.0600  0.0567  0.0090
  150loPI   C3A 2393   7.977   6.486   8.260 -0.1124 -0.2948  0.0515
  150loPI   C4A 2394   7.813   6.290   7.840 -0.0410 -0.1277 -0.0484
  150loPI   C5A 2395   7.691   6.044   7.519 -0.0009  0.1225  0.3120
  150loPI   C6A 2396   7.448   5.913   7.224 -0.1521 -0.1189 -0.1417
  150loPI   C1B 2397   8.026   6.961   9.036 -0.0256 -0.1880  0.0354
  150loPI   C2B 2398   8.074   7.289   8.733  0.3229  0.3217 -0.2404
  150loPI   C3B 2399   8.392   7.540   8.574 -0.2663  0.1209 -0.0481
  150loPI   C4B 2400   8.459   7.656   8.110 -0.3033  0.1350  0.2663
  151loPI    C1 2401   6.375   5.721   9.942 -0.1409  0.1747  0.1891
  151loPI    C2 2402   6.301   6.014   9.680  0.1637  0.1661  0.0892
  151loPI    C3 2403   6.550   6.078   9.986  0.0180  0.0938  0.2240
  151loPI   PO4 2404   6.317   5.540   9.753  0.1859  0.2910  0.1566
  151loPI   GL1 2405   6.261   5.457   9.361  0.2153  0.1563 -0.3204
  151loPI   GL2 2406   6.363   5.255   9.195  0.1484 -0.3413  0.0757
  151loPI   C1A 2407   6.190   5.830   9.000 -0.3932 -0.2013 -0.1567
  151loPI   C2A 2408   6.105   5.826   8.616  0.3241  0.0124  0.0953
  151loPI   C3A 2409   6.210   5.682   8.154  0.1860 -0.1973  0.2811
  151loPI   C4A 2410   6.363   5.583   7.753  0.0204 -0.0371 -0.1114
  151loPI   C5A 2411   6.362   5.655   7.386  0.1664  0.0105 -0.1063
  151loPI   C6A 2412   6.458   5.808   6.981  0.1614 -0.3985  0.0856
  151loPI   C1B 2413   6.287   5.377   8.835 -0.0294  0.2074  0.0447
  151loPI   C2B 2414   6.300   5.258   8.442  0.1768  0.1414 -0.0839
  151loPI   C3B 2415   6.221   5.161   8.061  0.1077 -0.0355 -0.3234
  151loPI   C4B 2416   6.589   5.068   7.848 -0.0413 -0.1673  0.1564
  152loPI    C1 2417   5.197   5.410  10.091  0.1050  0.1332  0.0445
  152loPI    C2 2418   5.124   5.730  10.320 -0.3030  0.0934 -0.0220
  152loPI    C3 2419   5.049   5.363  10.460  0.0830  0.0279  0.0228
  152loPI   PO4 2420   5.459   5.606   9.911 -0.4582  0.0983  0.1033
  152loPI   GL1 2421   5.672   5.565   9.547 -0.1159  0.0039  0.0354
  152loPI   GL2 2422   5.835   5.818   9.426  0.2877  0.1315 -0.0230
  152loPI   C1A 2423   5.812   5.296   9.156  0.0426 -0.1043 -0.2769
  152loPI   C2A 2424   5.743   5.495   8.747  0.3470 -0.2527 -0.4582
  152loPI   C3A 2425   5.792   5.448   8.253  0.2144  0.0272 -0.0099
  152loPI   C4A 2426   5.854   5.473   7.780 -0.1696 -0.0352 -0.1435
  152loPI   C5A 2427   5.689   5.287   7.406 -0.0089  0.4588 -0.2097
  152loPI   C6A 2428   5.399   5.205   7.089 -0.0346 -0.2825 -0.1425
  152loPI   C1B 2429   5.432   5.652   9.119  0.0812  0.3368  0.2660
  152loPI   C2B 2430   5.052   5.720   8.804  0.0127  0.2791 -0.1961
  152loPI   C3B 2431   4.856   6.034   8.517 -0.0860  0.3057  0.0603
  152loPI   C4B 2432   4.791   6.474   8.490  0.0202 -0.2055 -0.1523
  153loPI    C1 2433   6.968   8.230  10.003 -0.1465  0.2690  0.1189
  153loPI    C2 2434   7.052   7.972  10.298 -0.0792 -0.0899 -0.2055
  153loPI    C3 2435   6.671   8.048  10.201 -0.1026  0.0670  0.0025
  153loPI   PO4 2436   7.163   8.223   9.831 -0.0015 -0.1476 -0.2184
  153loPI   GL1 2437   7.265   8.116   9.367 -0.0230  0.3387  0.3246
  153loPI   GL2 2438   7.377   7.752   9.310  0.2805 -0.0604 -0.3252
  153loPI   C1A 2439   7.168   8.016   8.938 -0.2511  0.2878  0.3536
  153loPI   C2A 2440   7.345   7.962   8.515  0.1232  0.1668  0.0331
  153loPI   C3A 2441   7.632   8.038   8.173  0.3167 -0.0188  0.2744
  153loPI   C4A 2442   7.833   8.312   7.827 -0.4578  0.1213  0.0047
  153loPI   C5A 2443   7.754   8.621   7.658  0.0006 -0.2161  0.0058
  153loPI   C6A 2444   7.760   8.989   7.559 -0.2473 -0.0235  0.2945
  153loPI   C1B 2445   7.222   7.513   9.002  0.0734 -0.0175 -0.1355
  153loPI   C2B 2446   7.073   7.499   8.605  0.1752 -0.0222 -0.1638
  153loPI   C3B 2447   7.044   7.468   8.234 -0.0683  0.1485  0.1559
  153loPI   C4B 2448   6.888   7.247   7.711 -0.2108 -0.1937 -0.1151
  154loPI    C1 2449   0.907   1.516  10.271  0.0567 -0.0798  0.1201
  154loPI    C2 2450   0.986   1.531  10.662 -0.0604  0.2011  0.1352
  154loPI    C3 2451   0.665   1.719  10.516 -0.3659 -0.4101 -0.0121
  154loPI   PO4 2452   1.132   1.622  10.112 -0.1662 -0.1854 -0.1086
  154loPI   GL1 2453   1.030   1.870   9.685 -0.1232 -0.0242 -0.1091
  154loPI   GL2 2454   0.955   1.531   9.391  0.2479  0.1526  0.3895
  154loPI   C1A 2455   1.116   2.314   9.521  0.0575  0.1684 -0.5908
  154loPI   C2A 2456   1.220   2.551   9.147 -0.1958  0.0154  0.2180
  154loPI   C3A 2457   1.003   2.451   8.745  0.0371 -0.1718  0.2066
  154loPI   C4A 2458   0.920   2.509   8.297  0.1550 -0.4280 -0.2766
  154loPI   C5A 2459   0.873   2.741   7.891  0.1602  0.0613 -0.0165
  154loPI   C6A 2460   0.640   3.048   7.677  0.2601 -0.0320 -0.0712
  154loPI   C1B 2461   0.784   1.390   8.976  0.2967 -0.1847  0.2492
  154loPI   C2B 2462   0.846   1.443   8.557 -0.1244 -0.1597  0.0475
  154loPI   C3B 2463   1.013   1.236   8.173 -0.2946 -0.0756  0.2758
  154loPI   C4B 2464   1.087   1.076   7.710 -0.1381 -0.3087  0.2361
  155loPI    C1 2465   3.618   9.436  10.097 -0.1942  0.0809  0.0201
  155loPI    C2 2466   3.854   9.694   9.903 -0.0479 -0.1457 -0.1087
  155loPI    C3 2467   3.702   9.791  10.260 -0.1442  0.1891 -0.2367
  155loPI   PO4 2468   3.720   9.112   9.931  0.0677 -0.2887 -0.1703
  155loPI   GL1 2469   3.566   8.834   9.534  0.0382  0.0737 -0.3216
  155loPI   GL2 2470   3.330   8.793   9.351 -0.0840 -0.6102 -0.3737
  155loPI   C1A 2471   3.804   9.018   9.224  0.0788  0.1193 -0.1782
  155loPI   C2A 2472   3.720   9.066   8.700  0.2310 -0.1530 -0.3811
  155loPI   C3A 2473   3.666   8.949   8.225  0.0297 -0.0897  0.0826
  155loPI   C4A 2474   3.673   9.307   7.815 -0.2558  0.2392  0.2262
  155loPI   C5A 2475   3.412   9.395   7.491  0.2003 -0.2714  0.2811
  155loPI   C6A 2476   2.872   9.491   7.365  0.2101  0.1136  0.3148
  155loPI   C1B 2477   3.445   8.772   8.977  0.1809 -0.1720  0.1327
  155loPI   C2B 2478   3.397   8.738   8.603  0.0791 -0.0669 -0.0969
  155loPI   C3B 2479   3.373   8.518   8.236 -0.2535  0.1113  0.2051
  155loPI   C4B 2480   3.210   8.388   7.906  0.1586 -0.2547  0.4118
  156loPI    C1 2481  16.519  18.596  10.185 -0.0775 -0.2319 -0.2019
  156loPI    C2 2482  16.419  18.295  10.428  0.1365 -0.1718 -0.0368
  156loPI    C3 2483  16.445  18.667  10.572 -0.0704 -0.0814 -0.2276
  156loPI   PO4 2484  16.447  18.514   9.973 -0.0369 -0.0013  0.0813
  156loPI   GL1 2485  16.620  18.682   9.695 -0.2002  0.2905  0.3440
  156loPI   GL2 2486  16.958  18.664   9.792  0.2792 -0.1091 -0.2310
  156loPI   C1A 2487  16.778  18.723   9.096 -0.0709  0.0021  0.2263
  156loPI   C2A 2488  16.747  18.759   8.758 -0.0403  0.0642  0.3085
  156loPI   C3A 2489  16.817  18.732   8.250 -0.1083  0.0367 -0.0450
  156loPI   C4A 2490  17.098  18.749   7.858 -0.0161  0.0984  0.0515
  156loPI   C5A 2491  17.375  19.011   7.773 -0.1536 -0.0845  0.0562
  156loPI   C6A 2492  17.447  19.154   7.360 -0.0254  0.2700  0.0435
  156loPI   C1B 2493  16.948  19.063   9.527  0.0748  0.0166 -0.1531
  156loPI   C2B 2494  17.272  19.449   9.265  0.1163  0.2774  0.0929
  156loPI   C3B 2495  17.306  19.489   8.870  0.2342  0.4952 -0.0063
  156loPI   C4B 2496  17.385  19.581   8.496  0.1337 -0.2165  0.0583
  157loPI    C1 2497   2.882  10.274  10.176  0.0982  0.1092  0.1080
  157loPI    C2 2498   2.899  10.063  10.516  0.1106  0.0248  0.0555
  157loPI    C3 2499   2.907  10.463  10.528  0.0562  0.0232  0.1576
  157loPI   PO4 2500   3.063  10.226   9.998  0.1003  0.0617  0.0015
  157loPI   GL1 2501   2.960   9.994   9.591 -0.0644 -0.1837  0.2602
  157loPI   GL2 2502   2.746  10.267   9.573  0.2771  0.0271 -0.2564
  157loPI   C1A 2503   3.021   9.699   9.236  0.0277  0.0310 -0.2161
  157loPI   C2A 2504   2.888   9.487   9.020  0.1249  0.0428 -0.0174
  157loPI   C3A 2505   2.817   9.379   8.604 -0.1598  0.2434 -0.2260
  157loPI   C4A 2506   2.579   9.247   8.211  0.0547  0.2921  0.1508
  157loPI   C5A 2507   2.286   9.261   7.835 -0.1143 -0.0456  0.0319
  157loPI   C6A 2508   2.101   9.062   7.504  0.2051  0.2038  0.0510
  157loPI   C1B 2509   3.099  10.251   9.193 -0.1212  0.3603  0.1588
  157loPI   C2B 2510   3.051   9.855   8.708 -0.0301 -0.0113  0.2745
  157loPI   C3B 2511   3.039   9.629   8.246 -0.0288 -0.0530  0.1153
  157loPI   C4B 2512   3.104   9.885   7.754 -0.3154  0.0543 -0.2608
  158loPI    C1 2513   3.043   0.976  10.412 -0.1901 -0.0792  0.0921
  158loPI    C2 2514   3.394   0.978  10.604 -0.0891 -0.1304 -0.0896
  158loPI    C3 2515   3.095   0.748  10.737 -0.0522 -0.0917  0.0621
  158loPI   PO4 2516   3.117   0.998  10.151 -0.1418  0.0227  0.0853
  158loPI   GL1 2517   2.878   0.930   9.712 -0.2143  0.1877  0.0005
  158loPI   GL2 2518   2.653   0.808   9.628  0.0757 -0.4775  0.3540
  158loPI   C1A 2519   2.980   1.151   9.222  0.1700  0.4792 -0.2750
  158loPI   C2A 2520   2.956   1.097   8.775  0.1973  0.0843  0.1797
  158loPI   C3A 2521   2.709   1.213   8.472  0.0944  0.1763 -0.1217
  158loPI   C4A 2522   2.589   1.399   8.103 -0.4785 -0.2204  0.2925
  158loPI   C5A 2523   2.321   1.419   7.713 -0.0332  0.1848  0.0695
  158loPI   C6A 2524   2.003   1.693   7.760 -0.1243  0.1865  0.1095
  158loPI   C1B 2525   2.558   0.873   9.290 -0.1789  0.2278 -0.1788
  158loPI   C2B 2526   2.557   0.791   8.826  0.1110  0.0053  0.0791
  158loPI   C3B 2527   2.322   0.869   8.558  0.0299 -0.1870  0.0843
  158loPI   C4B 2528   2.298   0.964   8.108  0.2972  0.3922 -0.2319
  159loPI    C1 2529  16.958   2.141  10.366 -0.1254  0.1715  0.0952
  159loPI    C2 2530  16.652   2.335  10.535 -0.0744  0.2287  0.1220
  159loPI    C3 2531  16.964   2.223  10.757 -0.0930  0.1366  0.1019
  159loPI   PO4 2532  17.048   2.272  10.167 -0.1020  0.2670 -0.2822
  159loPI   GL1 2533  17.286   2.336   9.825 -0.3494  0.0727  0.0457
  159loPI   GL2 2534  17.360   2.123   9.768  0.4323  0.0943  0.3035
  159loPI   C1A 2535  17.287   2.450   9.342  0.1008 -0.2282  0.2422
  159loPI   C2A 2536  17.241   2.298   8.919  0.0392  0.1503 -0.0659
  159loPI   C3A 2537  17.187   2.131   8.522  0.2251  0.1268 -0.3469
  159loPI   C4A 2538  17.091   1.997   8.098  0.0119 -0.0180  0.0261
  159loPI   C5A 2539  17.358   1.995   7.769  0.0731  0.1915 -0.2296
  159loPI   C6A 2540  17.416   1.523   7.608  0.1803 -0.4692 -0.3587
  159loPI   C1B 2541  17.350   1.943   9.349  0.2432  0.1793  0.1032
  159loPI   C2B 2542  17.125   1.758   8.957  0.0815  0.0537 -0.3716
  159loPI   C3B 2543  17.262   1.701   8.659 -0.1648 -0.1139  0.0765
  159loPI   C4B 2544  17.366   1.591   8.215 -0.0912 -0.2404  0.2066
  160loPI    C1 2545   7.033   7.673   9.785 -0.0825  0.1272 -0.0705
  160loPI    C2 2546   7.177   7.313   9.884 -0.0525  0.0916 -0.2393
  160loPI    C3 2547   7.105   7.400   9.501 -0.0381  0.2738 -0.2014
  160loPI   PO4 2548   6.780   7.740   9.839 -0.1339  0.1634  0.1252
  160loPI   GL1 2549   6.558   7.628   9.447 -0.1015 -0.0122 -0.1000
  160loPI   GL2 2550   6.883   7.773   9.294 -0.0517 -0.0349 -0.0594
  160loPI   C1A 2551   6.561   7.431   9.000  0.1558  0.0353 -0.1188
  160loPI   C2A 2552   6.619   7.338   8.701 -0.0779 -0.1539 -0.0170
  160loPI   C3A 2553   6.550   7.278   8.225  0.1351  0.1006  0.2557
  160loPI   C4A 2554   6.378   7.133   7.893 -0.0771  0.3943  0.2630
  160loPI   C5A 2555   6.487   6.870   7.511 -0.2148 -0.0464 -0.3764
  160loPI   C6A 2556   6.373   7.039   7.065 -0.0169  0.0876  0.2384
  160loPI   C1B 2557   6.732   7.873   8.880 -0.0899  0.0240  0.0870
  160loPI   C2B 2558   6.780   8.021   8.560 -0.2036  0.1229 -0.0192
  160loPI   C3B 2559   6.938   7.947   8.131 -0.2832  0.2203  0.1285
  160loPI   C4B 2560   7.281   7.862   7.848  0.0500 -0.2318 -0.3232
  161loPI    C1 2561   8.940  10.136  10.573  0.1286  0.1897 -0.1303
  161loPI    C2 2562   8.547  10.192  10.622  0.1560  0.1719  0.1227
  161loPI    C3 2563   8.719   9.855  10.751  0.2504  0.1676 -0.0119
  161loPI   PO4 2564   8.923  10.112  10.311  0.2232 -0.0193 -0.1485
  161loPI   GL1 2565   8.900  10.167   9.825 -0.3569  0.0246 -0.1069
  161loPI   GL2 2566   8.858  10.553   9.782  0.0377 -0.0994 -0.1168
  161loPI   C1A 2567   8.799  10.251   9.339  0.0595 -0.3777  0.1308
  161loPI   C2A 2568   8.615  10.350   9.011 -0.2091 -0.2248  0.2495
  161loPI   C3A 2569   8.722  10.449   8.563 -0.0793 -0.1658 -0.0598
  161loPI   C4A 2570   8.628  10.631   8.229 -0.0291  0.0044 -0.1150
  161loPI   C5A 2571   8.693  10.710   7.887 -0.0880 -0.3712 -0.0276
  161loPI   C6A 2572   8.313  10.977   7.792  0.1122  0.1249 -0.1982
  161loPI   C1B 2573   8.815  10.800   9.318  0.2625 -0.0381  0.0556
  161loPI   C2B 2574   8.677  10.853   8.984  0.3649 -0.0612 -0.1750
  161loPI   C3B 2575   8.571  10.929   8.578 -0.3494 -0.0790  0.1586
  161loPI   C4B 2576   8.601  11.182   8.185  0.0172  0.1477  0.1978
  162loPI    C1 2577  16.408   8.543  10.022  0.1183 -0.0570  0.1087
  162loPI    C2 2578  16.531   8.918   9.960  0.1927 -0.0958  0.0192
  162loPI    C3 2579  16.156   8.848  10.078  0.2107  0.0133  0.1438
  162loPI   PO4 2580  16.576   8.413   9.867 -0.1233  0.0125 -0.0515
  162loPI   GL1 2581  16.678   8.232   9.575 -0.1915 -0.0618 -0.1841
  162loPI   GL2 2582  16.485   8.305   9.297 -0.1045  0.0865  0.0586
  162loPI   C1A 2583  16.914   8.437   9.187 -0.0609 -0.1913  0.2324
  162loPI   C2A 2584  17.027   8.620   8.861 -0.1714 -0.0362 -0.2310
  162loPI   C3A 2585  16.906   8.598   8.556  0.3666  0.0025 -0.1892
  162loPI   C4A 2586  16.926   8.721   8.174  0.0229 -0.1355  0.1399
  162loPI   C5A 2587  16.914   8.493   7.777 -0.0236 -0.2989 -0.3242
  162loPI   C6A 2588  16.703   8.328   7.475 -0.2127 -0.1392 -0.0683
  162loPI   C1B 2589  16.560   8.479   8.863  0.0068 -0.1124  0.0830
  162loPI   C2B 2590  16.564   8.249   8.519  0.1396 -0.1027  0.1187
  162loPI   C3B 2591  16.533   8.382   8.155 -0.0547  0.1729  0.1286
  162loPI   C4B 2592  16.643   8.033   7.912  0.2213  0.0705  0.2261
  163loPI    C1 2593  12.737   0.609   9.713  0.0161  0.0302 -0.1898
  163loPI    C2 2594  12.786   0.653  10.107 -0.3223 -0.1143 -0.1279
  163loPI    C3 2595  12.982   0.892   9.853  0.0778 -0.1716  0.1187
  163loPI   PO4 2596  12.458   0.557   9.746 -0.2428 -0.2099  0.2476
  163loPI   GL1 2597  12.454   0.169   9.434  0.1978 -0.0169 -0.0980
  163loPI   GL2 2598  12.710   0.004   9.471  0.2010 -0.0090  0.1418
  163loPI   C1A 2599  12.198   0.213   9.067  0.0081 -0.2697  0.3132
  163loPI   C2A 2600  12.105   0.373   8.649 -0.2274 -0.1460  0.3387
  163loPI   C3A 2601  12.068   0.403   8.324  0.3004 -0.3021  0.1493
  163loPI   C4A 2602  11.977   0.336   7.929  0.1119 -0.0045 -0.0853
  163loPI   C5A 2603  11.834   0.382   7.489  0.1599 -0.0957  0.2100
  163loPI   C6A 2604  11.713   0.696   7.161  0.1415  0.1835  0.0779
  163loPI   C1B 2605  12.620  -0.267   9.305  0.1307  0.2407  0.1997
  163loPI   C2B 2606  12.671  -0.549   9.067 -0.1339  0.2504  0.1952
  163loPI   C3B 2607  12.983  -0.658   8.776 -0.1875 -0.0536 -0.1149
  163loPI   C4B 2608  13.249  -0.656   8.449 -0.1004  0.1069 -0.1233
  164loPI    C1 2609   3.421   4.628  10.489 -0.2361 -0.0536  0.2701
  164loPI    C2 2610   3.708   4.359  10.563 -0.1467 -0.0960 -0.2028
  164loPI    C3 2611   3.800   4.708  10.390 -0.3205  0.0769  0.0460
  164loPI   PO4 2612   3.219   4.401  10.482 -0.0574 -0.1323 -0.1991
  164loPI   GL1 2613   3.188   4.199  10.033  0.4498  0.1443 -0.1473
  164loPI   GL2 2614   2.952   4.239   9.974 -0.0965  0.1809  0.1166
  164loPI   C1A 2615   3.196   4.517   9.658  0.0988 -0.0815  0.0063
  164loPI   C2A 2616   3.361   4.432   9.183 -0.2231  0.1652  0.0747
  164loPI   C3A 2617   3.217   4.351   8.753 -0.5144  0.1331 -0.0549
  164loPI   C4A 2618   3.130   4.158   8.370 -0.0591  0.2190  0.1407
  164loPI   C5A 2619   2.786   4.058   8.054  0.0139  0.0848  0.0737
  164loPI   C6A 2620   2.526   4.122   7.834  0.0404  0.0574 -0.1193
  164loPI   C1B 2621   2.998   3.917   9.665 -0.1126 -0.3195  0.0403
  164loPI   C2B 2622   3.023   3.926   9.193 -0.1346 -0.0453  0.0369
  164loPI   C3B 2623   2.771   4.111   8.838  0.0169  0.0321  0.1452
  164loPI   C4B 2624   2.457   4.169   8.431  0.1038  0.0709  0.0230
  165loPI    C1 2625  15.594   7.713  10.072  0.0372  0.0632  0.2485
  165loPI    C2 2626  15.347   7.442  10.230  0.0645 -0.0828  0.0436
  165loPI    C3 2627  15.232   7.824  10.199 -0.1663 -0.1627 -0.1180
  165loPI   PO4 2628  15.702   7.510   9.818 -0.0228  0.0632 -0.1008
  165loPI   GL1 2629  15.575   7.336   9.496  0.1525 -0.2201 -0.0125
  165loPI   GL2 2630  15.315   7.181   9.354  0.2616  0.2112  0.1830
  165loPI   C1A 2631  15.709   7.136   9.093  0.3321  0.5004 -0.0160
  165loPI   C2A 2632  15.609   6.924   8.701  0.0354 -0.2201 -0.0414
  165loPI   C3A 2633  15.889   6.974   8.280  0.0012 -0.2607  0.1048
  165loPI   C4A 2634  16.084   7.095   7.924  0.0054 -0.1729 -0.1316
  165loPI   C5A 2635  16.409   7.491   7.879 -0.1085 -0.1772 -0.1514
  165loPI   C6A 2636  16.707   7.517   7.592  0.2841 -0.0749  0.0141
  165loPI   C1B 2637  15.176   7.220   8.979 -0.0582 -0.0521 -0.2062
  165loPI   C2B 2638  15.210   7.267   8.576 -0.1114  0.2164  0.0810
  165loPI   C3B 2639  15.099   7.201   7.990 -0.0141  0.1644 -0.1365
  165loPI   C4B 2640  15.084   7.184   7.661 -0.1674  0.0879  0.1158
  166loPI    C1 2641   9.562   3.142   9.895 -0.0558  0.2693  0.0011
  166loPI    C2 2642   9.447   2.892   9.605 -0.0984  0.3212 -0.0269
  166loPI    C3 2643   9.562   2.747   9.959 -0.0604  0.2585 -0.0647
  166loPI   PO4 2644   9.507   3.388   9.757 -0.2058 -0.0596  0.0455
  166loPI   GL1 2645   9.523   3.370   9.406  0.2472  0.1807  0.0569
  166loPI   GL2 2646   9.546   3.661   9.146 -0.2437 -0.1194  0.1388
  166loPI   C1A 2647   9.444   3.047   9.114 -0.2562  0.0655  0.0962
  166loPI   C2A 2648   9.496   3.079   8.644  0.1305 -0.1427 -0.0281
  166loPI   C3A 2649   9.571   3.204   8.129  0.2159 -0.0468  0.4005
  166loPI   C4A 2650   9.449   3.206   7.716  0.0937  0.0133  0.1640
  166loPI   C5A 2651   9.339   3.072   7.330 -0.3848 -0.2065  0.3072
  166loPI   C6A 2652   9.469   3.116   6.972  0.0658  0.0922 -0.0732
  166loPI   C1B 2653   9.576   3.716   8.783 -0.0131  0.1170 -0.5311
  166loPI   C2B 2654   9.584   3.630   8.424  0.2894  0.2608  0.4204
  166loPI   C3B 2655   9.478   3.694   8.002 -0.0404 -0.1404 -0.0239
  166loPI   C4B 2656   9.025   3.552   7.748 -0.1835  0.2850  0.0878
  167loPI    C1 2657  18.072  13.930  10.377  0.0379 -0.0892 -0.1574
  167loPI    C2 2658  17.924  14.155  10.672  0.0810 -0.0010 -0.2027
  167loPI    C3 2659  18.258  13.943  10.731 -0.0773 -0.2238 -0.0908
  167loPI   PO4 2660  18.124  14.195  10.049 -0.0322 -0.1294  0.1102
  167loPI   GL1 2661  18.166  13.996   9.668 -0.3812  0.2193 -0.1579
  167loPI   GL2 2662  18.393  14.331   9.685  0.0825 -0.0014 -0.0886
  167loPI   C1A 2663  18.214  13.850   9.285 -0.2360 -0.1139  0.3367
  167loPI   C2A 2664  18.040  14.006   8.929  0.1372  0.0677  0.2265
  167loPI   C3A 2665  17.801  13.889   8.564  0.0533 -0.0288  0.0654
  167loPI   C4A 2666  17.689  13.724   8.185  0.1584  0.1762  0.0578
  167loPI   C5A 2667  17.982  13.719   7.804 -0.0454  0.1172  0.1069
  167loPI   C6A 2668  18.354  13.537   7.797 -0.0410  0.4300 -0.1622
  167loPI   C1B 2669  18.202  14.408   9.206  0.1317 -0.0365  0.3917
  167loPI   C2B 2670  18.412  14.400   8.790 -0.1744 -0.4507  0.0528
  167loPI   C3B 2671  18.044  14.332   8.527 -0.4382  0.1445  0.0802
  167loPI   C4B 2672  17.588  14.317   8.590 -0.1796 -0.0670 -0.0136
  168loPI    C1 2673  14.139  11.360  10.135 -0.2099  0.0444  0.0372
  168loPI    C2 2674  14.049  11.694  10.337 -0.0748  0.1840 -0.1300
  168loPI    C3 2675  14.050  11.341  10.525 -0.2583  0.2712  0.0390
  168loPI   PO4 2676  14.016  11.417   9.848  0.1526  0.0520 -0.1031
  168loPI   GL1 2677  14.269  11.568   9.489 -0.0639  0.1234  0.0773
  168loPI   GL2 2678  14.206  11.856   9.377  0.1772  0.1134  0.0722
  168loPI   C1A 2679  14.527  11.598   9.070  0.1677  0.1313  0.0456
  168loPI   C2A 2680  14.568  11.700   8.663  0.0778  0.2748  0.1358
  168loPI   C3A 2681  14.544  11.776   8.296 -0.0077 -0.0227  0.0590
  168loPI   C4A 2682  14.355  11.770   7.979  0.1911 -0.1233  0.2503
  168loPI   C5A 2683  14.014  11.843   7.580 -0.1350  0.1278  0.0736
  168loPI   C6A 2684  13.880  12.192   7.300 -0.0496 -0.0309  0.0028
  168loPI   C1B 2685  14.169  12.012   8.911  0.2085  0.0574 -0.2875
  168loPI   C2B 2686  14.072  11.985   8.441 -0.2280 -0.1794  0.0580
  168loPI   C3B 2687  13.878  12.032   8.032 -0.0791  0.0119  0.0448
  168loPI   C4B 2688  13.542  12.050   7.700 -0.0302  0.1371 -0.1050
  169loPI    C1 2689   4.716   7.263  10.028  0.0276 -0.0945 -0.1320
  169loPI    C2 2690   4.903   6.914  10.082  0.0768 -0.0345  0.0946
  169loPI    C3 2691   5.058   7.249  10.235 -0.2057  0.0183  0.2702
  169loPI   PO4 2692   4.615   7.234   9.821 -0.0446 -0.2487  0.2965
  169loPI   GL1 2693   4.521   7.467   9.517 -0.2734  0.4297  0.1549
  169loPI   GL2 2694   4.532   7.760   9.751  0.4339  0.0219 -0.1523
  169loPI   C1A 2695   4.454   7.611   9.164 -0.4646  0.2298 -0.3288
  169loPI   C2A 2696   4.461   7.795   8.835  0.1111 -0.0160  0.2237
  169loPI   C3A 2697   4.502   7.585   8.438 -0.1959  0.1626  0.4304
  169loPI   C4A 2698   4.358   7.329   8.119 -0.2195 -0.0843  0.2627
  169loPI   C5A 2699   3.958   7.137   7.916  0.1015  0.0669  0.3426
  169loPI   C6A 2700   3.592   6.956   7.907  0.0658  0.1708 -0.2241
  169loPI   C1B 2701   4.737   7.989   9.483 -0.0020 -0.1508 -0.0475
  169loPI   C2B 2702   4.875   8.071   9.101 -0.0274  0.0878  0.2371
  169loPI   C3B 2703   4.879   7.905   8.680 -0.3105  0.0214  0.0924
  169loPI   C4B 2704   4.654   8.202   8.474 -0.1217 -0.2220  0.0125
  170loPI    C1 2705  12.755  16.691  10.048  0.0572 -0.2800  0.0458
  170loPI    C2 2706  12.888  16.817  10.403  0.3509  0.1451 -0.2065
  170loPI    C3 2707  13.124  16.595  10.168  0.1302 -0.1988 -0.1097
  170loPI   PO4 2708  12.745  16.935   9.863 -0.0038  0.2403 -0.0433
  170loPI   GL1 2709  12.525  17.180   9.606 -0.0164 -0.2524  0.1028
  170loPI   GL2 2710  12.199  17.244   9.512 -0.1172  0.0590  0.1688
  170loPI   C1A 2711  12.680  17.055   9.179 -0.0680 -0.0178 -0.1161
  170loPI   C2A 2712  12.656  17.088   8.640 -0.0045 -0.0137 -0.0201
  170loPI   C3A 2713  12.524  16.823   8.454 -0.0110 -0.1072 -0.2601
  170loPI   C4A 2714  12.582  16.861   8.050 -0.0802 -0.0554  0.0714
  170loPI   C5A 2715  12.884  16.836   7.682  0.0280 -0.0457  0.1498
  170loPI   C6A 2716  13.238  16.973   7.434  0.2344 -0.1680  0.0880
  170loPI   C1B 2717  12.214  17.270   8.991  0.0794 -0.1107 -0.2099
  170loPI   C2B 2718  12.101  17.339   8.579  0.0382  0.0252 -0.0107
  170loPI   C3B 2719  12.191  17.235   8.085 -0.0276  0.0927  0.1594
  170loPI   C4B 2720  12.529  17.263   7.667  0.2062 -0.1184 -0.0810
  171loPI    C1 2721  12.817   3.581  10.190 -0.0701  0.1000  0.0276
  171loPI    C2 2722  13.204   3.491  10.138 -0.0925  0.0404 -0.0379
  171loPI    C3 2723  13.058   3.542  10.507  0.0062  0.1914 -0.0187
  171loPI   PO4 2724  12.572   3.469   9.983 -0.4195 -0.3976 -0.0482
  171loPI   GL1 2725  12.504   3.505   9.525  0.0178 -0.0974  0.1803
  171loPI   GL2 2726  12.633   3.774   9.390  0.0330 -0.1201 -0.0127
  171loPI   C1A 2727  12.614   3.301   9.121 -0.0010  0.1745 -0.0709
  171loPI   C2A 2728  12.750   3.250   8.607 -0.1792 -0.3297 -0.4732
  171loPI   C3A 2729  12.706   3.200   8.195  0.2259 -0.0828 -0.3352
  171loPI   C4A 2730  12.727   3.135   7.841  0.3613 -0.2027 -0.5223
  171loPI   C5A 2731  12.726   2.877   7.559  0.0884 -0.0462  0.1159
  171loPI   C6A 2732  12.895   2.867   7.090  0.0407  0.3412 -0.0275
  171loPI   C1B 2733  12.661   3.801   8.880 -0.2511 -0.0574 -0.0715
  171loPI   C2B 2734  12.662   3.761   8.474 -0.0274  0.1612  0.0707
  171loPI   C3B 2735  12.729   3.711   8.113  0.0051  0.4512 -0.0948
  171loPI   C4B 2736  12.820   3.589   7.670  0.1122 -0.1601 -0.0611
  172loPI    C1 2737  17.544   5.152  10.108 -0.1434 -0.2552 -0.1144
  172loPI    C2 2738  17.276   5.388  10.289  0.1784  0.1186 -0.1128
  172loPI    C3 2739  17.462   5.101  10.496 -0.0216  0.0336 -0.0485
  172loPI   PO4 2740  17.606   5.320   9.945 -0.1529  0.1947 -0.0044
  172loPI   GL1 2741  17.353   5.485   9.507 -0.0195  0.3951  0.0207
  172loPI   GL2 2742  17.687   5.491   9.447 -0.0927  0.2387 -0.2152
  172loPI   C1A 2743  17.477   5.200   9.107  0.2185 -0.3673  0.3063
  172loPI   C2A 2744  17.821   5.143   8.754  0.0285  0.2691 -0.0088
  172loPI   C3A 2745  17.852   5.233   8.281  0.0840 -0.0297  0.3068
  172loPI   C4A 2746  18.073   5.185   7.900 -0.1408 -0.3688 -0.0464
  172loPI   C5A 2747  18.442   5.059   7.756 -0.1206  0.0162 -0.0380
  172loPI   C6A 2748  18.828   4.887   7.849 -0.0960 -0.2505  0.1042
  172loPI   C1B 2749  17.725   5.620   9.005  0.0161  0.2757  0.1190
  172loPI   C2B 2750  18.074   5.559   8.642  0.1328 -0.0946  0.1855
  172loPI   C3B 2751  18.281   5.573   8.233 -0.1777  0.0579  0.1519
  172loPI   C4B 2752  18.358   5.571   7.863 -0.0214 -0.3431  0.0829
  173loPI    C1 2753  11.450   7.422   9.774 -0.1726 -0.0008 -0.1349
  173loPI    C2 2754  11.462   7.465  10.171 -0.0150  0.1543 -0.1554
  173loPI    C3 2755  11.802   7.430   9.963 -0.0902  0.2360 -0.2934
  173loPI   PO4 2756  11.191   7.545   9.697  0.0342  0.0652 -0.2137
  173loPI   GL1 2757  11.061   7.629   9.336  0.0447  0.1921 -0.4291
  173loPI   GL2 2758  11.066   7.322   9.148  0.0763 -0.2444  0.0528
  173loPI   C1A 2759  11.304   7.703   8.956 -0.0850  0.0071  0.0708
  173loPI   C2A 2760  11.456   7.697   8.557  0.1443 -0.0563  0.4026
  173loPI   C3A 2761  11.579   7.631   8.090 -0.1092  0.0578  0.2409
  173loPI   C4A 2762  11.389   7.769   7.763 -0.2861 -0.1923 -0.2796
  173loPI   C5A 2763  11.001   7.886   7.657 -0.0793  0.0605  0.1211
  173loPI   C6A 2764  10.676   7.870   7.455  0.5320 -0.2457  0.0868
  173loPI   C1B 2765  11.249   7.217   8.750  0.3153  0.1735 -0.2032
  173loPI   C2B 2766  11.198   7.142   8.343 -0.0193 -0.3652  0.3128
  173loPI   C3B 2767  11.342   7.180   7.969  0.0319  0.0637 -0.2714
  173loPI   C4B 2768  11.002   7.413   7.878 -0.0116  0.0191  0.3768
  174loPI    C1 2769   7.363   6.736  10.087  0.1114 -0.0080 -0.0366
  174loPI    C2 2770   7.533   6.526  10.382  0.0941 -0.0457 -0.0534
  174loPI    C3 2771   7.718   6.848  10.233  0.0730  0.0114  0.0429
  174loPI   PO4 2772   7.255   6.588   9.954 -0.1329  0.1516  0.1450
  174loPI   GL1 2773   7.012   6.907   9.677  0.1621 -0.0263 -0.0707
  174loPI   GL2 2774   6.707   6.898   9.526  0.4048 -0.1684  0.1701
  174loPI   C1A 2775   7.355   6.959   9.194  0.1502  0.0878 -0.3562
  174loPI   C2A 2776   7.580   6.765   8.966 -0.1957 -0.0474  0.0334
  174loPI   C3A 2777   7.793   6.941   8.549 -0.5442 -0.1340 -0.1472
  174loPI   C4A 2778   8.070   6.984   8.259  0.2814 -0.1188 -0.0477
  174loPI   C5A 2779   8.234   7.246   7.911  0.1740 -0.0507  0.2949
  174loPI   C6A 2780   8.098   7.381   7.576 -0.2968 -0.0266  0.2453
  174loPI   C1B 2781   6.717   6.949   9.122  0.3520 -0.4848 -0.0653
  174loPI   C2B 2782   7.025   7.095   8.849 -0.0236 -0.1737  0.1156
  174loPI   C3B 2783   7.128   6.977   8.516  0.3477 -0.0301  0.0275
  174loPI   C4B 2784   7.007   6.910   8.111 -0.3732 -0.2927  0.2066
  175loPI    C1 2785   4.273  14.978  10.045 -0.3005  0.0338  0.1045
  175loPI    C2 2786   4.266  15.369  10.129 -0.1281  0.0729 -0.0565
  175loPI    C3 2787   4.547  15.135  10.291 -0.1603  0.0372 -0.0521
  175loPI   PO4 2788   4.338  14.943   9.833  0.1819 -0.0765 -0.1174
  175loPI   GL1 2789   4.611  14.878   9.507 -0.1924  0.0178  0.0436
  175loPI   GL2 2790   4.439  14.818   9.227  0.0014  0.0922 -0.0740
  175loPI   C1A 2791   5.067  14.893   9.313 -0.4416 -0.1158  0.0145
  175loPI   C2A 2792   5.304  14.798   9.107  0.0759 -0.0142 -0.2648
  175loPI   C3A 2793   5.260  14.460   8.832  0.2214  0.0559 -0.0994
  175loPI   C4A 2794   5.247  14.461   8.339  0.0737 -0.1594  0.0653
  175loPI   C5A 2795   5.654  14.627   8.134 -0.1294 -0.2123  0.1640
  175loPI   C6A 2796   6.164  14.571   7.989 -0.1950 -0.1287  0.0612
  175loPI   C1B 2797   4.510  15.048   8.787  0.0797  0.2895 -0.1808
  175loPI   C2B 2798   4.837  14.895   8.675 -0.0286  0.0669 -0.0754
  175loPI   C3B 2799   5.161  15.035   8.641  0.0555  0.2462  0.1040
  175loPI   C4B 2800   5.517  14.836   8.587 -0.3259  0.1283  0.1434
  176loPI    C1 2801  18.430   6.201   9.983  0.1787  0.1176  0.2135
  176loPI    C2 2802  18.536   6.346  10.341 -0.1601  0.1364  0.3100
  176loPI    C3 2803  18.417   5.965  10.306  0.3214 -0.0058  0.1306
  176loPI   PO4 2804  18.707   6.315   9.798  0.0170 -0.1080  0.1887
  176loPI   GL1 2805  18.854   6.075   9.417  0.0083  0.2103  0.0165
  176loPI   GL2 2806  18.600   6.096   9.248 -0.2558  0.2930 -0.2442
  176loPI   C1A 2807  18.969   6.372   8.954 -0.0302 -0.0277  0.1486
  176loPI   C2A 2808  19.031   6.312   8.547 -0.0941 -0.1022  0.1711
  176loPI   C3A 2809  18.832   6.434   8.184 -0.0439 -0.2794  0.1470
  176loPI   C4A 2810  18.862   6.737   7.961  0.0469 -0.0167  0.1198
  176loPI   C5A 2811  18.927   6.794   7.583  0.2119 -0.1106 -0.0853
  176loPI   C6A 2812  19.016   7.076   7.207 -0.0107  0.2965  0.1056
  176loPI   C1B 2813  18.602   6.113   8.836  0.0880  0.1925 -0.0369
  176loPI   C2B 2814  18.574   6.067   8.404 -0.0230  0.0994  0.1591
  176loPI   C3B 2815  18.676   5.865   8.103  0.1857  0.3232  0.3819
  176loPI   C4B 2816  18.840   5.859   7.674  0.0147  0.1248 -0.0553
  177loPI    C1 2817  11.575   6.283  10.044  0.1208 -0.4079 -0.1055
  177loPI    C2 2818  11.361   6.326  10.379 -0.0912  0.1451 -0.2994
  177loPI    C3 2819  11.758   6.373  10.388 -0.0911  0.1186 -0.1202
  177loPI   PO4 2820  11.464   6.081   9.928  0.2571  0.3945  0.0881
  177loPI   GL1 2821  11.493   5.882   9.564 -0.3095  0.0751  0.1440
  177loPI   GL2 2822  11.498   6.088   9.374  0.3057 -0.1384 -0.1858
  177loPI   C1A 2823  11.506   5.715   9.093 -0.0290  0.0827  0.3003
  177loPI   C2A 2824  11.615   5.675   8.648 -0.1329  0.2459  0.3416
  177loPI   C3A 2825  11.518   5.653   8.249  0.0776 -0.2278  0.4508
  177loPI   C4A 2826  11.530   5.579   7.751 -0.0634 -0.0449  0.1413
  177loPI   C5A 2827  11.297   5.743   7.379 -0.1121  0.0124  0.0997
  177loPI   C6A 2828  11.245   6.005   7.033  0.3294 -0.0283 -0.4952
  177loPI   C1B 2829  11.381   6.471   9.183 -0.0637 -0.5808  0.0866
  177loPI   C2B 2830  11.202   6.548   8.890 -0.0660  0.1443 -0.0747
  177loPI   C3B 2831  11.106   6.579   8.361  0.2243 -0.2530 -0.1207
  177loPI   C4B 2832  11.176   6.338   7.911 -0.1062 -0.0269  0.1202
  178loPI    C1 2833  12.921   0.192   9.905  0.2455 -0.0569 -0.1244
  178loPI    C2 2834  12.906   0.201  10.304 -0.0499 -0.2570 -0.1282
  178loPI    C3 2835  12.569   0.227  10.090  0.1303  0.1500 -0.3753
  178loPI   PO4 2836  13.149   0.374   9.864  0.2075  0.4919  0.1325
  178loPI   GL1 2837  13.461   0.459   9.597 -0.2224 -0.0188 -0.1344
  178loPI   GL2 2838  13.184   0.687   9.478  0.3829 -0.0301  0.2515
  178loPI   C1A 2839  13.443   0.278   9.168 -0.1534 -0.0365 -0.0027
  178loPI   C2A 2840  13.474  -0.111   9.115 -0.2020  0.6458  0.0448
  178loPI   C3A 2841  13.427  -0.262   8.770 -0.2624 -0.1179 -0.3424
  178loPI   C4A 2842  13.515  -0.111   8.359  0.0077 -0.1913  0.1005
  178loPI   C5A 2843  13.648   0.057   7.891 -0.2569  0.0653 -0.1142
  178loPI   C6A 2844  13.465   0.326   7.606 -0.1904  0.0913  0.3893
  178loPI   C1B 2845  12.895   0.441   9.248 -0.3051  0.1460 -0.0118
  178loPI   C2B 2846  12.645   0.183   8.946  0.1417 -0.1883 -0.1908
  178loPI   C3B 2847  12.459  -0.176   8.869 -0.0832 -0.0418  0.2903
  178loPI   C4B 2848  12.504  -0.441   8.416  0.2306  0.3665 -0.0215
  179loPI    C1 2849  10.422  16.756   9.791  0.0703  0.0221  0.1516
  179loPI    C2 2850  10.639  17.015  10.005  0.3137  0.0191 -0.0844
  179loPI    C3 2851  10.801  16.669   9.886  0.0256 -0.1984  0.1355
  179loPI   PO4 2852  10.315  16.882   9.580 -0.3538  0.1766  0.2031
  179loPI   GL1 2853  10.213  16.743   9.140 -0.2029  0.0457 -0.1970
  179loPI   GL2 2854  10.387  16.933   8.987  0.0576  0.2772  0.0502
  179loPI   C1A 2855   9.937  16.527   8.815 -0.1219 -0.0999 -0.3398
  179loPI   C2A 2856  10.004  16.437   8.325 -0.0110 -0.1331 -0.0319
  179loPI   C3A 2857  10.223  16.379   7.967 -0.2301 -0.0178 -0.0545
  179loPI   C4A 2858  10.124  16.370   7.512 -0.0664 -0.0915  0.1674
  179loPI   C5A 2859   9.877  16.682   7.305  0.1011 -0.0946  0.0827
  179loPI   C6A 2860   9.643  17.060   7.170  0.3656 -0.1203 -0.2280
  179loPI   C1B 2861  10.274  16.864   8.559 -0.0977  0.2221 -0.3222
  179loPI   C2B 2862  10.431  16.841   8.032 -0.2322 -0.1115  0.2201
  179loPI   C3B 2863  10.475  16.755   7.603 -0.4249  0.0015  0.3465
  179loPI   C4B 2864  10.941  16.618   7.360 -0.0072 -0.1933  0.0468
  180loPI    C1 2865   7.593   5.169  10.190  0.1609 -0.3244  0.3350
  180loPI    C2 2866   7.660   5.547  10.303  0.0209 -0.1071 -0.2738
  180loPI    C3 2867   7.615   5.261  10.579  0.3194  0.2816  0.1931
  180loPI   PO4 2868   7.732   5.150   9.925  0.1141  0.1063 -0.0389
  180loPI   GL1 2869   7.587   4.770   9.648  0.1878 -0.2325  0.2197
  180loPI   GL2 2870   7.253   4.531   9.615 -0.1056 -0.1972  0.2907
  180loPI   C1A 2871   7.691   4.866   9.250  0.2427  0.1025 -0.0562
  180loPI   C2A 2872   7.891   4.905   8.800 -0.0443  0.0225  0.0716
  180loPI   C3A 2873   7.820   4.895   8.320  0.0270  0.1083 -0.1329
  180loPI   C4A 2874   7.909   4.842   7.858 -0.0050  0.1786 -0.2318
  180loPI   C5A 2875   8.195   4.786   7.474 -0.1374  0.2663  0.0196
  180loPI   C6A 2876   8.676   4.729   7.491  0.2577  0.2633 -0.0248
  180loPI   C1B 2877   7.205   4.657   9.171  0.0414 -0.0824  0.3375
  180loPI   C2B 2878   7.371   4.682   8.803 -0.0333 -0.0794 -0.2141
  180loPI   C3B 2879   7.226   4.744   8.397  0.3833  0.1754  0.0042
  180loPI   C4B 2880   7.450   4.653   8.089  0.0298 -0.0071 -0.0895
  181loPI    C1 2881  11.835   4.903  10.280  0.1355 -0.1056  0.0127
  181loPI    C2 2882  11.774   5.298  10.289  0.1773 -0.0978 -0.0380
  181loPI    C3 2883  11.463   5.049  10.251  0.1277 -0.0797  0.2317
  181loPI   PO4 2884  11.929   4.779  10.067  0.0756  0.1895  0.1952
  181loPI   GL1 2885  11.922   4.740   9.571 -0.1217  0.1244  0.1847
  181loPI   GL2 2886  11.667   4.896   9.421 -0.2059 -0.1689  0.1030
  181loPI   C1A 2887  12.269   4.638   9.251  0.0879 -0.0199  0.2609
  181loPI   C2A 2888  12.423   4.639   8.734  0.2666 -0.1944 -0.0438
  181loPI   C3A 2889  12.298   4.573   8.300  0.3570  0.1707 -0.3653
  181loPI   C4A 2890  12.406   4.454   7.858 -0.1926 -0.2046 -0.0126
  181loPI   C5A 2891  12.515   4.380   7.463 -0.0907 -0.1351 -0.1918
  181loPI   C6A 2892  12.538   4.681   7.171  0.1194  0.2376 -0.0880
  181loPI   C1B 2893  11.847   4.816   9.044 -0.1381 -0.0053 -0.0635
  181loPI   C2B 2894  11.860   4.763   8.610 -0.0239 -0.2145 -0.0166
  181loPI   C3B 2895  11.837   4.812   8.212 -0.1362 -0.0197 -0.2901
  181loPI   C4B 2896  12.146   4.866   7.953  0.1192 -0.3900 -0.0453
  182loPI    C1 2897   3.283  17.647  10.306  0.1231  0.0516 -0.0537
  182loPI    C2 2898   3.056  17.697   9.981 -0.2114  0.2040  0.1965
  182loPI    C3 2899   3.182  18.016  10.187  0.2382  0.1211  0.0613
  182loPI   PO4 2900   3.479  17.560  10.240 -0.1324 -0.0891 -0.1893
  182loPI   GL1 2901   3.672  17.743   9.880  0.1219  0.0561 -0.1758
  182loPI   GL2 2902   3.421  17.962   9.741 -0.1619 -0.1404 -0.1092
  182loPI   C1A 2903   3.694  17.452   9.550 -0.0765  0.1944  0.0756
  182loPI   C2A 2904   3.788  17.339   9.089  0.0132 -0.1679  0.2924
  182loPI   C3A 2905   3.535  17.341   8.627 -0.1197 -0.3044  0.2493
  182loPI   C4A 2906   3.368  17.597   8.340 -0.1360  0.2820  0.1688
  182loPI   C5A 2907   3.244  17.510   7.952 -0.1198  0.1859 -0.1962
  182loPI   C6A 2908   2.935  17.272   7.657  0.0928 -0.4578 -0.1170
  182loPI   C1B 2909   3.186  17.545   9.560  0.0518 -0.1772  0.0282
  182loPI   C2B 2910   3.070  17.435   9.259  0.0058  0.0384 -0.1011
  182loPI   C3B 2911   2.650  17.446   9.136  0.1600  0.2065 -0.2209
  182loPI   C4B 2912   2.596  17.622   8.881  0.1136  0.0541  0.0120
  183loPI    C1 2913   9.161  14.367   9.678  0.0993  0.2612  0.0737
  183loPI    C2 2914   9.293  14.474  10.040 -0.2249 -0.1751  0.3313
  183loPI    C3 2915   9.266  14.087   9.944 -0.2495 -0.0662 -0.1235
  183loPI   PO4 2916   9.256  14.482   9.491  0.1827 -0.1085  0.0666
  183loPI   GL1 2917   9.482  14.515   9.223  0.0229 -0.1655  0.1869
  183loPI   GL2 2918   9.625  14.762   9.124 -0.0077 -0.0759 -0.1089
  183loPI   C1A 2919   9.542  14.286   8.864  0.1561  0.3007 -0.1027
  183loPI   C2A 2920   9.516  14.122   8.417 -0.5241  0.2310 -0.0187
  183loPI   C3A 2921   9.473  14.239   7.973  0.1886 -0.1131 -0.1885
  183loPI   C4A 2922   9.085  14.248   7.691  0.0045 -0.0946  0.4332
  183loPI   C5A 2923   8.795  14.373   7.303  0.3768  0.1119 -0.1488
  183loPI   C6A 2924   8.451  14.374   7.041  0.2060  0.1023 -0.0383
  183loPI   C1B 2925   9.815  14.785   8.729 -0.2731  0.1277 -0.1853
  183loPI   C2B 2926   9.892  15.014   8.372  0.0278  0.0502 -0.3190
  183loPI   C3B 2927  10.158  15.041   8.035 -0.2343 -0.1213 -0.1635
  183loPI   C4B 2928  10.196  15.029   7.643  0.0320 -0.0172 -0.1731
  184loPI    C1 2929  12.259   6.240  10.263  0.0384  0.0272 -0.1067
  184loPI    C2 2930  12.622   6.120  10.145  0.1166  0.0519  0.1050
  184loPI    C3 2931  12.560   6.225  10.526 -0.0856  0.1575  0.0444
  184loPI   PO4 2932  12.093   6.118  10.081  0.1842  0.2587 -0.1136
  184loPI   GL1 2933  12.248   6.074   9.695 -0.0808  0.0156  0.2904
  184loPI   GL2 2934  11.947   6.166   9.626 -0.1843  0.4555  0.0980
  184loPI   C1A 2935  12.419   6.152   9.241  0.1135 -0.1253 -0.0641
  184loPI   C2A 2936  12.502   6.125   8.797  0.0808 -0.1827  0.0369
  184loPI   C3A 2937  12.603   6.083   8.321  0.2140 -0.1034 -0.2176
  184loPI   C4A 2938  12.544   6.105   7.924 -0.0765 -0.1675  0.0924
  184loPI   C5A 2939  12.413   6.226   7.578  0.1217  0.0174  0.2892
  184loPI   C6A 2940  12.244   6.645   7.367  0.1768  0.0699  0.1490
  184loPI   C1B 2941  11.992   5.805   9.260 -0.2940 -0.2143  0.0677
  184loPI   C2B 2942  12.061   5.926   8.848 -0.0146  0.2713 -0.2759
  184loPI   C3B 2943  11.968   5.937   8.364 -0.0280 -0.0283 -0.0370
  184loPI   C4B 2944  12.061   6.017   7.885  0.0551  0.0597 -0.3065
  185loPI    C1 2945   1.757  13.678   9.986 -0.0913 -0.1517 -0.3041
  185loPI    C2 2946   2.088  13.795   9.795  0.0772  0.1622  0.1609
  185loPI    C3 2947   2.104  13.700  10.183 -0.3029 -0.2334  0.0879
  185loPI   PO4 2948   1.632  13.867   9.891  0.0945  0.1578 -0.1091
  185loPI   GL1 2949   1.240  13.937   9.768 -0.0905 -0.0053 -0.1392
  185loPI   GL2 2950   0.949  13.884   9.638  0.0686  0.0150  0.2187
  185loPI   C1A 2951   1.278  13.972   9.287  0.1519 -0.1056  0.0495
  185loPI   C2A 2952   1.174  13.996   8.871  0.1224  0.2293  0.0605
  185loPI   C3A 2953   1.183  13.954   8.457 -0.0452  0.2183 -0.1951
  185loPI   C4A 2954   0.927  14.142   8.044  0.0949 -0.0103 -0.1009
  185loPI   C5A 2955   0.535  14.167   8.033 -0.2586 -0.0534  0.3565
  185loPI   C6A 2956   0.229  13.952   7.848 -0.1052  0.1016  0.1490
  185loPI   C1B 2957   0.750  13.851   9.287 -0.3231 -0.1172  0.1436
  185loPI   C2B 2958   0.714  13.852   8.807  0.2660  0.1286  0.3028
  185loPI   C3B 2959   0.654  13.960   8.484  0.1317 -0.4282  0.0885
  185loPI   C4B 2960   0.777  13.657   8.223 -0.3356 -0.3475 -0.0926
  186loPI    C1 2961   5.807  13.374  10.396  0.0434 -0.0968 -0.0175
  186loPI    C2 2962   5.528  13.353  10.682  0.0064 -0.0420 -0.0494
  186loPI    C3 2963   5.873  13.544  10.752  0.0084 -0.0519 -0.0322
  186loPI   PO4 2964   5.647  13.410  10.201 -0.5087 -0.2138  0.0000
  186loPI   GL1 2965   5.622  13.319   9.685 -0.0283 -0.0083 -0.3704
  186loPI   GL2 2966   5.965  13.233   9.603 -0.0034 -0.1690  0.0243
  186loPI   C1A 2967   5.404  13.086   9.481  0.1514  0.2717 -0.1517
  186loPI   C2A 2968   5.281  13.151   9.158  0.4171  0.0513 -0.0041
  186loPI   C3A 2969   4.922  13.169   8.919  0.4418  0.1109 -0.4221
  186loPI   C4A 2970   4.880  13.150   8.379 -0.1384  0.5594 -0.1362
  186loPI   C5A 2971   4.720  13.229   7.935  0.0382 -0.1510 -0.0884
  186loPI   C6A 2972   4.415  13.425   7.677 -0.0482 -0.0684 -0.0771
  186loPI   C1B 2973   5.836  13.007   9.223  0.0465  0.0181  0.4241
  186loPI   C2B 2974   5.625  12.905   8.832 -0.0329 -0.2116  0.1214
  186loPI   C3B 2975   5.461  13.121   8.452 -0.1418 -0.2590 -0.3816
  186loPI   C4B 2976   5.299  13.002   8.071 -0.0071  0.2908 -0.0824
  187loPI    C1 2977  11.513   1.022   9.808 -0.0893  0.3176  0.1518
  187loPI    C2 2978  11.239   0.820  10.018 -0.0761  0.0195 -0.1113
  187loPI    C3 2979  11.172   1.201   9.917 -0.2245  0.0654  0.1505
  187loPI   PO4 2980  11.525   0.923   9.530  0.0188  0.2324  0.2559
  187loPI   GL1 2981  11.603   0.761   9.165  0.1661  0.1586  0.3257
  187loPI   GL2 2982  11.894   0.598   9.261  0.0138  0.1079 -0.1041
  187loPI   C1A 2983  11.715   0.704   8.739  0.0455 -0.0767  0.4084
  187loPI   C2A 2984  12.122   0.884   8.449  0.0877  0.0793  0.1939
  187loPI   C3A 2985  12.394   0.757   8.150  0.0317  0.0907 -0.2635
  187loPI   C4A 2986  12.420   0.514   7.775  0.0448  0.3346  0.0692
  187loPI   C5A 2987  12.342   0.098   7.503 -0.0593 -0.4186 -0.0403
  187loPI   C6A 2988  12.590  -0.250   7.366  0.2226 -0.3554 -0.2532
  187loPI   C1B 2989  12.170   0.709   8.974 -0.0920 -0.0200 -0.0186
  187loPI   C2B 2990  12.467   0.795   8.729 -0.0688  0.2304  0.0342
  187loPI   C3B 2991  12.899   0.552   8.656 -0.0135 -0.0358  0.0534
  187loPI   C4B 2992  13.307   0.289   8.693  0.1642  0.1404 -0.1160
  188loPI    C1 2993  15.101  18.784   9.791  0.2713  0.0651  0.0244
  188loPI    C2 2994  14.928  19.079   9.582  0.4647  0.1010 -0.0877
  188loPI    C3 2995  14.802  18.995   9.952  0.0675 -0.0127 -0.2440
  188loPI   PO4 2996  15.343  18.818   9.688 -0.1676 -0.0151  0.0953
  188loPI   GL1 2997  15.606  18.661   9.341 -0.1115 -0.1874  0.1057
  188loPI   GL2 2998  15.688  18.381   9.327 -0.3170 -0.0304  0.1401
  188loPI   C1A 2999  15.810  18.819   8.985  0.1989 -0.0227 -0.2167
  188loPI   C2A 3000  15.905  18.696   8.576  0.0343  0.0003  0.1222
  188loPI   C3A 3001  15.935  18.957   8.212 -0.1879 -0.1893  0.0816
  188loPI   C4A 3002  16.253  18.925   7.744 -0.1687 -0.4886 -0.0083
  188loPI   C5A 3003  16.521  18.562   7.543  0.1737  0.0319 -0.0547
  188loPI   C6A 3004  16.713  18.239   7.655 -0.1153  0.1786  0.0778
  188loPI   C1B 3005  15.500  18.411   8.912  0.4389 -0.1755 -0.0739
  188loPI   C2B 3006  15.440  18.474   8.446 -0.1040 -0.0396 -0.0743
  188loPI   C3B 3007  15.334  18.465   8.111 -0.3060  0.3141  0.1628
  188loPI   C4B 3008  15.624  18.117   7.870  0.2432 -0.2280 -0.0656
  189loPI    C1 3009   8.961   9.132  10.343  0.1333 -0.2593 -0.2825
  189loPI    C2 3010   8.723   8.903  10.568  0.1089  0.1902  0.1654
  189loPI    C3 3011   9.120   8.857  10.586  0.0936  0.0058  0.0510
  189loPI   PO4 3012   8.787   9.153  10.089  0.1001 -0.1716  0.1242
  189loPI   GL1 3013   8.804   9.245   9.682  0.0219  0.1035  0.2568
  189loPI   GL2 3014   8.522   9.472   9.610  0.1821  0.1037 -0.0902
  189loPI   C1A 3015   9.014   9.193   9.314  0.1518 -0.0063  0.1378
  189loPI   C2A 3016   8.866   9.375   8.895  0.0542 -0.0381  0.0016
  189loPI   C3A 3017   8.824   9.398   8.420 -0.0560  0.0050  0.0797
  189loPI   C4A 3018   8.681   9.550   8.019 -0.0123 -0.1316  0.2270
  189loPI   C5A 3019   8.621   9.586   7.558 -0.0327 -0.0166  0.0353
  189loPI   C6A 3020   8.559   9.535   7.278  0.0042  0.2638  0.2404
  189loPI   C1B 3021   8.272   9.634   9.266 -0.0461  0.1138  0.2173
  189loPI   C2B 3022   8.354   9.616   8.820 -0.5155  0.2286  0.0250
  189loPI   C3B 3023   8.338   9.530   8.380 -0.3158  0.2490  0.0526
  189loPI   C4B 3024   8.365   9.191   8.365  0.1282 -0.0379 -0.0489
  190loPI    C1 3025   3.972   1.909  10.153 -0.2003 -0.1210  0.1304
  190loPI    C2 3026   4.234   2.144  10.342  0.1437 -0.3173 -0.0927
  190loPI    C3 3027   3.844   2.231  10.353  0.2516  0.1971 -0.0765
  190loPI   PO4 3028   4.162   1.910   9.766 -0.3276  0.2690  0.0177
  190loPI   GL1 3029   4.004   2.069   9.335  0.1012 -0.0193  0.0899
  190loPI   GL2 3030   3.672   1.956   9.465 -0.2292  0.2599 -0.0508
  190loPI   C1A 3031   3.798   2.033   8.932 -0.0764  0.0908 -0.0712
  190loPI   C2A 3032   3.548   1.805   8.626 -0.0890  0.0792  0.0220
  190loPI   C3A 3033   3.384   1.888   8.179 -0.0080 -0.3113 -0.0497
  190loPI   C4A 3034   3.426   1.858   7.666  0.2431  0.1292 -0.2685
  190loPI   C5A 3035   3.774   1.889   7.677 -0.2246  0.1624  0.0771
  190loPI   C6A 3036   4.144   1.953   8.002  0.1065 -0.2856 -0.1599
  190loPI   C1B 3037   3.367   1.782   9.085 -0.0852  0.1789  0.0681
  190loPI   C2B 3038   3.154   1.574   8.760  0.0554 -0.0841  0.2037
  190loPI   C3B 3039   3.179   1.353   8.401  0.1103  0.0274 -0.2135
  190loPI   C4B 3040   3.560   1.275   8.083  0.1843 -0.1860  0.1264
  191loPI    C1 3041  11.684  18.842  10.066  0.1733  0.0265 -0.1657
  191loPI    C2 3042  11.819  19.200  10.185  0.0986 -0.0315  0.1024
  191loPI    C3 3043  11.555  19.001  10.410 -0.1840 -0.0686 -0.2508
  191loPI   PO4 3044  11.681  18.892   9.828  0.0241  0.0376 -0.1081
  191loPI   GL1 3045  11.754  18.905   9.395  0.1602 -0.1860 -0.1879
  191loPI   GL2 3046  12.047  18.747   9.400  0.0638  0.0817 -0.0650
  191loPI   C1A 3047  11.342  18.839   9.115  0.1700 -0.0995  0.4464
  191loPI   C2A 3048  11.297  18.842   8.594 -0.2280  0.0228 -0.3102
  191loPI   C3A 3049  11.252  18.808   8.116  0.1182  0.1211 -0.1690
  191loPI   C4A 3050  11.323  18.493   7.830 -0.0047 -0.1142  0.0033
  191loPI   C5A 3051  11.625  18.264   7.496  0.0692 -0.0547  0.1899
  191loPI   C6A 3052  11.875  18.238   7.058 -0.0467  0.0923  0.2049
  191loPI   C1B 3053  11.985  18.805   9.004 -0.0501 -0.2429  0.1127
  191loPI   C2B 3054  12.067  18.871   8.517  0.1325  0.0596  0.1648
  191loPI   C3B 3055  12.308  18.966   8.134  0.0361 -0.2541  0.1898
  191loPI   C4B 3056  12.633  18.968   7.869 -0.1878 -0.0107  0.3278
  192loPI    C1 3057  12.854  14.830  10.353 -0.1679  0.0763  0.1787
  192loPI    C2 3058  12.512  15.037  10.362 -0.0774  0.2505 -0.1927
  192loPI    C3 3059  12.730  14.997  10.695 -0.3354  0.3446 -0.0092
  192loPI   PO4 3060  12.871  14.808  10.063 -0.0068  0.1324  0.4316
  192loPI   GL1 3061  13.066  15.022   9.620  0.4271  0.0190  0.0580
  192loPI   GL2 3062  12.901  14.769   9.454 -0.0290 -0.1386  0.3689
  192loPI   C1A 3063  12.893  15.170   9.153 -0.1002 -0.0938  0.1020
  192loPI   C2A 3064  12.753  15.162   8.718 -0.1027 -0.1660 -0.0251
  192loPI   C3A 3065  12.513  15.261   8.438 -0.4389  0.1355  0.2239
  192loPI   C4A 3066  12.700  15.252   8.009 -0.2194 -0.1364  0.0575
  192loPI   C5A 3067  12.718  15.565   7.741 -0.2254 -0.0583  0.1228
  192loPI   C6A 3068  12.611  15.710   7.365 -0.0588 -0.1520 -0.2072
  192loPI   C1B 3069  13.201  14.733   9.151  0.0733  0.3262  0.0162
  192loPI   C2B 3070  13.184  14.862   8.763  0.0858 -0.1604 -0.0177
  192loPI   C3B 3071  13.004  14.930   8.328  0.4084 -0.0024  0.2539
  192loPI   C4B 3072  12.911  14.754   7.971 -0.2078  0.0266 -0.0307
  193loPI    C1 3073   4.244  10.240  10.760  0.0159  0.0753 -0.0899
  193loPI    C2 3074   4.533  10.425  10.965  0.0873  0.0061 -0.1275
  193loPI    C3 3075   4.192  10.324  11.148  0.1701 -0.0987 -0.0299
  193loPI   PO4 3076   4.293  10.357  10.525  0.0176  0.1841  0.3200
  193loPI   GL1 3077   4.552  10.462  10.201 -0.1969 -0.2165  0.2101
  193loPI   GL2 3078   4.302  10.529  10.052 -0.0169 -0.1913 -0.2742
  193loPI   C1A 3079   4.649  10.193   9.878 -0.1247  0.2341  0.1717
  193loPI   C2A 3080   4.524  10.220   9.403 -0.0298  0.0808  0.1131
  193loPI   C3A 3081   4.437  10.299   9.015 -0.1450 -0.1917 -0.0019
  193loPI   C4A 3082   4.488  10.526   8.587  0.0092 -0.0177  0.2318
  193loPI   C5A 3083   4.717  10.545   8.250  0.0665 -0.0441 -0.2013
  193loPI   C6A 3084   4.999  10.238   8.037 -0.2442 -0.1987 -0.0856
  193loPI   C1B 3085   4.077  10.599   9.703  0.0603  0.2526 -0.0469
  193loPI   C2B 3086   4.070  10.693   9.249 -0.2731 -0.2060  0.3507
  193loPI   C3B 3087   4.052  10.648   8.831  0.1766 -0.0639  0.0745
  193loPI   C4B 3088   4.061  10.769   8.400 -0.0159 -0.0644 -0.1473
  194loPI    C1 3089  13.417   6.446  10.169 -0.1446  0.0710 -0.0899
  194loPI    C2 3090  13.577   6.780  10.320 -0.0117 -0.0057 -0.0597
  194loPI    C3 3091  13.794   6.445  10.303 -0.0683 -0.0317 -0.3009
  194loPI   PO4 3092  13.399   6.509   9.880  0.2574 -0.2114  0.1139
  194loPI   GL1 3093  13.419   6.287   9.435  0.0780  0.1252  0.2831
  194loPI   GL2 3094  13.745   6.255   9.401 -0.0128 -0.1456  0.0177
  194loPI   C1A 3095  13.335   5.984   9.247  0.3110 -0.2161 -0.0845
  194loPI   C2A 3096  13.186   6.088   8.883 -0.0458 -0.0911 -0.0665
  194loPI   C3A 3097  13.084   6.123   8.513 -0.1559 -0.1154 -0.0102
  194loPI   C4A 3098  13.073   6.089   8.124 -0.0446 -0.1482  0.0267
  194loPI   C5A 3099  13.223   6.310   7.828  0.2544  0.2853 -0.0550
  194loPI   C6A 3100  13.197   6.608   7.482  0.0271 -0.0557 -0.0806
  194loPI   C1B 3101  13.897   6.152   8.977 -0.2606 -0.1579  0.1163
  194loPI   C2B 3102  13.691   6.138   8.654 -0.1081 -0.2342  0.2316
  194loPI   C3B 3103  13.558   6.054   8.212 -0.3145  0.3225  0.0999
  194loPI   C4B 3104  13.823   6.056   7.817 -0.1890 -0.3066 -0.0400
  195loPI    C1 3105   6.022  18.604   9.815  0.0768 -0.1650 -0.1265
  195loPI    C2 3106   6.225  18.365  10.063  0.1411  0.0186  0.0001
  195loPI    C3 3107   6.320  18.376   9.675  0.2276 -0.0598  0.0186
  195loPI   PO4 3108   5.816  18.612   9.960 -0.1082 -0.0838  0.2218
  195loPI   GL1 3109   5.592  18.369   9.726  0.1720  0.1472  0.1543
  195loPI   GL2 3110   5.585  18.048   9.768  0.1624  0.5044 -0.0162
  195loPI   C1A 3111   5.747  18.434   9.390 -0.1037  0.0447  0.4140
  195loPI   C2A 3112   5.597  18.839   9.074 -0.2494 -0.0446  0.2471
  195loPI   C3A 3113   5.769  18.955   8.604  0.0519  0.0730 -0.0406
  195loPI   C4A 3114   5.748  18.981   8.181  0.1545 -0.1404 -0.0080
  195loPI   C5A 3115   5.524  19.008   7.763 -0.3277  0.1104 -0.0321
  195loPI   C6A 3116   5.580  19.053   7.257  0.0796 -0.2743  0.0059
  195loPI   C1B 3117   5.484  18.009   9.367 -0.1130  0.2322  0.1549
  195loPI   C2B 3118   5.626  17.846   9.012 -0.2463 -0.0158  0.1329
  195loPI   C3B 3119   5.575  17.895   8.588 -0.4027 -0.1400  0.1158
  195loPI   C4B 3120   5.554  18.038   8.211  0.0312 -0.3281 -0.0834
  196loPI    C1 3121  16.502  10.992  10.790  0.1692 -0.0054 -0.0070
  196loPI    C2 3122  16.298  10.829  11.093 -0.0290  0.2011 -0.0261
  196loPI    C3 3123  16.613  11.064  11.167  0.0342  0.1045  0.0128
  196loPI   PO4 3124  16.626  10.814  10.633  0.0794 -0.4811 -0.2691
  196loPI   GL1 3125  16.815  10.829  10.241 -0.0022 -0.3016 -0.2092
  196loPI   GL2 3126  16.994  11.055  10.204 -0.2757 -0.1541  0.3910
  196loPI   C1A 3127  16.531  10.789   9.839  0.1089  0.0906 -0.0861
  196loPI   C2A 3128  16.329  10.577   9.602 -0.0985 -0.4223  0.1751
  196loPI   C3A 3129  16.254  10.476   9.284  0.2109 -0.0146  0.1031
  196loPI   C4A 3130  16.317  10.400   8.880  0.1084  0.0013  0.1885
  196loPI   C5A 3131  16.031  10.476   8.622 -0.0040 -0.1179  0.0051
  196loPI   C6A 3132  16.070  10.730   8.117  0.1723 -0.3751  0.0250
  196loPI   C1B 3133  17.048  10.988   9.804  0.1644  0.0759  0.2137
  196loPI   C2B 3134  16.837  10.793   9.424  0.0576 -0.0563  0.0363
  196loPI   C3B 3135  16.832  10.884   9.036 -0.2093  0.2696  0.1507
  196loPI   C4B 3136  17.192  11.060   8.792  0.0924 -0.2245  0.2927
  197loPI    C1 3137   0.117   0.654  10.214 -0.0457 -0.1254  0.0529
  197loPI    C2 3138  -0.199   0.820  10.396  0.0125  0.2823 -0.2043
  197loPI    C3 3139   0.169   0.876  10.543 -0.0101 -0.0105 -0.0293
  197loPI   PO4 3140  -0.004   0.534  10.015 -0.1662 -0.0379 -0.1480
  197loPI   GL1 3141  -0.294   0.758   9.614 -0.0934 -0.1446  0.0786
  197loPI   GL2 3142   0.107   0.711   9.529  0.0061  0.0114  0.0617
  197loPI   C1A 3143  -0.338   0.487   9.261 -0.1902  0.3254 -0.1957
  197loPI   C2A 3144  -0.312   0.517   8.825 -0.0457 -0.0022 -0.1115
  197loPI   C3A 3145  -0.094   0.491   8.426 -0.4349  0.2472  0.0018
  197loPI   C4A 3146  -0.233   0.413   8.088  0.0750 -0.0685  0.1154
  197loPI   C5A 3147  -0.331   0.459   7.703  0.1263  0.1107 -0.2709
  197loPI   C6A 3148  -0.488   0.741   7.507 -0.0411 -0.2732  0.1333
  197loPI   C1B 3149   0.090   0.653   9.086  0.2586  0.0370  0.1290
  197loPI   C2B 3150   0.120   0.884   8.717 -0.0182  0.2038  0.0899
  197loPI   C3B 3151   0.085   0.869   8.170 -0.1380  0.0342 -0.0157
  197loPI   C4B 3152   0.171   0.783   7.751  0.1265  0.0519  0.0117
  198loPI    C1 3153   1.308  10.952  10.182 -0.1719 -0.0927 -0.1332
  198loPI    C2 3154   1.394  11.335  10.255 -0.1614 -0.0771 -0.2249
  198loPI    C3 3155   1.310  11.087  10.558 -0.0346 -0.0348 -0.1540
  198loPI   PO4 3156   1.544  10.832   9.939 -0.4361  0.1867 -0.1627
  198loPI   GL1 3157   1.523  10.828   9.444 -0.2274  0.1172  0.0466
  198loPI   GL2 3158   1.287  10.990   9.281  0.0263  0.1046 -0.1033
  198loPI   C1A 3159   1.722  10.750   9.077  0.1191  0.3308  0.0081
  198loPI   C2A 3160   1.666  10.786   8.612  0.0173  0.1446 -0.3772
  198loPI   C3A 3161   1.402  10.556   8.202 -0.2855  0.0425 -0.1519
  198loPI   C4A 3162   1.449  10.232   7.806  0.0748  0.0083 -0.0721
  198loPI   C5A 3163   1.163   9.865   7.828 -0.1210 -0.0168 -0.4110
  198loPI   C6A 3164   0.876   9.619   7.519 -0.1120 -0.0749 -0.3095
  198loPI   C1B 3165   1.265  10.971   8.877 -0.0296 -0.0227  0.2731
  198loPI   C2B 3166   1.214  10.995   8.427  0.1467  0.0203  0.0087
  198loPI   C3B 3167   1.139  10.934   7.950 -0.2904  0.1393 -0.1319
  198loPI   C4B 3168   1.139  10.686   7.628 -0.1371  0.1833 -0.2183
  199loPI    C1 3169  17.051  12.901  10.661  0.0386  0.0368 -0.0730
  199loPI    C2 3170  16.911  12.825  11.028  0.0372  0.0939 -0.0618
  199loPI    C3 3171  16.777  13.142  10.824  0.0513  0.0724 -0.1045
  199loPI   PO4 3172  17.027  12.696  10.458 -0.1637 -0.2708  0.3493
  199loPI   GL1 3173  17.160  12.686  10.117  0.2114 -0.2742 -0.0457
  199loPI   GL2 3174  17.506  12.733   9.917 -0.3297 -0.3160  0.1986
  199loPI   C1A 3175  17.023  12.657   9.687 -0.5453 -0.1015  0.0832
  199loPI   C2A 3176  17.051  12.347   9.340  0.1032 -0.0547 -0.1547
  199loPI   C3A 3177  16.911  12.306   8.970 -0.0271 -0.1012 -0.1442
  199loPI   C4A 3178  16.734  12.220   8.588 -0.0891 -0.3383  0.1379
  199loPI   C5A 3179  16.648  12.031   8.177  0.1029  0.1814  0.4513
  199loPI   C6A 3180  16.311  11.724   8.191  0.0383 -0.1130  0.3597
  199loPI   C1B 3181  17.485  12.578   9.526  0.1335 -0.0295  0.3832
  199loPI   C2B 3182  17.224  12.777   9.133 -0.2223  0.3688 -0.3646
  199loPI   C3B 3183  17.000  12.734   8.676 -0.0330  0.1665  0.1374
  199loPI   C4B 3184  16.720  12.953   8.460 -0.0090  0.0181  0.2134
  200loPI    C1 3185  14.535  11.113  10.135  0.1795  0.0746 -0.1279
  200loPI    C2 3186  14.579  11.416  10.392  0.1730 -0.0174 -0.0178
  200loPI    C3 3187  14.483  11.052  10.526  0.1201 -0.0548 -0.1556
  200loPI   PO4 3188  14.627  11.138   9.934 -0.0044  0.1053 -0.2151
  200loPI   GL1 3189  14.585  10.969   9.489 -0.1370 -0.2114  0.0048
  200loPI   GL2 3190  14.354  11.164   9.249  0.0397 -0.2551  0.4467
  200loPI   C1A 3191  14.505  10.658   9.208  0.2643 -0.1695 -0.0251
  200loPI   C2A 3192  14.624  10.614   8.795 -0.0327  0.0945 -0.2655
  200loPI   C3A 3193  14.591  10.719   8.372  0.0934  0.1698 -0.2819
  200loPI   C4A 3194  14.426  10.729   7.966 -0.0602 -0.3307  0.1051
  200loPI   C5A 3195  14.313  10.953   7.583 -0.1173  0.0391  0.1642
  200loPI   C6A 3196  14.334  11.099   7.177 -0.2265 -0.0817  0.5161
  200loPI   C1B 3197  14.552  11.164   8.830 -0.0112 -0.1624  0.1341
  200loPI   C2B 3198  14.562  11.230   8.466  0.1408  0.2636 -0.1071
  200loPI   C3B 3199  14.549  11.273   8.010  0.1316  0.0398  0.1635
  200loPI   C4B 3200  14.727  11.194   7.524  0.2679 -0.1295  0.0833
  201loPI    C1 3201  13.543   7.303  10.312  0.0431 -0.2019 -0.0361
  201loPI    C2 3202  13.375   7.581  10.545 -0.1644 -0.1087 -0.2924
  201loPI    C3 3203  13.573   7.275  10.710 -0.0508  0.1159 -0.0041
  201loPI   PO4 3204  13.650   7.461  10.038 -0.1404  0.2126 -0.2294
  201loPI   GL1 3205  13.844   7.399   9.586 -0.1133 -0.0770 -0.0350
  201loPI   GL2 3206  13.583   7.654   9.595  0.1281  0.0680  0.2123
  201loPI   C1A 3207  13.897   7.149   9.124 -0.1861  0.2617  0.2326
  201loPI   C2A 3208  13.859   6.969   8.777  0.2062  0.0961 -0.1626
  201loPI   C3A 3209  13.872   6.922   8.424 -0.0446  0.3295  0.1266
  201loPI   C4A 3210  13.599   6.995   8.103 -0.0937 -0.2159  0.1838
  201loPI   C5A 3211  13.322   7.242   7.710 -0.1484  0.2052 -0.0282
  201loPI   C6A 3212  13.296   7.421   7.226 -0.0102  0.0876  0.1705
  201loPI   C1B 3213  13.504   7.507   9.232  0.0103 -0.1511  0.0076
  201loPI   C2B 3214  13.632   7.515   8.781 -0.0473 -0.1396  0.3073
  201loPI   C3B 3215  13.625   7.391   8.418  0.4138 -0.0159 -0.0353
  201loPI   C4B 3216  13.683   7.491   8.001 -0.1661  0.0744 -0.0526
  202loPI    C1 3217  14.329  14.760  10.422  0.5509  0.0649 -0.1457
  202loPI    C2 3218  14.284  15.157  10.436  0.0107  0.0056  0.0206
  202loPI    C3 3219  14.171  14.932  10.747  0.1297 -0.2957 -0.1503
  202loPI   PO4 3220  14.339  14.761  10.163  0.2410  0.0227 -0.3957
  202loPI   GL1 3221  14.481  14.794   9.684 -0.0793  0.1497 -0.1318
  202loPI   GL2 3222  14.492  14.436   9.466 -0.1322  0.1036  0.0977
  202loPI   C1A 3223  14.531  14.927   9.314 -0.1810 -0.0810 -0.3068
  202loPI   C2A 3224  14.622  14.906   8.918  0.2053  0.1905 -0.0730
  202loPI   C3A 3225  14.743  14.999   8.523 -0.1908  0.3580  0.2823
  202loPI   C4A 3226  14.746  15.169   8.155 -0.4569  0.0615  0.1233
  202loPI   C5A 3227  14.856  15.514   7.834 -0.0652 -0.0325 -0.0546
  202loPI   C6A 3228  14.574  15.721   7.635  0.0766 -0.4525  0.0868
  202loPI   C1B 3229  14.516  14.250   9.124  0.3862 -0.1687  0.2032
  202loPI   C2B 3230  14.687  14.429   8.732  0.1837 -0.0782 -0.1926
  202loPI   C3B 3231  14.916  14.581   8.364  0.1259 -0.1411  0.3686
  202loPI   C4B 3232  15.426  14.592   8.368 -0.2241 -0.0379  0.0166
  203loPI    C1 3233   4.684   1.179   9.792  0.0368  0.2281  0.0791
  203loPI    C2 3234   4.384   1.392   9.635  0.0299  0.2417  0.1106
  203loPI    C3 3235   4.475   1.033   9.484  0.0442  0.2687  0.0547
  203loPI   PO4 3236   4.834   1.392   9.816 -0.2585 -0.1894 -0.1496
  203loPI   GL1 3237   4.948   1.792   9.676 -0.0137  0.2487  0.1443
  203loPI   GL2 3238   4.602   1.873   9.577 -0.0806  0.2985 -0.2168
  203loPI   C1A 3239   5.059   1.997   9.270 -0.4888  0.1511 -0.2739
  203loPI   C2A 3240   4.840   2.057   8.856 -0.2086  0.1236  0.0265
  203loPI   C3A 3241   4.625   1.927   8.425 -0.0631 -0.1807  0.1022
  203loPI   C4A 3242   4.455   1.629   8.199 -0.2439  0.3095 -0.4676
  203loPI   C5A 3243   4.201   1.469   7.856  0.3303 -0.1493 -0.2591
  203loPI   C6A 3244   4.218   1.204   7.499  0.1147 -0.2586  0.0663
  203loPI   C1B 3245   4.526   1.881   9.235  0.2470  0.0577  0.1666
  203loPI   C2B 3246   4.291   1.951   8.925 -0.3128 -0.1080 -0.1164
  203loPI   C3B 3247   4.112   1.893   8.513 -0.0629 -0.1795 -0.0838
  203loPI   C4B 3248   3.911   1.600   8.293 -0.2123 -0.0423  0.1639
  204loPI    C1 3249   3.631  13.114  10.151  0.1338  0.0757  0.0591
  204loPI    C2 3250   4.012  13.009  10.208  0.0077 -0.3182  0.2073
  204loPI    C3 3251   3.785  13.117  10.520  0.0860  0.2479  0.0789
  204loPI   PO4 3252   3.728  13.252   9.843  0.1580  0.1035 -0.3631
  204loPI   GL1 3253   3.894  13.334   9.441  0.1892 -0.1517  0.1488
  204loPI   GL2 3254   3.735  12.926   9.440  0.1625 -0.1045 -0.0220
  204loPI   C1A 3255   3.966  13.515   8.988 -0.1586  0.2525 -0.3150
  204loPI   C2A 3256   3.999  13.494   8.577 -0.0966 -0.1357 -0.1531
  204loPI   C3A 3257   3.958  13.670   8.269 -0.0211 -0.2225 -0.0803
  204loPI   C4A 3258   4.075  13.804   7.791  0.0304  0.1043 -0.0526
  204loPI   C5A 3259   3.737  14.048   7.523 -0.1201 -0.3651 -0.0350
  204loPI   C6A 3260   3.720  14.477   7.584  0.1411 -0.2030  0.2856
  204loPI   C1B 3261   3.823  13.020   8.997 -0.1120  0.2105 -0.0274
  204loPI   C2B 3262   3.661  13.110   8.680  0.1864 -0.0580 -0.0398
  204loPI   C3B 3263   3.501  13.468   8.372  0.0036 -0.2021  0.1204
  204loPI   C4B 3264   3.454  13.461   7.958 -0.0192  0.3199  0.1982
  205loPI    C1 3265   1.211   3.599  10.492  0.0121  0.2087 -0.2589
  205loPI    C2 3266   1.178   3.204  10.543 -0.1118  0.2363 -0.1171
  205loPI    C3 3267   1.447   3.411  10.755 -0.2082  0.2618 -0.0187
  205loPI   PO4 3268   1.110   3.596  10.168  0.0710  0.0732 -0.2252
  205loPI   GL1 3269   0.859   3.501   9.710  0.1401 -0.0371 -0.1082
  205loPI   GL2 3270   1.006   3.822   9.729  0.0685 -0.1840 -0.1747
  205loPI   C1A 3271   0.716   3.330   9.295  0.1623  0.0542 -0.0640
  205loPI   C2A 3272   0.643   3.276   8.910 -0.2501 -0.0859  0.2469
  205loPI   C3A 3273   0.546   3.227   8.528  0.2242  0.0251 -0.2144
  205loPI   C4A 3274   0.283   3.333   8.216 -0.0021 -0.0845  0.0674
  205loPI   C5A 3275  -0.092   3.504   7.968 -0.2667 -0.0349 -0.1378
  205loPI   C6A 3276  -0.363   3.771   7.750 -0.0225  0.2305  0.1984
  205loPI   C1B 3277   1.049   3.714   9.298 -0.2635  0.1028  0.0022
  205loPI   C2B 3278   1.051   3.671   8.920  0.0820  0.2277  0.0839
  205loPI   C3B 3279   0.877   3.570   8.441  0.0596  0.0603  0.2381
  205loPI   C4B 3280   0.745   3.408   8.091 -0.0478  0.3254  0.3261
  206loPI    C1 3281   5.751  17.054  10.370  0.3506  0.0176 -0.2601
  206loPI    C2 3282   5.728  16.874  10.014  0.0581  0.0093 -0.2398
  206loPI    C3 3283   5.537  16.719  10.329 -0.0056  0.2275 -0.1689
  206loPI   PO4 3284   5.769  17.311  10.275  0.0255 -0.0504 -0.1301
  206loPI   GL1 3285   5.819  17.449   9.790 -0.0992 -0.2815  0.0413
  206loPI   GL2 3286   5.773  17.213   9.661 -0.1110 -0.2022 -0.2451
  206loPI   C1A 3287   6.012  17.546   9.300 -0.3127  0.4095  0.1780
  206loPI   C2A 3288   6.019  17.619   8.813  0.1195 -0.3364  0.0006
  206loPI   C3A 3289   5.943  17.579   8.335  0.2293 -0.0407  0.2967
  206loPI   C4A 3290   5.708  17.490   7.963 -0.3337 -0.1568 -0.2541
  206loPI   C5A 3291   5.648  17.836   7.769 -0.1243  0.1373 -0.0749
  206loPI   C6A 3292   5.613  18.258   7.564  0.1894 -0.1306  0.0835
  206loPI   C1B 3293   5.682  17.213   9.204  0.1828  0.0886 -0.0556
  206loPI   C2B 3294   5.805  17.154   8.752 -0.0810  0.0165  0.2830
  206loPI   C3B 3295   5.874  17.069   8.315  0.3656 -0.1331  0.4576
  206loPI   C4B 3296   5.940  17.062   7.871 -0.2522  0.2172 -0.1274
  207loPI    C1 3297  15.584   3.064   9.853  0.0966  0.0304 -0.2278
  207loPI    C2 3298  15.909   3.269   9.742 -0.0124  0.2200 -0.2003
  207loPI    C3 3299  15.930   3.010  10.046  0.1617  0.0797 -0.3296
  207loPI   PO4 3300  15.493   3.031   9.605 -0.0571  0.3711  0.1597
  207loPI   GL1 3301  15.760   3.080   9.295 -0.0758  0.3123  0.0221
  207loPI   GL2 3302  15.613   3.371   9.216 -0.0460 -0.1054 -0.1643
  207loPI   C1A 3303  15.573   2.852   8.923  0.1116  0.0131 -0.0378
  207loPI   C2A 3304  15.474   2.747   8.433 -0.3215  0.0337 -0.0082
  207loPI   C3A 3305  15.435   2.733   8.019  0.1780 -0.0479 -0.2829
  207loPI   C4A 3306  15.228   3.031   7.675 -0.0723  0.0219  0.1992
  207loPI   C5A 3307  15.116   3.406   7.377 -0.1533 -0.2580 -0.1480
  207loPI   C6A 3308  15.138   3.829   7.355  0.0210  0.2995 -0.0003
  207loPI   C1B 3309  15.377   3.387   8.924 -0.0019  0.2398 -0.0944
  207loPI   C2B 3310  15.475   3.278   8.586  0.0637  0.2006 -0.1445
  207loPI   C3B 3311  15.878   3.228   8.243 -0.0265 -0.0664 -0.1916
  207loPI   C4B 3312  15.940   3.186   7.838  0.0955 -0.1523  0.2654
  208loPI    C1 3313   6.853   5.809  10.279  0.1495  0.0110  0.2723
  208loPI    C2 3314   6.558   5.651  10.498 -0.0516  0.0308  0.0201
  208loPI    C3 3315   6.809   5.915  10.663 -0.2493  0.1067  0.2044
  208loPI   PO4 3316   6.922   5.654  10.083  0.1022 -0.0747 -0.0929
  208loPI   GL1 3317   7.014   5.800   9.612 -0.1077 -0.1309 -0.1165
  208loPI   GL2 3318   6.729   5.779   9.551  0.1315  0.1833 -0.1328
  208loPI   C1A 3319   7.107   5.979   9.187 -0.1020  0.0776 -0.0905
  208loPI   C2A 3320   7.051   5.988   8.735 -0.2055 -0.2041  0.0663
  208loPI   C3A 3321   7.053   5.834   8.299  0.0075 -0.3898 -0.1434
  208loPI   C4A 3322   6.986   5.954   7.859 -0.0046 -0.0227 -0.1923
  208loPI   C5A 3323   6.517   6.034   7.705  0.1982  0.2971 -0.0794
  208loPI   C6A 3324   6.006   5.965   7.756 -0.0843  0.0412  0.0258
  208loPI   C1B 3325   6.557   6.112   9.260 -0.1567 -0.6356  0.0247
  208loPI   C2B 3326   6.549   6.134   8.805  0.2395 -0.2165 -0.0598
  208loPI   C3B 3327   6.414   6.292   8.393  0.1921 -0.0398 -0.3666
  208loPI   C4B 3328   6.229   6.290   8.093 -0.1877 -0.0199  0.3948
  209loPI    C1 3329   3.957  11.477  10.445  0.0694  0.0484  0.0145
  209loPI    C2 3330   4.190  11.242  10.669 -0.0933 -0.0298  0.1041
  209loPI    C3 3331   3.914  11.474  10.842 -0.4321 -0.3218 -0.0320
  209loPI   PO4 3332   3.927  11.351  10.219  0.0837  0.0381  0.1979
  209loPI   GL1 3333   3.670  11.463   9.886  0.0323  0.0037  0.0155
  209loPI   GL2 3334   3.447  11.311   9.839  0.0030 -0.0742 -0.0992
  209loPI   C1A 3335   3.511  11.490   9.366 -0.0120  0.4138  0.2385
  209loPI   C2A 3336   3.618  11.443   8.953 -0.0677 -0.1132 -0.1399
  209loPI   C3A 3337   3.534  11.502   8.593  0.3528  0.0646 -0.1212
  209loPI   C4A 3338   3.681  11.386   8.191  0.1171  0.2199  0.3732
  209loPI   C5A 3339   3.818  11.509   7.770  0.0597 -0.4098  0.0202
  209loPI   C6A 3340   3.667  11.817   7.461 -0.1290  0.2345  0.1008
  209loPI   C1B 3341   3.485  11.019   9.495 -0.2510 -0.2305  0.2791
  209loPI   C2B 3342   3.563  10.904   9.052  0.0492  0.0260 -0.0355
  209loPI   C3B 3343   3.580  10.914   8.548 -0.0343  0.2879  0.4271
  209loPI   C4B 3344   3.345  10.735   8.269  0.0300  0.1161 -0.1312
  210loPI    C1 3345   9.768  17.235   9.758 -0.0862 -0.0415  0.0509
  210loPI    C2 3346   9.820  17.523  10.030 -0.1061  0.1732 -0.1688
  210loPI    C3 3347   9.598  17.203  10.118 -0.2228  0.3044  0.0218
  210loPI   PO4 3348   9.997  17.258   9.629 -0.0663  0.2675  0.0583
  210loPI   GL1 3349  10.080  17.302   9.238 -0.1954 -0.0067 -0.0159
  210loPI   GL2 3350  10.315  17.434   8.980  0.1236  0.0652  0.0039
  210loPI   C1A 3351   9.914  17.011   8.916 -0.0860 -0.3222  0.0291
  210loPI   C2A 3352   9.666  16.952   8.629  0.0804 -0.2321  0.2652
  210loPI   C3A 3353   9.432  16.723   8.262  0.0197 -0.0857  0.1760
  210loPI   C4A 3354   9.185  16.549   7.864  0.0907 -0.1434 -0.0774
  210loPI   C5A 3355   8.853  16.724   7.566  0.0151 -0.0167 -0.1563
  210loPI   C6A 3356   8.817  17.141   7.631 -0.1783 -0.1778  0.1883
  210loPI   C1B 3357  10.320  17.317   8.653 -0.3259 -0.0906  0.0034
  210loPI   C2B 3358  10.289  17.387   8.274  0.0349 -0.0671  0.2946
  210loPI   C3B 3359  10.194  17.342   7.830  0.3788 -0.0493 -0.0277
  210loPI   C4B 3360   9.795  17.267   7.540 -0.2625 -0.1740 -0.1594
  211loPI    C1 3361  17.979   5.241  10.301 -0.0949  0.1461 -0.0527
  211loPI    C2 3362  18.139   5.490  10.570  0.0015 -0.1815  0.2005
  211loPI    C3 3363  17.747   5.508  10.488  0.0053  0.0430  0.2230
  211loPI   PO4 3364  18.226   5.119  10.198 -0.0822  0.1789  0.3947
  211loPI   GL1 3365  18.506   5.091   9.734  0.0266  0.2625  0.0111
  211loPI   GL2 3366  18.319   4.944   9.543  0.0881  0.0320 -0.2680
  211loPI   C1A 3367  18.830   5.079   9.487 -0.2353  0.0992  0.1097
  211loPI   C2A 3368  18.805   5.164   9.013  0.1111  0.1460 -0.3627
  211loPI   C3A 3369  18.896   5.086   8.534 -0.0162 -0.3440 -0.2901
  211loPI   C4A 3370  18.774   5.352   8.179 -0.1088 -0.1387  0.3361
  211loPI   C5A 3371  18.819   5.370   7.688  0.0340 -0.0659  0.1376
  211loPI   C6A 3372  18.767   5.069   7.231  0.0008  0.0650 -0.0382
  211loPI   C1B 3373  18.457   4.829   9.213  0.0221 -0.1091  0.1901
  211loPI   C2B 3374  18.588   4.657   8.920  0.0964 -0.0586 -0.2229
  211loPI   C3B 3375  18.595   4.649   8.473  0.5180 -0.3142 -0.1550
  211loPI   C4B 3376  18.416   4.582   8.061 -0.5325 -0.1867  0.2006
  212loPI    C1 3377   8.406   9.875  10.271 -0.2198 -0.2009  0.0835
  212loPI    C2 3378   8.364   9.536  10.063  0.0403 -0.0914 -0.1538
  212loPI    C3 3379   8.623   9.553  10.367 -0.1535 -0.1755  0.0188
  212loPI   PO4 3380   8.406  10.073  10.112 -0.3134  0.3024  0.0671
  212loPI   GL1 3381   8.177  10.311   9.798  0.1746  0.0603  0.2149
  212loPI   GL2 3382   7.862  10.284   9.525 -0.0650 -0.2673 -0.1932
  212loPI   C1A 3383   8.351  10.550   9.374 -0.0418 -0.0074 -0.0245
  212loPI   C2A 3384   8.219  10.602   8.935 -0.0052 -0.2184 -0.0992
  212loPI   C3A 3385   8.149  10.678   8.536  0.0625 -0.0980  0.0829
  212loPI   C4A 3386   8.116  10.651   8.135 -0.0260  0.0344  0.0272
  212loPI   C5A 3387   7.969  10.555   7.746  0.0355 -0.1628 -0.0444
  212loPI   C6A 3388   7.977  10.302   7.374 -0.3349 -0.1184 -0.1181
  212loPI   C1B 3389   7.809  10.385   9.060 -0.1045 -0.2565  0.2905
  212loPI   C2B 3390   7.807  10.320   8.604  0.0254 -0.0637 -0.0429
  212loPI   C3B 3391   7.812  10.279   8.208  0.0228 -0.2699 -0.1197
  212loPI   C4B 3392   7.890  10.034   7.925  0.2194 -0.1082  0.1591
  213loPI    C1 3393  15.070  18.319   9.693 -0.1832  0.3496  0.0182
  213loPI    C2 3394  14.710  18.196   9.816 -0.1555  0.0554 -0.1828
  213loPI    C3 3395  14.946  18.404  10.063 -0.3403 -0.0102  0.0530
  213loPI   PO4 3396  15.138  18.195   9.614  0.0032 -0.1614  0.1815
  213loPI   GL1 3397  15.257  18.123   9.248  0.0701  0.2416  0.3992
  213loPI   GL2 3398  15.511  17.893   9.091 -0.0897 -0.2300 -0.0010
  213loPI   C1A 3399  15.018  18.204   8.894  0.0663  0.0876  0.0503
  213loPI   C2A 3400  14.945  18.209   8.452  0.1024 -0.1053  0.3208
  213loPI   C3A 3401  14.960  18.121   8.055  0.2708  0.5466  0.0662
  213loPI   C4A 3402  14.743  18.265   7.598  0.2555  0.3021 -0.0806
  213loPI   C5A 3403  14.691  18.606   7.523 -0.2350  0.0668  0.1249
  213loPI   C6A 3404  14.437  18.970   7.371  0.2569 -0.1865 -0.0856
  213loPI   C1B 3405  15.413  17.901   8.731  0.0490  0.3031  0.2300
  213loPI   C2B 3406  15.425  17.953   8.323  0.1632 -0.0330 -0.2129
  213loPI   C3B 3407  15.486  17.737   8.139 -0.1581  0.0126 -0.1388
  213loPI   C4B 3408  15.338  17.721   7.745  0.0694 -0.3152 -0.2558
  214loPI    C1 3409  18.293  16.763   9.902 -0.0717  0.0379  0.0745
  214loPI    C2 3410  18.375  16.657  10.279  0.2008 -0.0955 -0.0193
  214loPI    C3 3411  18.669  16.675  10.008 -0.0376 -0.2949 -0.2983
  214loPI   PO4 3412  17.963  16.788  10.015 -0.1858 -0.2355  0.2003
  214loPI   GL1 3413  17.744  16.514   9.816  0.1397  0.0237  0.4821
  214loPI   GL2 3414  17.974  16.515   9.524 -0.1051 -0.1633 -0.0056
  214loPI   C1A 3415  17.475  16.474   9.457  0.1253  0.0145  0.2318
  214loPI   C2A 3416  17.466  16.431   9.045  0.3164  0.3152  0.0635
  214loPI   C3A 3417  17.377  16.595   8.571 -0.3050 -0.1283 -0.1486
  214loPI   C4A 3418  17.346  16.393   8.198 -0.1177  0.2708 -0.1974
  214loPI   C5A 3419  17.577  16.068   8.006  0.0688  0.0249 -0.1487
  214loPI   C6A 3420  17.579  15.861   7.639 -0.2574 -0.4971  0.2640
  214loPI   C1B 3421  17.891  16.576   9.112  0.2333  0.0030  0.3118
  214loPI   C2B 3422  17.878  16.630   8.757  0.0259 -0.5122 -0.4086
  214loPI   C3B 3423  18.057  16.727   8.428 -0.0977  0.0388  0.3170
  214loPI   C4B 3424  18.047  17.009   8.002 -0.0465  0.1717 -0.0460
  215loPI    C1 3425  10.243  14.423   9.626  0.1818 -0.0079  0.2383
  215loPI    C2 3426   9.967  14.617   9.412  0.2810 -0.0733  0.0490
  215loPI    C3 3427  10.069  14.751   9.775  0.0901  0.0211  0.0691
  215loPI   PO4 3428  10.373  14.311   9.485  0.2391  0.2336 -0.0261
  215loPI   GL1 3429  10.305  13.945   9.233 -0.1315 -0.3102 -0.1747
  215loPI   GL2 3430  10.213  13.631   9.233 -0.0690 -0.1123  0.3350
  215loPI   C1A 3431  10.451  14.127   8.784 -0.0252  0.0615  0.0682
  215loPI   C2A 3432  10.446  14.073   8.370 -0.1739 -0.4845 -0.1102
  215loPI   C3A 3433  10.431  14.031   7.937  0.1829 -0.1672  0.5215
  215loPI   C4A 3434  10.685  14.085   7.603 -0.0778 -0.1417 -0.1226
  215loPI   C5A 3435  10.751  13.821   7.213  0.1041 -0.0048  0.1998
  215loPI   C6A 3436  11.058  13.779   6.918  0.1360  0.0656  0.0747
  215loPI   C1B 3437  10.135  13.453   8.868 -0.3164  0.2564 -0.2844
  215loPI   C2B 3438   9.976  13.656   8.427  0.2269  0.0320 -0.0426
  215loPI   C3B 3439   9.741  13.664   7.983  0.0273 -0.1375 -0.0375
  215loPI   C4B 3440   9.792  13.531   7.622  0.1781  0.0657 -0.1917
  216loPI    C1 3441   3.637   8.773  10.307  0.0867  0.1255 -0.2194
  216loPI    C2 3442   3.286   8.758  10.499 -0.0941 -0.0779 -0.5571
  216loPI    C3 3443   3.413   9.102  10.340  0.0526  0.0900 -0.0914
  216loPI   PO4 3444   3.724   8.518  10.135 -0.0415  0.4241 -0.0539
  216loPI   GL1 3445   3.880   8.555   9.804 -0.0920  0.0253 -0.1705
  216loPI   GL2 3446   4.061   8.865   9.682 -0.0660  0.1190 -0.3919
  216loPI   C1A 3447   3.933   8.477   9.326 -0.0352 -0.4080  0.1310
  216loPI   C2A 3448   3.901   8.665   8.941  0.0374 -0.1078  0.2958
  216loPI   C3A 3449   3.922   8.640   8.523  0.2903  0.4483  0.1518
  216loPI   C4A 3450   3.947   8.513   8.111 -0.1349  0.0122  0.1194
  216loPI   C5A 3451   3.864   8.402   7.608 -0.0515 -0.1338  0.1096
  216loPI   C6A 3452   3.749   8.321   7.169 -0.0720 -0.2346  0.1166
  216loPI   C1B 3453   4.351   8.875   9.351  0.0495 -0.1416 -0.2689
  216loPI   C2B 3454   4.280   8.980   8.908 -0.3797 -0.3533  0.1939
  216loPI   C3B 3455   4.133   9.099   8.508 -0.1460  0.0589  0.1958
  216loPI   C4B 3456   4.113   9.020   8.067 -0.0619 -0.4528 -0.1143
  217loPI    C1 3457  13.679   8.596   9.966 -0.0665 -0.0072  0.0426
  217loPI    C2 3458  13.335   8.661   9.772 -0.1720  0.0313  0.2398
  217loPI    C3 3459  13.364   8.359  10.033 -0.0436  0.0052  0.1964
  217loPI   PO4 3460  13.812   8.692   9.836  0.1791  0.0718  0.3007
  217loPI   GL1 3461  13.940   9.035   9.544  0.1665 -0.0658 -0.0900
  217loPI   GL2 3462  13.841   9.380   9.484  0.0180 -0.0937 -0.2886
  217loPI   C1A 3463  14.292   9.284   9.251 -0.0020  0.0624  0.1738
  217loPI   C2A 3464  14.334   9.542   8.910 -0.3654 -0.0595 -0.1681
  217loPI   C3A 3465  14.365   9.581   8.454  0.1375 -0.1286 -0.0408
  217loPI   C4A 3466  14.660   9.282   8.198 -0.2590  0.1048 -0.2899
  217loPI   C5A 3467  15.016   9.412   7.932  0.5347 -0.0164  0.1572
  217loPI   C6A 3468  15.299   9.571   7.657  0.1841  0.3769 -0.2245
  217loPI   C1B 3469  13.797   9.292   9.029 -0.1655 -0.2884 -0.3198
  217loPI   C2B 3470  13.787   9.475   8.546 -0.1239 -0.1338 -0.1285
  217loPI   C3B 3471  13.610   9.434   8.098  0.0363 -0.2656  0.1458
  217loPI   C4B 3472  13.244   9.166   7.895  0.1957  0.0741 -0.0465
  218loPI    C1 3473   2.184   3.253  10.292  0.2074 -0.2526 -0.2829
  218loPI    C2 3474   2.555   3.119  10.364  0.1830 -0.0618  0.2346
  218loPI    C3 3475   2.245   2.974  10.572 -0.0340 -0.1902 -0.1660
  218loPI   PO4 3476   2.235   3.319   9.992 -0.1369  0.0052 -0.0267
  218loPI   GL1 3477   2.433   3.372   9.633 -0.3679  0.0890  0.2708
  218loPI   GL2 3478   2.669   3.513   9.795  0.0618  0.0605 -0.2362
  218loPI   C1A 3479   2.301   3.348   9.283 -0.3039  0.1712  0.0634
  218loPI   C2A 3480   2.408   3.183   8.938  0.1617  0.2042 -0.0533
  218loPI   C3A 3481   2.668   3.157   8.648  0.4946 -0.1951 -0.3817
  218loPI   C4A 3482   2.620   3.204   8.162  0.1471 -0.4393 -0.1800
  218loPI   C5A 3483   2.654   3.527   7.762 -0.1098 -0.0817 -0.1984
  218loPI   C6A 3484   2.759   3.517   7.308 -0.0927  0.3226 -0.0702
  218loPI   C1B 3485   2.948   3.363   9.489  0.0804  0.0861  0.1004
  218loPI   C2B 3486   2.823   3.464   9.080  0.0706 -0.0835 -0.1754
  218loPI   C3B 3487   3.007   3.659   8.757  0.0563 -0.0674 -0.3878
  218loPI   C4B 3488   3.277   3.644   8.354 -0.4946 -0.3233  0.1751
  219loPI    C1 3489   9.889  11.651   9.932 -0.1415  0.0856 -0.1381
  219loPI    C2 3490   9.811  12.026  10.048  0.0634 -0.0661  0.5333
  219loPI    C3 3491   9.724  11.720  10.290 -0.1306 -0.4631 -0.0198
  219loPI   PO4 3492  10.086  11.679   9.810  0.0285 -0.0590  0.1032
  219loPI   GL1 3493  10.329  11.779   9.475 -0.2465 -0.1461 -0.1592
  219loPI   GL2 3494  10.748  11.775   9.543  0.0971  0.3161 -0.1051
  219loPI   C1A 3495  10.202  11.693   9.063 -0.1324  0.3968 -0.1335
  219loPI   C2A 3496  10.220  11.614   8.641 -0.0736  0.0841  0.0795
  219loPI   C3A 3497  10.389  11.612   8.164 -0.2265 -0.1085 -0.1862
  219loPI   C4A 3498  10.437  11.555   7.725 -0.0593 -0.2609  0.3104
  219loPI   C5A 3499  10.308  11.655   7.294  0.0046 -0.0458  0.2815
  219loPI   C6A 3500  10.225  11.413   6.980  0.0969  0.0353 -0.0707
  219loPI   C1B 3501  10.617  11.481   9.207  0.0284 -0.0263 -0.0583
  219loPI   C2B 3502  10.473  11.257   8.884 -0.0345 -0.0756  0.0180
  219loPI   C3B 3503  10.284  11.085   8.503 -0.0670  0.0157 -0.1350
  219loPI   C4B 3504  10.071  11.166   8.134  0.0096 -0.0607 -0.3473
  220loPI    C1 3505   2.501  12.044  10.261  0.0115 -0.1276  0.2245
  220loPI    C2 3506   2.388  12.231  10.596  0.0236 -0.0559  0.1889
  220loPI    C3 3507   2.747  12.054  10.576 -0.0094 -0.1292  0.2408
  220loPI   PO4 3508   2.484  12.193   9.995  0.1744 -0.4400  0.5942
  220loPI   GL1 3509   2.737  12.046   9.667  0.1792 -0.0199 -0.2287
  220loPI   GL2 3510   2.713  12.359   9.530  0.0981  0.2611 -0.0677
  220loPI   C1A 3511   2.628  11.767   9.313 -0.1925 -0.0465  0.0715
  220loPI   C2A 3512   2.583  11.797   8.962  0.4138 -0.1774  0.2970
  220loPI   C3A 3513   2.517  12.064   8.568  0.1134  0.2672 -0.1561
  220loPI   C4A 3514   2.770  12.031   8.276  0.2612 -0.3667 -0.2192
  220loPI   C5A 3515   2.977  11.978   7.878  0.0912  0.0272 -0.1491
  220loPI   C6A 3516   3.352  11.611   7.834 -0.2161 -0.1201 -0.0639
  220loPI   C1B 3517   2.767  12.240   9.064 -0.3693 -0.2347  0.4131
  220loPI   C2B 3518   2.594  12.504   8.643  0.0441 -0.3216  0.2610
  220loPI   C3B 3519   2.461  12.399   8.251  0.1960 -0.3723  0.0126
  220loPI   C4B 3520   2.374  12.172   7.865  0.1497 -0.1740 -0.2371
  221loPI    C1 3521  18.476   0.213  10.256 -0.2054 -0.1585  0.2514
  221loPI    C2 3522  18.426   0.518  10.511 -0.0872  0.0064  0.0804
  221loPI    C3 3523  18.787   0.351  10.467 -0.1720 -0.2259  0.2467
  221loPI   PO4 3524  18.464   0.296  10.040 -0.2468 -0.0727 -0.2945
  221loPI   GL1 3525  18.422   0.315   9.693 -0.2647 -0.2300 -0.0294
  221loPI   GL2 3526  18.142   0.092   9.718 -0.3457 -0.1984  0.0946
  221loPI   C1A 3527  18.444   0.058   9.328 -0.1833  0.1530 -0.1433
  221loPI   C2A 3528  18.665  -0.031   8.955 -0.0656  0.1504 -0.1846
  221loPI   C3A 3529  18.686   0.032   8.462 -0.3273 -0.0344 -0.0119
  221loPI   C4A 3530  18.508  -0.044   7.963  0.0045  0.0287 -0.0592
  221loPI   C5A 3531  18.222  -0.290   7.743  0.2071 -0.0444 -0.0132
  221loPI   C6A 3532  18.111  -0.537   7.435  0.0244  0.2595 -0.2128
  221loPI   C1B 3533  17.970  -0.030   9.394  0.2654  0.1488  0.1434
  221loPI   C2B 3534  18.115  -0.187   9.004  0.3437 -0.0960  0.0254
  221loPI   C3B 3535  18.222  -0.159   8.631  0.0852 -0.0065 -0.1506
  221loPI   C4B 3536  18.394  -0.402   8.314  0.2764  0.1292 -0.0192
  222loPI    C1 3537   7.479  11.100  10.686  0.0036 -0.1467  0.0954
  222loPI    C2 3538   7.828  10.916  10.753 -0.0825 -0.2836  0.1733
  222loPI    C3 3539   7.803  11.314  10.783  0.0312 -0.2868  0.3214
  222loPI   PO4 3540   7.322  11.049  10.398  0.2774 -0.1326 -0.1732
  222loPI   GL1 3541   7.349  11.071   9.925  0.2579  0.0012  0.1199
  222loPI   GL2 3542   7.457  11.001   9.597  0.2179 -0.0602  0.0799
  222loPI   C1A 3543   6.964  10.990   9.590 -0.0869  0.0102 -0.0189
  222loPI   C2A 3544   6.872  11.058   9.272  0.0326  0.0135 -0.3859
  222loPI   C3A 3545   6.679  11.101   8.791 -0.0689  0.0457  0.1647
  222loPI   C4A 3546   6.570  11.057   8.379  0.0170  0.1456  0.1307
  222loPI   C5A 3547   6.447  11.081   8.016 -0.0350  0.0411 -0.1550
  222loPI   C6A 3548   6.087  11.119   7.818  0.3595 -0.1761 -0.2832
  222loPI   C1B 3549   7.483  11.264   9.143 -0.3682  0.0872 -0.2616
  222loPI   C2B 3550   7.371  11.240   8.729 -0.1492  0.0813 -0.0673
  222loPI   C3B 3551   7.301  11.334   8.207 -0.0666  0.1169 -0.2690
  222loPI   C4B 3552   7.276  11.624   8.021  0.0002 -0.0817 -0.2715
  223loPI    C1 3553   6.494  12.629  10.469  0.1073  0.0398  0.1800
  223loPI    C2 3554   6.124  12.711  10.596  0.0207 -0.1372  0.0470
  223loPI    C3 3555   6.295  12.362  10.691  0.1189 -0.0934  0.0324
  223loPI   PO4 3556   6.463  12.539  10.187 -0.1900  0.1770 -0.0716
  223loPI   GL1 3557   6.656  12.247   9.886  0.0137 -0.4015 -0.0055
  223loPI   GL2 3558   6.740  11.931  10.056  0.0889 -0.4669 -0.0302
  223loPI   C1A 3559   6.700  12.061   9.502  0.0746  0.1175  0.0757
  223loPI   C2A 3560   6.615  12.135   9.018 -0.1502  0.0041 -0.0881
  223loPI   C3A 3561   6.717  12.255   8.595  0.1260 -0.4103  0.1877
  223loPI   C4A 3562   6.649  12.086   8.194  0.2073  0.1715 -0.2561
  223loPI   C5A 3563   6.367  11.947   8.044 -0.0640 -0.1968  0.0075
  223loPI   C6A 3564   6.285  11.594   7.908  0.1906 -0.1926  0.2242
  223loPI   C1B 3565   6.718  11.581   9.796  0.1581  0.1050 -0.3452
  223loPI   C2B 3566   6.540  11.428   9.460  0.2325 -0.1650  0.3789
  223loPI   C3B 3567   6.489  11.569   9.021 -0.2495 -0.2358  0.0430
  223loPI   C4B 3568   6.106  11.514   8.908  0.1117 -0.1350 -0.4274
  224loPI    C1 3569  17.484   1.272  10.253  0.1106  0.1228 -0.0024
  224loPI    C2 3570  17.267   1.301  10.587 -0.0678 -0.0357 -0.1022
  224loPI    C3 3571  17.467   0.963  10.507  0.1658  0.0862 -0.0427
  224loPI   PO4 3572  17.688   1.501  10.204  0.5047 -0.1994 -0.2785
  224loPI   GL1 3573  17.652   1.769   9.918  0.2542  0.1429 -0.0199
  224loPI   GL2 3574  17.341   1.611   9.766  0.1922  0.0530 -0.1606
  224loPI   C1A 3575  17.795   1.852   9.533 -0.3298  0.1504  0.0967
  224loPI   C2A 3576  17.787   1.841   8.966  0.1289 -0.2694 -0.2349
  224loPI   C3A 3577  17.703   1.911   8.522 -0.3532 -0.1762 -0.3531
  224loPI   C4A 3578  17.722   2.007   8.132 -0.2174 -0.2078 -0.0871
  224loPI   C5A 3579  17.830   1.714   7.926 -0.1307 -0.3987  0.0127
  224loPI   C6A 3580  18.305   1.580   7.902  0.0725  0.0201  0.1465
  224loPI   C1B 3581  17.356   1.442   9.319  0.1412  0.2561  0.3265
  224loPI   C2B 3582  17.399   1.261   8.889 -0.0043 -0.2266  0.0739
  224loPI   C3B 3583  17.294   1.122   8.445  0.0066 -0.0997  0.1541
  224loPI   C4B 3584  17.199   1.089   7.992 -0.1967  0.1453 -0.1110
  225loPI    C1 3585  18.917   9.338   9.883  0.1164  0.2513  0.1610
  225loPI    C2 3586  18.908   9.044  10.154 -0.0394 -0.0247 -0.1373
  225loPI    C3 3587  18.570   9.231  10.050  0.0144  0.0559 -0.1685
  225loPI   PO4 3588  19.013   9.232   9.657  0.0707  0.0301 -0.0496
  225loPI   GL1 3589  18.773   9.390   9.155  0.0937  0.0762  0.0815
  225loPI   GL2 3590  18.497   9.261   9.123  0.1228 -0.0330  0.1431
  225loPI   C1A 3591  19.066   9.106   9.006 -0.0532 -0.0658 -0.3492
  225loPI   C2A 3592  19.319   8.767   8.849  0.1057 -0.0887 -0.2724
  225loPI   C3A 3593  19.581   8.692   8.504  0.6289 -0.0924  0.0063
  225loPI   C4A 3594  19.987   8.827   8.325  0.0681 -0.1092  0.0261
  225loPI   C5A 3595  20.274   8.976   7.999  0.1103 -0.0459  0.0599
  225loPI   C6A 3596  20.446   9.246   7.630  0.0721 -0.1801  0.1218
  225loPI   C1B 3597  18.552   9.368   8.670  0.0534 -0.2750  0.3374
  225loPI   C2B 3598  18.940   9.424   8.528 -0.2331  0.1096  0.0212
  225loPI   C3B 3599  19.217   9.199   8.522 -0.2838  0.0407  0.0533
  225loPI   C4B 3600  19.662   9.142   8.535  0.1731 -0.5624  0.1477
  226loPI    C1 3601   8.126  11.807  10.176 -0.2600  0.1095  0.2540
  226loPI    C2 3602   8.399  11.740  10.461 -0.0194 -0.1262 -0.0246
  226loPI    C3 3603   8.012  11.672  10.535  0.0161  0.0122  0.3083
  226loPI   PO4 3604   8.156  11.755   9.927 -0.3002 -0.2416 -0.0264
  226loPI   GL1 3605   7.931  11.759   9.495 -0.1461  0.0295  0.0526
  226loPI   GL2 3606   7.617  11.722   9.502 -0.3913  0.2510  0.0051
  226loPI   C1A 3607   7.954  11.822   8.952 -0.1308  0.2036 -0.1362
  226loPI   C2A 3608   8.100  11.975   8.518 -0.0848 -0.2478 -0.1482
  226loPI   C3A 3609   8.177  12.149   8.056  0.0918  0.1746 -0.3262
  226loPI   C4A 3610   8.462  12.094   7.764 -0.3260 -0.0998 -0.0442
  226loPI   C5A 3611   8.780  12.361   7.403 -0.1857 -0.1678 -0.2268
  226loPI   C6A 3612   9.018  12.555   7.153 -0.2026  0.0602 -0.2646
  226loPI   C1B 3613   7.438  11.831   9.038 -0.0086 -0.0200  0.0230
  226loPI   C2B 3614   7.545  11.760   8.675  0.0392  0.2349  0.2859
  226loPI   C3B 3615   7.740  11.689   8.382 -0.1575 -0.1922  0.1664
  226loPI   C4B 3616   7.739  11.583   7.886  0.0397 -0.0196  0.1810
  227loPI    C1 3617  13.864   3.098   9.927  0.0580  0.0885 -0.0314
  227loPI    C2 3618  13.685   3.456   9.926  0.1178  0.1197  0.1586
  227loPI    C3 3619  13.599   3.189  10.212 -0.0654 -0.0904 -0.0875
  227loPI   PO4 3620  13.934   3.070   9.729  0.1713 -0.0516  0.2599
  227loPI   GL1 3621  14.300   3.058   9.458  0.4037 -0.2012 -0.0280
  227loPI   GL2 3622  14.601   2.851   9.378 -0.0307  0.0779  0.3215
  227loPI   C1A 3623  14.064   3.021   9.060  0.0457 -0.2574 -0.0437
  227loPI   C2A 3624  13.963   3.002   8.536 -0.0132 -0.0108  0.1836
  227loPI   C3A 3625  13.972   2.947   8.112  0.0438 -0.0310 -0.0406
  227loPI   C4A 3626  14.019   2.921   7.699 -0.1106 -0.6660 -0.1085
  227loPI   C5A 3627  14.268   2.922   7.337 -0.2757 -0.1070  0.1115
  227loPI   C6A 3628  14.494   2.598   7.213 -0.0474  0.0603  0.0409
  227loPI   C1B 3629  14.547   2.732   9.002  0.0567 -0.2981 -0.0007
  227loPI   C2B 3630  14.453   2.779   8.601  0.2015 -0.1679 -0.3345
  227loPI   C3B 3631  14.393   2.695   8.180 -0.1086  0.1649 -0.4097
  227loPI   C4B 3632  14.408   2.604   7.762  0.2016  0.0322  0.1139
  228loPI    C1 3633   0.111  15.547  10.308  0.0995  0.1814  0.1501
  228loPI    C2 3634   0.008  15.597  10.692  0.1127  0.1590  0.1566
  228loPI    C3 3635   0.255  15.299  10.587 -0.0856  0.0128  0.0984
  228loPI   PO4 3636  -0.077  15.486  10.169  0.1796  0.0571 -0.1289
  228loPI   GL1 3637  -0.130  15.429   9.754  0.0674 -0.0631  0.0866
  228loPI   GL2 3638   0.171  15.447   9.627 -0.1942 -0.0205  0.0680
  228loPI   C1A 3639  -0.168  15.636   9.317 -0.3244  0.0193 -0.2670
  228loPI   C2A 3640   0.000  15.716   8.913  0.2154  0.0048  0.0956
  228loPI   C3A 3641   0.085  15.912   8.567  0.0281 -0.1241  0.1036
  228loPI   C4A 3642  -0.030  15.760   8.156 -0.3528  0.0964 -0.0407
  228loPI   C5A 3643  -0.337  15.878   7.871  0.3397  0.0609 -0.0882
  228loPI   C6A 3644  -0.565  16.136   7.545  0.2346  0.1670 -0.0867
  228loPI   C1B 3645   0.388  15.555   9.230  0.2646  0.0373 -0.0692
  228loPI   C2B 3646   0.505  15.762   8.839  0.1369 -0.0474 -0.1934
  228loPI   C3B 3647   0.684  15.837   8.504  0.0121  0.1787 -0.1233
  228loPI   C4B 3648   0.481  15.870   8.112  0.1733 -0.1415  0.2642
  229loPI    C1 3649   3.017   5.734  10.321  0.0868  0.0200  0.1691
  229loPI    C2 3650   3.062   6.109  10.453 -0.1775  0.0564  0.1609
  229loPI    C3 3651   3.079   5.802  10.710 -0.0092  0.0768  0.1748
  229loPI   PO4 3652   2.868   5.728  10.173  0.0824 -0.0336  0.1648
  229loPI   GL1 3653   2.842   5.750   9.770 -0.2062  0.2965  0.0707
  229loPI   GL2 3654   2.633   5.880   9.750 -0.0327  0.0118 -0.2172
  229loPI   C1A 3655   2.658   5.493   9.444  0.1084 -0.2335  0.1179
  229loPI   C2A 3656   2.424   5.461   8.982 -0.1228 -0.0567 -0.0072
  229loPI   C3A 3657   2.246   5.256   8.596 -0.0599  0.2502  0.1171
  229loPI   C4A 3658   2.105   5.361   8.182  0.1341  0.0375 -0.3842
  229loPI   C5A 3659   1.713   5.431   7.974  0.0954 -0.0570 -0.2121
  229loPI   C6A 3660   1.564   5.395   7.560  0.0653  0.1614 -0.1647
  229loPI   C1B 3661   2.711   5.971   9.227 -0.0403  0.1610 -0.2023
  229loPI   C2B 3662   2.470   6.116   8.898  0.1059 -0.0028  0.1072
  229loPI   C3B 3663   2.456   6.213   8.478  0.1451 -0.2529  0.3836
  229loPI   C4B 3664   2.496   6.295   8.087 -0.0666  0.2758  0.0377
  230loPI    C1 3665  12.097  12.630   9.349 -0.1196 -0.1944  0.0072
  230loPI    C2 3666  11.874  12.822   9.621  0.1597  0.0362  0.0784
  230loPI    C3 3667  11.945  12.991   9.265  0.1424 -0.0785  0.0201
  230loPI   PO4 3668  12.338  12.591   9.454  0.0511  0.1900  0.0028
  230loPI   GL1 3669  12.594  12.395   9.184 -0.2754  0.1260 -0.0727
  230loPI   GL2 3670  12.904  12.372   9.430  0.1844 -0.2023  0.0322
  230loPI   C1A 3671  12.811  12.141   8.798  0.1644  0.3828 -0.0650
  230loPI   C2A 3672  12.680  11.937   8.474 -0.1631  0.0804 -0.1554
  230loPI   C3A 3673  12.245  11.849   8.350 -0.0349  0.1183  0.3078
  230loPI   C4A 3674  12.002  12.175   8.094 -0.1194 -0.1921 -0.1296
  230loPI   C5A 3675  11.568  12.128   7.863  0.1958 -0.4794 -0.0705
  230loPI   C6A 3676  11.355  11.897   7.676 -0.0785  0.2030 -0.0715
  230loPI   C1B 3677  13.218  12.272   9.060 -0.1274  0.1422  0.0553
  230loPI   C2B 3678  13.210  12.297   8.586 -0.0592 -0.0448 -0.0779
  230loPI   C3B 3679  13.280  12.498   8.175 -0.1151  0.4740  0.2946
  230loPI   C4B 3680  13.363  12.917   7.999 -0.1145  0.3293 -0.2182
  231loPI    C1 3681   3.342   0.259  10.453 -0.1405  0.0064 -0.2182
  231loPI    C2 3682   2.953   0.315  10.528 -0.0703  0.1663  0.0420
  231loPI    C3 3683   3.173   0.086  10.771 -0.0406 -0.0798 -0.2114
  231loPI   PO4 3684   3.329   0.500  10.277 -0.1209  0.2246  0.3853
  231loPI   GL1 3685   3.306   0.509   9.825 -0.3170  0.0003 -0.2107
  231loPI   GL2 3686   2.992   0.456   9.652 -0.1083 -0.0091  0.2630
  231loPI   C1A 3687   3.391   0.859   9.565  0.1440  0.2058 -0.1563
  231loPI   C2A 3688   3.442   0.774   9.146 -0.1959 -0.0646 -0.0399
  231loPI   C3A 3689   3.478   0.809   8.741 -0.1973 -0.0244 -0.1113
  231loPI   C4A 3690   3.297   0.860   8.316  0.3847 -0.0492 -0.0638
  231loPI   C5A 3691   3.061   1.120   7.964 -0.4198 -0.3861 -0.3218
  231loPI   C6A 3692   3.117   1.568   7.952 -0.1282  0.2370  0.2279
  231loPI   C1B 3693   2.966   0.572   9.176  0.0943  0.1349 -0.2094
  231loPI   C2B 3694   3.038   0.541   8.728  0.2591 -0.0865 -0.1134
  231loPI   C3B 3695   2.805   0.646   8.442  0.1920 -0.0557  0.2781
  231loPI   C4B 3696   2.778   0.754   8.014  0.0447 -0.0926  0.1260
  232loPI    C1 3697  15.700   0.580  10.109  0.0893 -0.0154 -0.0610
  232loPI    C2 3698  15.374   0.517  10.332  0.1145  0.2024  0.0397
  232loPI    C3 3699  15.727   0.374  10.451  0.0573 -0.0367 -0.0713
  232loPI   PO4 3700  15.633   0.730   9.884 -0.0568 -0.0096  0.3171
  232loPI   GL1 3701  15.781   0.845   9.432  0.0274 -0.1822  0.1073
  232loPI   GL2 3702  16.112   0.880   9.547 -0.0366  0.1987  0.1038
  232loPI   C1A 3703  15.830   0.946   9.022  0.1590  0.0979  0.1096
  232loPI   C2A 3704  15.836   0.847   8.586  0.0466  0.2322 -0.1426
  232loPI   C3A 3705  15.925   0.840   8.140 -0.0065  0.0254 -0.1038
  232loPI   C4A 3706  16.035   0.853   7.762  0.1730  0.0150 -0.1996
  232loPI   C5A 3707  16.336   1.106   7.642  0.0932 -0.0451 -0.0017
  232loPI   C6A 3708  16.744   1.136   7.842  0.0469 -0.0369  0.0781
  232loPI   C1B 3709  16.233   0.538   9.183  0.1483 -0.1419  0.0197
  232loPI   C2B 3710  16.238   0.593   8.804  0.1503  0.0446 -0.2363
  232loPI   C3B 3711  16.258   0.540   8.378 -0.1193 -0.0554 -0.0058
  232loPI   C4B 3712  16.124   0.385   7.941 -0.1074 -0.2185  0.2504
  233loPI    C1 3713   1.766   9.267  10.263 -0.0068  0.0750 -0.0060
  233loPI    C2 3714   1.596   8.908  10.307 -0.0301  0.0543 -0.2517
  233loPI    C3 3715   1.415   9.234  10.450 -0.0309 -0.0256 -0.0682
  233loPI   PO4 3716   2.042   9.181  10.200 -0.0183  0.0786 -0.0576
  233loPI   GL1 3717   2.246   9.149   9.718 -0.2767 -0.0116  0.1779
  233loPI   GL2 3718   2.222   8.812   9.522 -0.2101  0.0437  0.0747
  233loPI   C1A 3719   2.085   9.296   9.312 -0.0984 -0.0557 -0.0252
  233loPI   C2A 3720   2.096   9.526   8.970 -0.1503  0.1404  0.1792
  233loPI   C3A 3721   2.287   9.474   8.621 -0.0606  0.1414  0.5002
  233loPI   C4A 3722   2.548   9.728   8.342 -0.1113  0.4021  0.1489
  233loPI   C5A 3723   2.743  10.091   8.076  0.2626 -0.3400 -0.0884
  233loPI   C6A 3724   2.919  10.353   7.739 -0.1445  0.0123  0.4671
  233loPI   C1B 3725   2.391   8.581   9.064 -0.0509 -0.1362 -0.0311
  233loPI   C2B 3726   2.290   8.388   8.660 -0.1091 -0.0626 -0.0730
  233loPI   C3B 3727   1.917   8.449   8.227 -0.2521  0.1891  0.2945
  233loPI   C4B 3728   1.822   8.818   7.914 -0.0709  0.0404 -0.0537
  234loPI    C1 3729   1.134  14.722  10.143 -0.1492  0.0031 -0.0451
  234loPI    C2 3730   1.175  14.947  10.472 -0.0941 -0.0938  0.0148
  234loPI    C3 3731   1.096  14.556  10.505  0.1035 -0.1433 -0.0837
  234loPI   PO4 3732   1.333  14.815  10.035  0.2571 -0.0794 -0.1547
  234loPI   GL1 3733   1.420  14.826   9.589 -0.1500 -0.2423 -0.0809
  234loPI   GL2 3734   1.660  14.984   9.366 -0.4967  0.0688 -0.2037
  234loPI   C1A 3735   1.122  14.844   9.331 -0.1219  0.1216  0.2988
  234loPI   C2A 3736   1.067  14.945   8.861 -0.1614 -0.0799  0.0394
  234loPI   C3A 3737   0.999  14.916   8.533 -0.1672 -0.1712 -0.1024
  234loPI   C4A 3738   0.949  14.857   8.135 -0.0919  0.0397  0.3426
  234loPI   C5A 3739   0.878  14.637   7.800  0.0094 -0.0566 -0.1390
  234loPI   C6A 3740   0.972  14.645   7.343  0.0640  0.1852  0.1822
  234loPI   C1B 3741   1.560  14.973   8.954  0.2041 -0.0979  0.2031
  234loPI   C2B 3742   1.492  14.899   8.616  0.1362  0.1625 -0.0735
  234loPI   C3B 3743   1.555  14.888   8.150  0.2147 -0.1110  0.0825
  234loPI   C4B 3744   1.635  15.217   7.853 -0.0950  0.1991 -0.0491
  235loPI    C1 3745  13.124   2.972  10.171  0.1492  0.0192  0.0359
  235loPI    C2 3746  12.873   3.122  10.444  0.1400  0.1768 -0.0580
  235loPI    C3 3747  13.257   3.061  10.538  0.1304  0.2038 -0.0007
  235loPI   PO4 3748  12.933   3.040   9.943  0.1923  0.0073  0.2748
  235loPI   GL1 3749  12.901   3.263   9.510  0.1570 -0.0145 -0.2496
  235loPI   GL2 3750  13.025   3.448   9.602  0.2493 -0.0127 -0.0536
  235loPI   C1A 3751  13.066   3.104   9.123  0.0042  0.0153  0.2564
  235loPI   C2A 3752  13.198   2.998   8.694 -0.3491 -0.0013 -0.1166
  235loPI   C3A 3753  13.141   2.936   8.260 -0.0264 -0.0641 -0.0671
  235loPI   C4A 3754  13.114   2.807   7.865 -0.0164 -0.4069  0.1450
  235loPI   C5A 3755  13.300   2.810   7.484  0.0718 -0.1210  0.0796
  235loPI   C6A 3756  13.722   2.878   7.320  0.2545 -0.1339  0.3517
  235loPI   C1B 3757  13.074   3.647   9.226 -0.1770  0.2371  0.0581
  235loPI   C2B 3758  13.151   3.532   8.809 -0.1160  0.1217  0.2515
  235loPI   C3B 3759  13.097   3.546   8.384  0.0908  0.0748  0.1937
  235loPI   C4B 3760  13.124   3.414   7.984 -0.0187  0.1081 -0.2292
  236loPI    C1 3761   2.800   7.647   9.873 -0.2617 -0.2074 -0.0309
  236loPI    C2 3762   2.678   7.951  10.103  0.2848 -0.0346  0.0450
  236loPI    C3 3763   2.783   7.603  10.270 -0.2692 -0.2515 -0.0360
  236loPI   PO4 3764   2.679   7.680   9.676 -0.0139  0.1195  0.1183
  236loPI   GL1 3765   2.910   7.883   9.237  0.0610  0.1356 -0.0834
  236loPI   GL2 3766   2.979   7.514   9.161 -0.0748  0.1545 -0.2832
  236loPI   C1A 3767   3.077   7.852   8.853  0.2468 -0.2102 -0.0414
  236loPI   C2A 3768   3.363   7.879   8.436 -0.0896  0.0346 -0.3970
  236loPI   C3A 3769   3.164   7.812   8.041 -0.0603 -0.1894  0.2020
  236loPI   C4A 3770   2.899   8.044   7.682 -0.0500 -0.4478  0.4039
  236loPI   C5A 3771   2.655   8.286   7.317  0.1859  0.1162 -0.1133
  236loPI   C6A 3772   2.284   8.612   7.186  0.2680 -0.0691  0.3101
  236loPI   C1B 3773   2.970   7.408   8.644 -0.0475 -0.1680 -0.0902
  236loPI   C2B 3774   2.708   7.281   8.255 -0.3159 -0.2480 -0.2550
  236loPI   C3B 3775   2.574   7.038   8.030 -0.0770 -0.1784  0.0441
  236loPI   C4B 3776   2.651   6.753   7.545  0.2305 -0.0051 -0.1194
  237loPI    C1 3777   1.244   7.878   9.994 -0.0279  0.0386  0.0778
  237loPI    C2 3778   1.344   7.509  10.111 -0.0628 -0.0722 -0.2327
  237loPI    C3 3779   1.026   7.689  10.271  0.0317 -0.1227  0.0162
  237loPI   PO4 3780   1.236   7.896   9.779  0.1951  0.6062 -0.0742
  237loPI   GL1 3781   1.081   7.905   9.409  0.2553 -0.1038  0.0503
  237loPI   GL2 3782   1.242   7.924   9.166  0.3172  0.0862  0.1315
  237loPI   C1A 3783   0.751   7.868   9.062 -0.0498 -0.1907 -0.2231
  237loPI   C2A 3784   0.774   8.237   8.624  0.3052  0.2296 -0.0754
  237loPI   C3A 3785   0.804   8.399   8.177  0.1614  0.0819  0.0870
  237loPI   C4A 3786   0.874   8.605   7.876 -0.0936  0.1710 -0.3620
  237loPI   C5A 3787   0.540   8.760   7.684 -0.2913 -0.0094 -0.2596
  237loPI   C6A 3788   0.601   9.055   7.337 -0.3475  0.0051 -0.1254
  237loPI   C1B 3789   1.237   7.891   8.765 -0.3122 -0.0621 -0.1585
  237loPI   C2B 3790   1.142   7.943   8.321 -0.1326  0.2736  0.0433
  237loPI   C3B 3791   1.218   8.036   7.940  0.1319  0.2706 -0.0709
  237loPI   C4B 3792   1.011   8.176   7.593 -0.0638 -0.0597 -0.5375
  238loPI    C1 3793  13.813  10.389   9.793 -0.1072  0.1394  0.0142
  238loPI    C2 3794  14.051  10.093   9.919 -0.2117 -0.0210 -0.1606
  238loPI    C3 3795  13.912  10.362  10.180  0.2143  0.1156 -0.0664
  238loPI   PO4 3796  13.641  10.219   9.628 -0.0174 -0.0853  0.2015
  238loPI   GL1 3797  13.292  10.197   9.283  0.2842  0.0335  0.3157
  238loPI   GL2 3798  13.069  10.391   9.154  0.0027 -0.0584 -0.2179
  238loPI   C1A 3799  13.583  10.300   8.978  0.0416 -0.2509 -0.3162
  238loPI   C2A 3800  13.611  10.352   8.471  0.1301 -0.0253 -0.2546
  238loPI   C3A 3801  13.709  10.419   8.122  0.2681  0.0008  0.2040
  238loPI   C4A 3802  13.964  10.492   7.772 -0.0516 -0.1207 -0.0137
  238loPI   C5A 3803  14.375  10.454   7.587 -0.2388  0.0581  0.1067
  238loPI   C6A 3804  14.702  10.123   7.733  0.0785 -0.0071 -0.1907
  238loPI   C1B 3805  13.189  10.500   8.685  0.0126  0.2733 -0.1082
  238loPI   C2B 3806  13.173  10.491   8.269  0.1114  0.0339 -0.0898
  238loPI   C3B 3807  13.106  10.625   7.833 -0.2342  0.2619  0.2373
  238loPI   C4B 3808  12.997  10.643   7.406 -0.2319  0.1024 -0.1680
  239loPI    C1 3809  13.541   4.709  10.168 -0.0149 -0.2273  0.1315
  239loPI    C2 3810  13.886   4.798  10.350  0.0104 -0.2161  0.0783
  239loPI    C3 3811  13.618   5.086  10.278  0.0126 -0.2156  0.0721
  239loPI   PO4 3812  13.605   4.638   9.935  0.1655  0.0076  0.0277
  239loPI   GL1 3813  13.611   4.601   9.524  0.0141 -0.0231  0.2145
  239loPI   GL2 3814  13.271   4.605   9.551  0.0920 -0.0501 -0.4727
  239loPI   C1A 3815  13.713   4.811   9.224 -0.0025 -0.3202  0.0056
  239loPI   C2A 3816  13.842   4.703   8.938 -0.1286 -0.1476  0.1659
  239loPI   C3A 3817  13.857   4.625   8.472  0.0498 -0.3420 -0.2778
  239loPI   C4A 3818  13.956   4.580   7.970  0.0202  0.2464  0.0313
  239loPI   C5A 3819  14.187   4.404   7.693  0.1027  0.0987  0.3758
  239loPI   C6A 3820  14.394   4.233   7.444 -0.0839  0.0590  0.0410
  239loPI   C1B 3821  13.387   4.461   9.108 -0.1063  0.0384 -0.0106
  239loPI   C2B 3822  13.437   4.432   8.680 -0.0273 -0.0485  0.3629
  239loPI   C3B 3823  13.201   4.526   8.338 -0.1005 -0.1633  0.0367
  239loPI   C4B 3824  13.231   4.372   7.971 -0.2626  0.1083  0.1337
  240loPI    C1 3825   2.298  11.596  10.158 -0.1000 -0.0605  0.0698
  240loPI    C2 3826   1.911  11.561  10.254 -0.1569  0.0808 -0.1029
  240loPI    C3 3827   2.053  11.909  10.117  0.0278  0.0243 -0.0586
  240loPI   PO4 3828   2.386  11.362  10.022 -0.2213 -0.0015  0.1324
  240loPI   GL1 3829   2.371  11.554   9.623  0.0529  0.1674 -0.1245
  240loPI   GL2 3830   2.184  11.754   9.641  0.1305  0.0149 -0.0317
  240loPI   C1A 3831   2.245  11.452   9.144  0.0587  0.1212  0.2033
  240loPI   C2A 3832   2.113  11.606   8.813 -0.1881 -0.0633  0.0231
  240loPI   C3A 3833   1.967  11.742   8.423 -0.2674  0.1312  0.1084
  240loPI   C4A 3834   1.806  11.580   8.010  0.3100  0.1475  0.1022
  240loPI   C5A 3835   1.605  11.326   8.000  0.0518  0.1464  0.2518
  240loPI   C6A 3836   1.567  10.995   8.132  0.2465 -0.1830 -0.0048
  240loPI   C1B 3837   2.166  11.962   9.266 -0.3188 -0.0183  0.0635
  240loPI   C2B 3838   2.183  12.201   8.910 -0.2175  0.3042 -0.1674
  240loPI   C3B 3839   1.970  12.223   8.454 -0.3259 -0.2376 -0.0172
  240loPI   C4B 3840   1.841  12.236   8.038 -0.0372  0.1717 -0.0032
  241loPI    C1 3841  15.446  14.404  10.376 -0.1482  0.4479  0.3037
  241loPI    C2 3842  15.667  14.588  10.654  0.2926  0.0380  0.2383
  241loPI    C3 3843  15.716  14.197  10.587 -0.0947  0.0471 -0.1408
  241loPI   PO4 3844  15.416  14.435  10.113 -0.0022 -0.0189 -0.1839
  241loPI   GL1 3845  15.298  14.734   9.863 -0.2332 -0.1763 -0.7012
  241loPI   GL2 3846  15.161  15.032   9.754 -0.0458  0.3008  0.0491
  241loPI   C1A 3847  15.579  14.938   9.441  0.0071 -0.4496  0.1295
  241loPI   C2A 3848  15.821  14.913   9.154  0.0142  0.0557 -0.3214
  241loPI   C3A 3849  15.958  14.999   8.798 -0.0625  0.0970  0.3271
  241loPI   C4A 3850  15.800  14.979   8.363  0.1057 -0.0936 -0.0468
  241loPI   C5A 3851  16.008  14.798   7.975  0.1298 -0.0874 -0.2508
  241loPI   C6A 3852  16.338  14.811   7.703  0.1717  0.0832  0.3190
  241loPI   C1B 3853  15.098  15.066   9.308 -0.0766  0.0402 -0.0749
  241loPI   C2B 3854  15.054  15.397   8.866  0.0060 -0.0039 -0.2085
  241loPI   C3B 3855  15.052  15.579   8.468  0.0356 -0.2271  0.0447
  241loPI   C4B 3856  15.228  15.768   8.039  0.0689  0.3117  0.1511
  242loPI    C1 3857  10.664  16.617   9.368  0.0105  0.0118  0.2250
  242loPI    C2 3858  10.829  16.965   9.474  0.1159  0.0507 -0.0590
  242loPI    C3 3859  10.901  16.811   9.112 -0.0625 -0.1860  0.0035
  242loPI   PO4 3860  10.791  16.359   9.480 -0.1001  0.0900  0.2160
  242loPI   GL1 3861  10.995  16.052   9.324  0.3013 -0.3627 -0.0377
  242loPI   GL2 3862  11.161  16.282   9.149  0.2466 -0.1696 -0.3035
  242loPI   C1A 3863  10.867  15.905   8.945  0.0108 -0.1216  0.0332
  242loPI   C2A 3864  10.879  15.894   8.473 -0.2814  0.1189 -0.2534
  242loPI   C3A 3865  11.020  15.831   8.083 -0.1691 -0.1071  0.1064
  242loPI   C4A 3866  11.311  15.936   7.794 -0.2805  0.1063 -0.0210
  242loPI   C5A 3867  11.154  16.165   7.431  0.0847 -0.2468  0.4312
  242loPI   C6A 3868  10.925  16.268   7.016  0.1647  0.1371  0.0761
  242loPI   C1B 3869  11.047  16.343   8.769 -0.3050 -0.2634  0.1746
  242loPI   C2B 3870  11.150  16.282   8.332 -0.1059  0.0443 -0.0528
  242loPI   C3B 3871  11.426  16.436   8.011 -0.0827  0.2717  0.0867
  242loPI   C4B 3872  11.348  16.680   7.650 -0.0632  0.0851  0.5467
  243loPI    C1 3873  18.168   7.987  10.064  0.0872  0.1369 -0.1760
  243loPI    C2 3874  17.913   8.185   9.827  0.0908  0.0478 -0.2555
  243loPI    C3 3875  18.237   8.370   9.972  0.0983  0.0976 -0.3350
  243loPI   PO4 3876  18.320   7.741   9.949 -0.2383 -0.0101  0.1472
  243loPI   GL1 3877  18.316   7.554   9.584  0.0081  0.0399  0.1705
  243loPI   GL2 3878  18.149   7.593   9.343 -0.1789  0.1619 -0.0993
  243loPI   C1A 3879  18.510   7.333   9.105  0.0292  0.2243  0.0476
  243loPI   C2A 3880  18.379   7.367   8.776  0.1569  0.2909 -0.0207
  243loPI   C3A 3881  18.225   7.409   8.250 -0.3226 -0.0864 -0.0106
  243loPI   C4A 3882  18.184   7.296   7.748 -0.2826  0.1424 -0.4642
  243loPI   C5A 3883  17.749   7.271   7.396  0.1863  0.2777 -0.0549
  243loPI   C6A 3884  17.570   7.394   7.048 -0.1165 -0.0995 -0.0029
  243loPI   C1B 3885  18.057   7.748   8.914  0.4422  0.0267  0.1696
  243loPI   C2B 3886  17.968   7.832   8.516  0.1598 -0.1360 -0.0792
  243loPI   C3B 3887  18.025   7.832   8.052 -0.1846 -0.0302  0.2111
  243loPI   C4B 3888  17.881   7.672   7.665 -0.0983  0.3723  0.2035
  244loPI    C1 3889   2.393  17.916  10.192  0.0662  0.1142  0.0366
  244loPI    C2 3890   2.668  17.683  10.365 -0.0599 -0.2189 -0.2012
  244loPI    C3 3891   2.357  17.815  10.578  0.3001  0.1999  0.0826
  244loPI   PO4 3892   2.672  18.041  10.032  0.1779 -0.4310 -0.0429
  244loPI   GL1 3893   2.795  17.906   9.557 -0.0082  0.0543  0.2731
  244loPI   GL2 3894   2.744  18.316   9.570  0.1108 -0.1545 -0.5560
  244loPI   C1A 3895   2.955  17.975   9.169  0.0072 -0.0545  0.0326
  244loPI   C2A 3896   3.235  18.194   8.919  0.3270 -0.0606 -0.1051
  244loPI   C3A 3897   3.307  18.061   8.482 -0.3087 -0.0561 -0.1064
  244loPI   C4A 3898   3.164  18.004   8.098 -0.1101 -0.0161  0.4926
  244loPI   C5A 3899   2.836  17.879   7.870  0.3191  0.0867  0.2550
  244loPI   C6A 3900   2.351  18.068   7.727 -0.0417 -0.0246 -0.1661
  244loPI   C1B 3901   2.815  18.456   9.227  0.0015  0.0502 -0.1871
  244loPI   C2B 3902   2.911  18.606   8.766 -0.0983 -0.1084  0.1375
  244loPI   C3B 3903   2.651  18.693   8.387  0.1894  0.0139  0.1031
  244loPI   C4B 3904   2.401  19.022   8.067  0.3559  0.2489 -0.3082
  245loPI    C1 3905  10.443   5.442   9.841 -0.2368 -0.0724 -0.0581
  245loPI    C2 3906  10.276   5.497  10.200 -0.0406  0.0068  0.0222
  245loPI    C3 3907  10.163   5.189   9.973  0.1194 -0.2802  0.3233
  245loPI   PO4 3908  10.517   5.607   9.694 -0.0409  0.2736  0.1209
  245loPI   GL1 3909  10.756   5.482   9.409 -0.2351  0.1295 -0.0803
  245loPI   GL2 3910  10.562   5.158   9.298  0.2220 -0.2773 -0.1934
  245loPI   C1A 3911  10.994   5.481   9.054  0.2475 -0.2135  0.0071
  245loPI   C2A 3912  10.976   5.446   8.610  0.2293 -0.3060  0.3339
  245loPI   C3A 3913  11.002   5.419   8.174  0.1342  0.0929 -0.1917
  245loPI   C4A 3914  10.967   5.344   7.677 -0.2399 -0.0634  0.2791
  245loPI   C5A 3915  11.033   5.066   7.218 -0.2069  0.4224 -0.0342
  245loPI   C6A 3916  11.277   5.124   6.831 -0.0800 -0.0420 -0.0172
  245loPI   C1B 3917  10.597   5.269   8.857  0.3139  0.2325 -0.0289
  245loPI   C2B 3918  10.581   5.209   8.340  0.2139  0.3023  0.2424
  245loPI   C3B 3919  10.614   5.071   7.934  0.0891 -0.2475 -0.0084
  245loPI   C4B 3920  10.473   5.071   7.594 -0.0027  0.2026 -0.1417
  246loPI    C1 3921  14.483  10.649   9.994  0.0441  0.0076 -0.1657
  246loPI    C2 3922  14.757  10.417  10.171  0.0957  0.1586 -0.0460
  246loPI    C3 3923  14.870  10.687   9.899  0.0541  0.1518 -0.0700
  246loPI   PO4 3924  14.292  10.495   9.931 -0.0131 -0.3943  0.0261
  246loPI   GL1 3925  14.296  10.380   9.523 -0.0044  0.1532  0.0672
  246loPI   GL2 3926  14.656  10.329   9.570  0.1845 -0.4311 -0.1261
  246loPI   C1A 3927  13.998  10.498   9.192  0.0657 -0.2975 -0.0101
  246loPI   C2A 3928  13.989  10.422   8.734 -0.1956 -0.1024  0.1468
  246loPI   C3A 3929  14.126  10.466   8.319 -0.0038 -0.4406 -0.0515
  246loPI   C4A 3930  14.341  10.147   8.079 -0.3022 -0.1522 -0.0347
  246loPI   C5A 3931  14.795   9.877   8.173 -0.0351 -0.0258 -0.2000
  246loPI   C6A 3932  15.187   9.888   8.040  0.2057 -0.0664 -0.1668
  246loPI   C1B 3933  15.028  10.415   9.344  0.0184 -0.0922  0.1124
  246loPI   C2B 3934  15.395  10.669   9.208 -0.1259  0.1128  0.1186
  246loPI   C3B 3935  15.383  11.007   9.167  0.3532 -0.2644 -0.0322
  246loPI   C4B 3936  15.478  11.349   9.317 -0.0856  0.0778  0.3070
  247loPI    C1 3937   4.465   8.065  10.150 -0.0875 -0.0504 -0.1355
  247loPI    C2 3938   4.077   8.106  10.060 -0.1206  0.0815  0.0623
  247loPI    C3 3939   4.186   7.970  10.420  0.0184  0.1381  0.0425
  247loPI   PO4 3940   4.633   8.206  10.045  0.1734 -0.0091  0.0042
  247loPI   GL1 3941   5.029   8.152   9.858  0.0935  0.0172  0.2115
  247loPI   GL2 3942   5.354   8.274   9.912 -0.0470  0.1276 -0.2307
  247loPI   C1A 3943   5.252   8.094   9.451 -0.0300 -0.4799 -0.2627
  247loPI   C2A 3944   5.351   8.158   8.909 -0.0947  0.1646  0.1492
  247loPI   C3A 3945   5.312   8.001   8.486  0.2234 -0.2827 -0.1071
  247loPI   C4A 3946   5.027   8.159   8.110  0.2461  0.2213 -0.1643
  247loPI   C5A 3947   4.710   8.280   7.841 -0.1228 -0.5238  0.0322
  247loPI   C6A 3948   4.359   8.457   7.676 -0.3530  0.1127  0.3724
  247loPI   C1B 3949   5.618   8.496   9.545 -0.2130 -0.0345  0.2581
  247loPI   C2B 3950   5.815   8.623   9.176 -0.0300  0.2012 -0.0748
  247loPI   C3B 3951   5.658   8.657   8.776 -0.0662 -0.1897 -0.5035
  247loPI   C4B 3952   5.423   8.552   8.397  0.1367  0.0111  0.1605
  248loPI    C1 3953   0.120  11.848   9.990 -0.2448 -0.1866  0.1478
  248loPI    C2 3954   0.133  11.877  10.388  0.1011 -0.3019  0.1488
  248loPI    C3 3955  -0.176  11.696  10.211 -0.1602 -0.0620  0.3497
  248loPI   PO4 3956   0.087  11.990   9.871 -0.0306 -0.0304  0.0974
  248loPI   GL1 3957   0.068  12.071   9.440 -0.1771  0.0998 -0.1335
  248loPI   GL2 3958   0.318  12.166   9.333 -0.0109 -0.2793  0.0551
  248loPI   C1A 3959  -0.311  11.955   9.199 -0.0886  0.1253  0.2219
  248loPI   C2A 3960  -0.353  12.047   8.683  0.0224  0.0940  0.0063
  248loPI   C3A 3961  -0.317  12.159   8.258  0.1752  0.0644 -0.2355
  248loPI   C4A 3962  -0.183  12.326   7.872 -0.1335  0.0227 -0.1636
  248loPI   C5A 3963   0.133  12.603   7.726  0.1511 -0.2006  0.0144
  248loPI   C6A 3964   0.428  12.818   8.110  0.0225 -0.1229  0.2145
  248loPI   C1B 3965   0.115  12.123   8.939  0.0433 -0.1911 -0.1587
  248loPI   C2B 3966   0.101  12.121   8.512 -0.1748  0.4215  0.0396
  248loPI   C3B 3967   0.332  12.274   8.070  0.2664 -0.2602  0.0088
  248loPI   C4B 3968   0.399  12.064   7.828 -0.2868 -0.1124 -0.1114
  249loPI    C1 3969   4.106  11.941  10.551  0.1008  0.1137  0.0041
  249loPI    C2 3970   4.369  11.683  10.706 -0.0157  0.1353  0.2422
  249loPI    C3 3971   4.321  12.044  10.872  0.1200  0.2993 -0.0668
  249loPI   PO4 3972   4.241  11.929  10.188  0.1055 -0.4948 -0.4930
  249loPI   GL1 3973   4.158  11.633   9.818 -0.0317  0.2831 -0.2195
  249loPI   GL2 3974   4.410  11.790   9.786  0.2510 -0.3255 -0.0282
  249loPI   C1A 3975   3.965  11.641   9.369  0.0858 -0.1272  0.0755
  249loPI   C2A 3976   4.018  11.666   8.851 -0.1390  0.1840 -0.1760
  249loPI   C3A 3977   3.975  11.778   8.409  0.0743  0.0015  0.1121
  249loPI   C4A 3978   4.154  11.905   7.935  0.2862 -0.0425 -0.0646
  249loPI   C5A 3979   4.309  11.574   7.696 -0.0025  0.1659  0.1316
  249loPI   C6A 3980   4.240  11.426   7.299 -0.0528 -0.1230  0.0094
  249loPI   C1B 3981   4.796  11.536   9.645  0.1111  0.3382  0.3970
  249loPI   C2B 3982   4.845  11.174   9.320 -0.2019 -0.2025 -0.3689
  249loPI   C3B 3983   5.160  11.382   8.989 -0.0568  0.0558 -0.0746
  249loPI   C4B 3984   5.290  11.607   8.600  0.0097 -0.1781  0.0489
  250loPI    C1 3985   2.715   2.608  10.365  0.0437 -0.1657 -0.2195
  250loPI    C2 3986   2.918   2.330  10.568  0.0803 -0.0088 -0.0382
  250loPI    C3 3987   2.800   2.665  10.752  0.1115  0.1348 -0.2756
  250loPI   PO4 3988   2.905   2.652  10.159  0.2336 -0.0677  0.2575
  250loPI   GL1 3989   2.791   2.693   9.760  0.1415  0.0371 -0.1838
  250loPI   GL2 3990   2.664   2.994   9.843 -0.0179  0.1758  0.0058
  250loPI   C1A 3991   2.681   2.447   9.487  0.2428  0.1435 -0.1452
  250loPI   C2A 3992   2.552   2.342   9.124  0.0576  0.2652 -0.3235
  250loPI   C3A 3993   2.568   2.275   8.684  0.0945 -0.0428  0.1999
  250loPI   C4A 3994   2.547   2.372   8.204  0.1312  0.1889 -0.1929
  250loPI   C5A 3995   2.295   2.709   7.955 -0.2626  0.1078 -0.0205
  250loPI   C6A 3996   2.193   3.043   7.933 -0.0457 -0.0985 -0.0583
  250loPI   C1B 3997   2.638   2.963   9.381 -0.2156 -0.0483  0.0349
  250loPI   C2B 3998   2.772   2.811   8.956  0.0833 -0.0140 -0.1147
  250loPI   C3B 3999   2.822   2.692   8.533 -0.0047 -0.0375  0.2740
  250loPI   C4B 4000   2.877   2.793   8.069  0.0355 -0.1832  0.0913
  251loPI    C1 4001   9.588  16.680  10.106 -0.0241  0.1377 -0.1357
  251loPI    C2 4002   9.306  16.421  10.221  0.0398 -0.0123 -0.3117
  251loPI    C3 4003   9.688  16.359  10.322  0.0340  0.0983 -0.2203
  251loPI   PO4 4004   9.429  16.765   9.821 -0.2881  0.0434 -0.1132
  251loPI   GL1 4005   9.305  16.799   9.412  0.1886  0.1160  0.1654
  251loPI   GL2 4006   9.537  17.103   9.307 -0.0632  0.0007 -0.0378
  251loPI   C1A 4007   9.386  16.761   8.995  0.0450 -0.0023 -0.2306
  251loPI   C2A 4008   9.400  16.515   8.710  0.4419  0.0735 -0.1105
  251loPI   C3A 4009   9.462  16.257   8.386 -0.2613 -0.2857 -0.1648
  251loPI   C4A 4010   9.539  16.178   8.078 -0.3072  0.0846 -0.3945
  251loPI   C5A 4011   9.723  16.426   7.794  0.0588 -0.0459  0.0679
  251loPI   C6A 4012   9.988  16.835   7.715  0.2421  0.1214  0.0305
  251loPI   C1B 4013   9.492  17.252   8.939 -0.4611 -0.1472  0.3694
  251loPI   C2B 4014   9.583  17.507   8.602 -0.2324 -0.3914 -0.0987
  251loPI   C3B 4015   9.724  17.429   8.219 -0.1490  0.3224 -0.0834
  251loPI   C4B 4016   9.922  17.057   8.142  0.1451 -0.1089 -0.3153
  252loPI    C1 4017   3.548  12.322  10.217  0.1496 -0.2933  0.1237
  252loPI    C2 4018   3.934  12.383  10.304  0.0802  0.0996  0.1772
  252loPI    C3 4019   3.659  12.653  10.412 -0.1981 -0.1224  0.0408
  252loPI   PO4 4020   3.467  12.253   9.964 -0.3194  0.2789 -0.1364
  252loPI   GL1 4021   3.204  12.344   9.586  0.1537 -0.2356 -0.1275
  252loPI   GL2 4022   3.548  12.324   9.504  0.2323 -0.0766 -0.1097
  252loPI   C1A 4023   3.230  12.246   9.147 -0.0624 -0.0373  0.0610
  252loPI   C2A 4024   3.137  12.385   8.689 -0.1314 -0.1593 -0.1598
  252loPI   C3A 4025   2.979  12.480   8.283 -0.0436 -0.1627 -0.3634
  252loPI   C4A 4026   2.771  12.537   7.839 -0.2367  0.1557 -0.1026
  252loPI   C5A 4027   2.678  12.356   7.517  0.3333  0.1630 -0.1765
  252loPI   C6A 4028   2.652  11.827   7.473  0.2407  0.4242  0.2500
  252loPI   C1B 4029   3.777  12.424   9.086 -0.4091  0.0025 -0.1697
  252loPI   C2B 4030   4.016  12.261   8.717 -0.0187 -0.2551  0.2154
  252loPI   C3B 4031   3.866  12.273   8.288 -0.0163 -0.0409 -0.0434
  252loPI   C4B 4032   3.980  12.379   7.808 -0.1512 -0.0478  0.2433
  253loPI    C1 4033   8.485   4.105  10.593  0.0856 -0.0030  0.0582
  253loPI    C2 4034   8.185   4.049  10.852  0.0747 -0.4103 -0.0357
  253loPI    C3 4035   8.552   4.136  10.986 -0.0609  0.0017  0.0832
  253loPI   PO4 4036   8.312   3.895  10.347  0.0235 -0.0032  0.4638
  253loPI   GL1 4037   8.387   3.747  10.060 -0.0954 -0.0284 -0.2423
  253loPI   GL2 4038   8.192   4.099   9.864 -0.3759 -0.1577 -0.2665
  253loPI   C1A 4039   8.559   3.782   9.629 -0.1272 -0.0357  0.1544
  253loPI   C2A 4040   8.580   3.722   9.261 -0.0844 -0.0002  0.1484
  253loPI   C3A 4041   8.607   3.710   8.777  0.0620  0.0005  0.1776
  253loPI   C4A 4042   8.596   3.837   8.363  0.0624  0.4112 -0.0322
  253loPI   C5A 4043   8.694   3.842   7.806 -0.2390 -0.1826  0.0022
  253loPI   C6A 4044   8.847   4.062   7.453  0.1589  0.1822 -0.0014
  253loPI   C1B 4045   8.162   3.989   9.444  0.1803  0.0268  0.1211
  253loPI   C2B 4046   8.202   4.041   8.963  0.1397 -0.1510 -0.1999
  253loPI   C3B 4047   8.181   4.098   8.443 -0.1729  0.2517  0.0937
  253loPI   C4B 4048   8.346   4.108   8.082  0.1943 -0.1147 -0.1026
  254loPI    C1 4049  17.376  11.302  10.639 -0.2597 -0.0322  0.0863
  254loPI    C2 4050  17.661  11.074  10.804  0.1163  0.2039 -0.2186
  254loPI    C3 4051  17.420  11.293  11.037 -0.0833 -0.2987  0.0636
  254loPI   PO4 4052  17.445  11.377  10.487 -0.0110 -0.1062 -0.2764
  254loPI   GL1 4053  17.371  11.357  10.017  0.1595 -0.1885  0.2536
  254loPI   GL2 4054  17.107  11.490   9.862 -0.0122 -0.0257  0.1030
  254loPI   C1A 4055  17.501  11.417   9.556  0.0957 -0.2704 -0.0542
  254loPI   C2A 4056  17.424  11.523   9.196  0.1423  0.0352  0.1430
  254loPI   C3A 4057  17.310  11.521   8.761 -0.0055 -0.0137 -0.0355
  254loPI   C4A 4058  17.327  11.405   8.355 -0.0190 -0.1912 -0.0352
  254loPI   C5A 4059  17.360  11.445   7.941 -0.0653  0.0409 -0.0255
  254loPI   C6A 4060  17.321  11.433   7.629 -0.2667  0.2546 -0.1286
  254loPI   C1B 4061  17.013  11.332   9.451  0.1548  0.2801  0.5090
  254loPI   C2B 4062  16.830  11.354   9.034  0.0456 -0.2141  0.1759
  254loPI   C3B 4063  16.714  11.250   8.677  0.2436  0.2301 -0.4087
  254loPI   C4B 4064  16.638  11.170   8.223 -0.2946  0.0297 -0.0566
  255loPI    C1 4065   4.390   9.194  10.406  0.0107  0.0531 -0.0942
  255loPI    C2 4066   4.012   9.074  10.460 -0.0748  0.1968 -0.3544
  255loPI    C3 4067   4.087   9.427  10.287  0.1767  0.3534  0.0598
  255loPI   PO4 4068   4.545   8.939  10.302  0.1473  0.0517  0.1681
  255loPI   GL1 4069   4.560   8.909   9.834  0.3427 -0.1355 -0.3879
  255loPI   GL2 4070   4.507   8.487   9.710  0.0662  0.1208  0.4364
  255loPI   C1A 4071   4.778   8.840   9.457 -0.2863  0.0585  0.0903
  255loPI   C2A 4072   4.807   8.862   9.082 -0.0914  0.3896 -0.0411
  255loPI   C3A 4073   4.704   9.100   8.738  0.2679 -0.0675  0.1816
  255loPI   C4A 4074   4.663   9.196   8.384 -0.1582  0.0810 -0.0161
  255loPI   C5A 4075   4.605   9.146   7.999 -0.2063 -0.0620  0.0573
  255loPI   C6A 4076   4.412   8.940   7.696 -0.3002 -0.0481  0.0292
  255loPI   C1B 4077   4.407   8.359   9.256 -0.2191 -0.0774 -0.1042
  255loPI   C2B 4078   4.548   8.473   8.921  0.2367  0.0311  0.1301
  255loPI   C3B 4079   4.485   8.684   8.542 -0.0069 -0.0056 -0.2020
  255loPI   C4B 4080   4.411   8.605   8.187 -0.0792 -0.1195  0.0831
  256loPI    C1 4081  13.188   9.975   9.803 -0.2464  0.3446  0.0599
  256loPI    C2 4082  13.416  10.105  10.105  0.1376  0.0549 -0.0965
  256loPI    C3 4083  13.194   9.775  10.149  0.3734 -0.1199 -0.2015
  256loPI   PO4 4084  12.930  10.166   9.634 -0.6065 -0.0184  0.3639
  256loPI   GL1 4085  12.852   9.923   9.296 -0.2875 -0.2466  0.1922
  256loPI   GL2 4086  12.560   9.826   9.275  0.3043 -0.5218  0.0054
  256loPI   C1A 4087  12.852  10.089   8.915  0.0138 -0.0805 -0.0795
  256loPI   C2A 4088  12.821  10.133   8.452  0.3313 -0.0886  0.0361
  256loPI   C3A 4089  12.884  10.144   8.019  0.2645  0.4008  0.0605
  256loPI   C4A 4090  12.857   9.976   7.645 -0.0116  0.1228 -0.1943
  256loPI   C5A 4091  12.549   9.793   7.350  0.1905 -0.1303  0.0290
  256loPI   C6A 4092  12.242   9.838   7.014  0.0170  0.3426  0.1282
  256loPI   C1B 4093  12.413   9.857   8.800  0.1346 -0.0273 -0.4282
  256loPI   C2B 4094  12.369   9.731   8.393  0.2219 -0.2614 -0.2174
  256loPI   C3B 4095  12.550   9.735   7.983 -0.0601 -0.1286 -0.0874
  256loPI   C4B 4096  12.582   9.370   7.766 -0.2299  0.1251 -0.1001
  257loPI    C1 4097  12.341   8.436   9.836 -0.1315 -0.0215 -0.0448
  257loPI    C2 4098  12.517   8.537  10.181  0.3873  0.0121 -0.3086
  257loPI    C3 4099  12.472   8.151  10.085 -0.2290 -0.0104  0.0196
  257loPI   PO4 4100  12.478   8.555   9.523  0.1955 -0.0038  0.0523
  257loPI   GL1 4101  12.392   8.635   9.101 -0.0426 -0.1920 -0.0777
  257loPI   GL2 4102  12.381   9.022   9.168  0.0442  0.5355  0.1751
  257loPI   C1A 4103  12.345   8.786   8.672  0.0677  0.1774  0.3447
  257loPI   C2A 4104  12.389   8.764   8.201  0.0671  0.0876 -0.0907
  257loPI   C3A 4105  12.372   8.820   7.762 -0.0943  0.1399  0.0252
  257loPI   C4A 4106  12.476   8.767   7.353  0.5081 -0.1507  0.0296
  257loPI   C5A 4107  12.879   8.584   7.155 -0.1573 -0.2240  0.1409
  257loPI   C6A 4108  13.295   8.604   7.251 -0.0087 -0.2431 -0.0757
  257loPI   C1B 4109  11.984   9.077   8.894 -0.1317 -0.2468  0.2570
  257loPI   C2B 4110  11.914   9.000   8.542  0.2525  0.2247  0.1032
  257loPI   C3B 4111  11.647   9.136   8.150  0.2870 -0.1641 -0.1212
  257loPI   C4B 4112  11.509   9.455   7.907 -0.1541 -0.1174 -0.3772
  258loPI    C1 4113  14.494  16.383   9.923  0.0342  0.0192 -0.0702
  258loPI    C2 4114  14.746  16.076   9.879  0.0434 -0.0089  0.1626
  258loPI    C3 4115  14.751  16.291  10.216 -0.0028  0.2116  0.0247
  258loPI   PO4 4116  14.401  16.426   9.682 -0.1246  0.0709  0.0205
  258loPI   GL1 4117  14.469  16.231   9.368  0.2449 -0.1362  0.1143
  258loPI   GL2 4118  14.477  15.853   9.318  0.4547  0.0767  0.1541
  258loPI   C1A 4119  14.340  16.398   8.954 -0.3191  0.0244  0.4559
  258loPI   C2A 4120  14.364  16.452   8.520  0.2452  0.0454 -0.1434
  258loPI   C3A 4121  14.392  16.364   8.117  0.2638 -0.0494  0.0552
  258loPI   C4A 4122  14.312  16.283   7.723 -0.3087 -0.0268 -0.2218
  258loPI   C5A 4123  13.928  16.402   7.446  0.3939 -0.2575 -0.0786
  258loPI   C6A 4124  13.534  16.445   7.443  0.1571 -0.2310 -0.0420
  258loPI   C1B 4125  14.277  15.921   8.894  0.0301 -0.0244 -0.3091
  258loPI   C2B 4126  14.291  15.929   8.482  0.1098  0.1205 -0.0977
  258loPI   C3B 4127  13.920  16.114   8.294  0.0141 -0.0925 -0.1033
  258loPI   C4B 4128  13.757  16.055   7.899 -0.0582  0.0790  0.0133
  259loPI    C1 4129   9.736  13.215   9.933  0.0399 -0.1255  0.1841
  259loPI    C2 4130   9.374  13.156  10.092 -0.0109 -0.0032  0.1153
  259loPI    C3 4131   9.692  13.194  10.330 -0.0932  0.2235  0.1913
  259loPI   PO4 4132   9.656  13.027   9.661  0.0335  0.2692  0.0203
  259loPI   GL1 4133   9.403  13.071   9.337 -0.2121  0.2001 -0.1495
  259loPI   GL2 4134   8.981  13.039   9.248 -0.0815 -0.0228  0.1441
  259loPI   C1A 4135   9.578  12.769   9.017 -0.0135 -0.0643 -0.0543
  259loPI   C2A 4136   9.871  12.588   8.806  0.1190 -0.0482 -0.0866
  259loPI   C3A 4137   9.942  12.434   8.370 -0.2305  0.1643 -0.0770
  259loPI   C4A 4138  10.274  12.318   8.043  0.1907  0.0226 -0.0335
  259loPI   C5A 4139  10.382  12.237   7.587 -0.0356  0.0253 -0.3583
  259loPI   C6A 4140  10.230  12.142   7.161 -0.0455 -0.1865  0.1054
  259loPI   C1B 4141   9.137  12.843   8.931  0.3883  0.0979 -0.1854
  259loPI   C2B 4142   9.316  12.503   8.671 -0.0935  0.1204 -0.0608
  259loPI   C3B 4143   9.114  12.253   8.298  0.2376 -0.1430 -0.1615
  259loPI   C4B 4144   8.993  12.073   7.902  0.0915  0.1285  0.2925
  260loPI    C1 4145  12.134   9.229  10.163 -0.1706 -0.0649 -0.0730
  260loPI    C2 4146  12.113   8.855  10.024 -0.1363 -0.0197 -0.2010
  260loPI    C3 4147  12.232   8.922  10.400 -0.0263 -0.1299 -0.2155
  260loPI   PO4 4148  11.965   9.295   9.787 -0.0802  0.1251 -0.3329
  260loPI   GL1 4149  12.015   9.295   9.378  0.2630  0.2378 -0.3612
  260loPI   GL2 4150  11.814   9.186   9.290 -0.1066  0.0917 -0.3735
  260loPI   C1A 4151  12.266   9.465   9.129 -0.3273  0.1832  0.2373
  260loPI   C2A 4152  12.339   9.313   8.676  0.1052 -0.1502  0.2388
  260loPI   C3A 4153  12.450   9.264   8.269  0.2616  0.0529  0.4192
  260loPI   C4A 4154  12.149   9.199   7.997 -0.1107  0.0635 -0.0018
  260loPI   C5A 4155  11.813   9.105   7.675  0.0249 -0.2878 -0.0348
  260loPI   C6A 4156  11.434   9.278   7.475 -0.0784 -0.0544 -0.2536
  260loPI   C1B 4157  11.550   8.926   8.989 -0.3538 -0.5829  0.0654
  260loPI   C2B 4158  11.497   8.713   8.637 -0.1452 -0.2219  0.4394
  260loPI   C3B 4159  11.420   8.611   8.181  0.1329 -0.0509 -0.1817
  260loPI   C4B 4160  11.441   8.762   7.764  0.0949 -0.0448 -0.3426
  261loPI    C1 4161  16.321  11.738  10.585  0.1152 -0.0012 -0.0985
  261loPI    C2 4162  16.563  11.558  10.847 -0.0018  0.1596  0.1230
  261loPI    C3 4163  16.704  11.849  10.612  0.1285 -0.0550 -0.0681
  261loPI   PO4 4164  16.187  11.455  10.440 -0.0396  0.1448 -0.0602
  261loPI   GL1 4165  16.238  11.090  10.098  0.3938  0.0641 -0.1345
  261loPI   GL2 4166  15.859  11.277  10.074  0.0918 -0.2566  0.2321
  261loPI   C1A 4167  15.928  10.743  10.015  0.2650 -0.1530 -0.0060
  261loPI   C2A 4168  15.715  10.610   9.691  0.0549  0.4145  0.5057
  261loPI   C3A 4169  15.791  10.333   9.281  0.0276 -0.1428 -0.1265
  261loPI   C4A 4170  15.837  10.128   8.977 -0.2070 -0.1577  0.1854
  261loPI   C5A 4171  15.732  10.114   8.581  0.4024  0.1633 -0.0447
  261loPI   C6A 4172  15.407  10.186   8.333 -0.1135 -0.0810 -0.0656
  261loPI   C1B 4173  15.885  11.154   9.654  0.0917 -0.0454 -0.0576
  261loPI   C2B 4174  15.915  10.839   9.361 -0.1517 -0.0432 -0.7740
  261loPI   C3B 4175  15.777  10.782   8.930  0.0594  0.2595 -0.3484
  261loPI   C4B 4176  15.918  10.989   8.594  0.0560  0.0336  0.0414
  262loPI    C1 4177  10.569   1.941  10.235 -0.1268 -0.1613 -0.0122
  262loPI    C2 4178  10.876   1.787  10.440 -0.0151 -0.2715 -0.2574
  262loPI    C3 4179  10.500   1.706  10.551  0.0346  0.1181  0.2371
  262loPI   PO4 4180  10.614   1.930   9.992 -0.1603 -0.1005  0.2424
  262loPI   GL1 4181  10.870   1.939   9.589 -0.2833  0.0223  0.1165
  262loPI   GL2 4182  10.881   2.124   9.252  0.1729  0.1946 -0.0957
  262loPI   C1A 4183  10.750   1.640   9.237 -0.2679  0.0653 -0.0082
  262loPI   C2A 4184  10.788   1.636   8.760 -0.3778 -0.0434  0.1223
  262loPI   C3A 4185  10.853   1.782   8.445  0.0419  0.3622 -0.1394
  262loPI   C4A 4186  10.755   1.780   8.049  0.2680  0.1995  0.0311
  262loPI   C5A 4187  10.902   1.611   7.707 -0.1044  0.1337 -0.2667
  262loPI   C6A 4188  11.120   1.811   7.334  0.3278 -0.0979 -0.1588
  262loPI   C1B 4189  10.782   2.250   8.872 -0.2443  0.0300 -0.1775
  262loPI   C2B 4190  10.775   2.297   8.404  0.0395 -0.0180  0.1420
  262loPI   C3B 4191  10.808   2.274   7.955  0.0685 -0.1601 -0.1095
  262loPI   C4B 4192  10.963   2.301   7.557  0.0588  0.2300  0.0822
  263loPI    C1 4193  11.448  15.159  10.120  0.0250 -0.0749  0.0837
  263loPI    C2 4194  11.211  15.406  10.326  0.2590  0.2014  0.0268
  263loPI    C3 4195  11.447  15.148  10.520  0.0193  0.0231  0.0864
  263loPI   PO4 4196  11.269  15.277   9.851  0.1619  0.1780  0.1703
  263loPI   GL1 4197  11.160  15.284   9.336 -0.1799 -0.1656  0.0622
  263loPI   GL2 4198  11.047  15.486   9.154  0.0781 -0.0458  0.1906
  263loPI   C1A 4199  11.400  14.994   9.064 -0.3226  0.4001  0.3776
  263loPI   C2A 4200  11.240  14.820   8.751  0.0920 -0.2928  0.0953
  263loPI   C3A 4201  11.189  14.560   8.316  0.1136  0.1186 -0.1145
  263loPI   C4A 4202  11.238  14.166   8.172  0.0428  0.0301 -0.1121
  263loPI   C5A 4203  11.158  13.942   7.864  0.1283 -0.0252  0.3658
  263loPI   C6A 4204  11.209  13.864   7.427  0.3643  0.0775 -0.0764
  263loPI   C1B 4205  11.152  15.474   8.801  0.4691  0.1171  0.0949
  263loPI   C2B 4206  11.032  15.373   8.376  0.0352 -0.1235  0.2524
  263loPI   C3B 4207  11.163  15.056   8.079 -0.1085  0.3027  0.1020
  263loPI   C4B 4208  11.118  14.933   7.604  0.3845  0.0079  0.1785
  264loPI    C1 4209  11.678   9.972   9.876  0.2289  0.1403 -0.0107
  264loPI    C2 4210  11.895  10.131  10.172 -0.0254 -0.1251  0.3270
  264loPI    C3 4211  11.852   9.734  10.147 -0.0357 -0.1039 -0.0507
  264loPI   PO4 4212  11.476  10.022   9.869 -0.1749 -0.3718  0.0022
  264loPI   GL1 4213  11.330  10.052   9.464  0.1262 -0.3081  0.2008
  264loPI   GL2 4214  11.287   9.801   9.309  0.0817 -0.3803 -0.1601
  264loPI   C1A 4215  11.563  10.202   9.146 -0.1026  0.0054  0.0999
  264loPI   C2A 4216  11.625  10.091   8.774 -0.1450 -0.2414  0.0171
  264loPI   C3A 4217  11.479   9.959   8.399 -0.0352  0.2311 -0.1071
  264loPI   C4A 4218  11.516   9.966   8.016  0.4374  0.2756  0.1422
  264loPI   C5A 4219  11.573   9.909   7.598 -0.1561 -0.3071 -0.0988
  264loPI   C6A 4220  11.243  10.137   7.334 -0.1314  0.2272 -0.2656
  264loPI   C1B 4221  11.290   9.769   8.855 -0.1761 -0.0702  0.1047
  264loPI   C2B 4222  11.136   9.638   8.507 -0.2314  0.1001  0.3491
  264loPI   C3B 4223  11.065   9.696   8.122  0.0766 -0.1261  0.1597
  264loPI   C4B 4224  11.091   9.713   7.676  0.0609 -0.0806  0.2311
  265loPI    C1 4225  12.876  12.039  10.063 -0.1089 -0.2013 -0.6508
  265loPI    C2 4226  13.057  12.349   9.886 -0.1299  0.1639 -0.0568
  265loPI    C3 4227  12.713  12.403  10.083 -0.0409 -0.1989  0.2088
  265loPI   PO4 4228  12.896  11.862   9.787  0.1179 -0.2017  0.3885
  265loPI   GL1 4229  12.821  11.894   9.218  0.0199  0.0648  0.1242
  265loPI   GL2 4230  12.625  11.780   9.389  0.0873  0.2276 -0.0520
  265loPI   C1A 4231  13.011  11.524   8.886  0.0775  0.1746 -0.1711
  265loPI   C2A 4232  13.105  11.640   8.463 -0.0192  0.0315 -0.2468
  265loPI   C3A 4233  13.115  11.514   8.016  0.0213  0.1306 -0.0250
  265loPI   C4A 4234  13.202  11.638   7.544  0.2026 -0.0370 -0.0634
  265loPI   C5A 4235  13.553  11.699   7.302 -0.2539  0.0222 -0.0961
  265loPI   C6A 4236  13.967  11.732   7.151 -0.0400 -0.1520  0.0857
  265loPI   C1B 4237  12.391  11.864   9.027 -0.1555  0.0675  0.3642
  265loPI   C2B 4238  12.303  12.153   8.732 -0.1874  0.0964  0.0749
  265loPI   C3B 4239  12.278  12.557   8.425  0.1228 -0.0227 -0.2054
  265loPI   C4B 4240  12.135  12.674   8.120  0.3099  0.0515  0.1081
  266loPI    C1 4241   2.055   2.123  10.385  0.0467 -0.1919  0.3742
  266loPI    C2 4242   1.915   2.382  10.656 -0.3334 -0.0380  0.0425
  266loPI    C3 4243   1.749   2.020  10.622 -0.0908 -0.1685  0.2085
  266loPI   PO4 4244   2.116   2.272  10.168  0.2463 -0.1726  0.2779
  266loPI   GL1 4245   1.945   2.291   9.757 -0.1943  0.1114 -0.3363
  266loPI   GL2 4246   1.659   2.223   9.680  0.1607  0.1240  0.0857
  266loPI   C1A 4247   2.117   2.219   9.418 -0.0375  0.1386  0.2088
  266loPI   C2A 4248   2.054   2.222   8.976 -0.0298 -0.2953  0.0639
  266loPI   C3A 4249   2.064   2.362   8.555  0.4307 -0.0767  0.1936
  266loPI   C4A 4250   1.810   2.357   8.285 -0.1472 -0.3613 -0.2367
  266loPI   C5A 4251   1.765   2.120   7.828  0.1507  0.1768 -0.0592
  266loPI   C6A 4252   1.977   2.117   7.412 -0.0459 -0.1664 -0.0942
  266loPI   C1B 4253   1.599   2.133   9.219  0.1657  0.2899  0.0396
  266loPI   C2B 4254   1.454   2.127   8.780  0.0386  0.1467  0.1237
  266loPI   C3B 4255   1.318   2.193   8.452 -0.0957  0.3348 -0.1809
  266loPI   C4B 4256   1.168   2.078   8.056  0.1734  0.1748 -0.1607
  267loPI    C1 4257   0.940  18.359  10.268  0.2512  0.0059 -0.1350
  267loPI    C2 4258   0.798  18.608  10.546  0.0707  0.0367 -0.2529
  267loPI    C3 4259   1.062  18.325  10.647  0.0022  0.0438 -0.0497
  267loPI   PO4 4260   0.755  18.272  10.145  0.1340 -0.2691  0.1946
  267loPI   GL1 4261   0.774  18.063   9.827  0.2142 -0.0310 -0.3132
  267loPI   GL2 4262   1.118  17.942   9.912  0.1148  0.0164  0.1213
  267loPI   C1A 4263   0.758  18.407   9.446 -0.1916 -0.0306  0.0467
  267loPI   C2A 4264   0.926  18.495   9.014 -0.1188 -0.1912  0.0386
  267loPI   C3A 4265   0.870  18.550   8.593  0.0891 -0.2806 -0.0512
  267loPI   C4A 4266   1.145  18.717   8.122  0.4019 -0.1419  0.3220
  267loPI   C5A 4267   1.483  18.710   7.898  0.3525 -0.1328 -0.1430
  267loPI   C6A 4268   1.565  18.557   7.456 -0.0901 -0.0278  0.1099
  267loPI   C1B 4269   1.277  17.953   9.496  0.1407 -0.1761 -0.0688
  267loPI   C2B 4270   1.277  17.981   9.096 -0.2092  0.0262 -0.0867
  267loPI   C3B 4271   1.259  18.248   8.601  0.1094  0.0236  0.1397
  267loPI   C4B 4272   1.192  18.253   8.059 -0.0212  0.2860 -0.1929
  268loPI    C1 4273   3.884   3.752  10.126  0.1545 -0.1230  0.1443
  268loPI    C2 4274   4.239   3.731  10.308  0.2903  0.2212 -0.0695
  268loPI    C3 4275   3.937   3.927  10.482  0.3013  0.2078 -0.0351
  268loPI   PO4 4276   4.026   3.804   9.831 -0.3070  0.1072  0.2075
  268loPI   GL1 4277   3.971   3.432   9.511 -0.1240  0.0840  0.0232
  268loPI   GL2 4278   4.203   3.380   9.455  0.1842  0.2689  0.1089
  268loPI   C1A 4279   4.112   3.802   9.156 -0.2225  0.0696 -0.3512
  268loPI   C2A 4280   3.992   3.924   8.742 -0.2214  0.2859 -0.1695
  268loPI   C3A 4281   3.952   3.765   8.388 -0.0014 -0.2196 -0.0172
  268loPI   C4A 4282   3.989   3.825   7.961 -0.2252 -0.0728  0.0159
  268loPI   C5A 4283   4.035   3.587   7.597 -0.1139  0.0434 -0.1743
  268loPI   C6A 4284   4.293   3.738   7.251 -0.0266  0.1120  0.1791
  268loPI   C1B 4285   4.249   3.307   9.039 -0.2688 -0.0532  0.0098
  268loPI   C2B 4286   4.190   3.391   8.612  0.2385 -0.1931 -0.1203
  268loPI   C3B 4287   4.404   3.370   8.115 -0.0729 -0.2710  0.0797
  268loPI   C4B 4288   4.458   3.299   7.709 -0.2289  0.0283  0.1795
  269loPI    C1 4289  10.542   8.079  10.312  0.0369 -0.0404  0.0808
  269loPI    C2 4290  10.902   7.917  10.372 -0.0047 -0.1571  0.0169
  269loPI    C3 4291  10.578   7.683  10.351 -0.0791 -0.0561  0.0326
  269loPI   PO4 4292  10.548   8.200  10.086  0.3138 -0.0736 -0.0635
  269loPI   GL1 4293  10.704   8.250   9.671 -0.0163 -0.2254  0.3221
  269loPI   GL2 4294  10.812   8.406   9.381 -0.2644 -0.1454  0.3619
  269loPI   C1A 4295  10.691   7.910   9.374  0.2236 -0.0321 -0.0574
  269loPI   C2A 4296  10.815   7.727   8.896  0.0288  0.0627 -0.1136
  269loPI   C3A 4297  10.945   7.543   8.505  0.2866 -0.1175  0.5034
  269loPI   C4A 4298  10.721   7.243   8.211 -0.3758  0.1215 -0.1808
  269loPI   C5A 4299  10.325   7.050   8.144  0.3670 -0.0569 -0.0849
  269loPI   C6A 4300   9.954   6.916   8.409 -0.1062 -0.1523  0.0564
  269loPI   C1B 4301  10.515   8.317   9.113 -0.1411 -0.1592  0.0896
  269loPI   C2B 4302  10.498   8.493   8.786 -0.1812  0.1291 -0.0217
  269loPI   C3B 4303  10.533   8.868   8.676 -0.0241 -0.1701 -0.1399
  269loPI   C4B 4304  10.851   9.144   8.756  0.1072 -0.1264 -0.1029
  270loPI    C1 4305   7.495   8.631  10.074  0.0168 -0.0111 -0.1294
  270loPI    C2 4306   7.255   8.453  10.339 -0.1826  0.0188 -0.2878
  270loPI    C3 4307   7.313   8.848  10.357  0.0405 -0.0204 -0.1068
  270loPI   PO4 4308   7.545   8.512   9.892 -0.1098 -0.1448 -0.3180
  270loPI   GL1 4309   7.395   8.638   9.512 -0.2452  0.1328  0.3226
  270loPI   GL2 4310   7.658   8.468   9.414  0.3874  0.0189 -0.1976
  270loPI   C1A 4311   7.433   9.051   9.238  0.0850 -0.0455 -0.2133
  270loPI   C2A 4312   7.470   9.277   8.878 -0.1489  0.1010 -0.0176
  270loPI   C3A 4313   7.462   9.465   8.525  0.0522  0.1996  0.3762
  270loPI   C4A 4314   7.548   9.392   8.085  0.1432 -0.2746  0.1412
  270loPI   C5A 4315   7.396   9.290   7.690 -0.1770  0.1056 -0.0219
  270loPI   C6A 4316   7.580   9.358   7.236 -0.1468 -0.1518 -0.1628
  270loPI   C1B 4317   7.995   8.791   9.212  0.1555  0.1423 -0.0463
  270loPI   C2B 4318   7.795   8.909   8.819 -0.0607  0.0893 -0.2433
  270loPI   C3B 4319   7.477   8.867   8.472  0.2156 -0.0536  0.0730
  270loPI   C4B 4320   7.503   8.882   8.004 -0.0156 -0.0984 -0.2011
  271loPI    C1 4321   8.973   7.121  10.154 -0.2114 -0.0172  0.2174
  271loPI    C2 4322   8.902   7.452  10.367  0.1665  0.0898  0.1852
  271loPI    C3 4323   9.146   7.169  10.512  0.1453  0.0003  0.0478
  271loPI   PO4 4324   9.114   7.252   9.844  0.0024 -0.1324 -0.1035
  271loPI   GL1 4325   8.956   7.471   9.479 -0.2440 -0.1615  0.0761
  271loPI   GL2 4326   8.712   7.363   9.509  0.0698 -0.0941  0.0566
  271loPI   C1A 4327   8.794   7.778   9.180 -0.0955  0.0796  0.0687
  271loPI   C2A 4328   8.746   7.758   8.788  0.3617  0.1598  0.0242
  271loPI   C3A 4329   8.779   7.915   8.418 -0.1924 -0.1432  0.0317
  271loPI   C4A 4330   8.607   8.139   8.092  0.5183  0.3042  0.0508
  271loPI   C5A 4331   8.858   8.337   7.888  0.0575  0.3263  0.0056
  271loPI   C6A 4332   9.013   8.695   7.730 -0.0907 -0.1788  0.1224
  271loPI   C1B 4333   8.542   7.327   9.039 -0.2773 -0.1489  0.1371
  271loPI   C2B 4334   8.471   7.076   8.717  0.1972  0.0560 -0.2287
  271loPI   C3B 4335   8.568   7.095   8.378 -0.3216 -0.1768 -0.1121
  271loPI   C4B 4336   8.791   7.155   8.030 -0.0111  0.2851 -0.0396
  272loPI    C1 4337   8.068   1.917   9.878  0.1203  0.0340 -0.1060
  272loPI    C2 4338   8.031   2.315   9.880  0.3056  0.0556 -0.4031
  272loPI    C3 4339   8.257   2.133  10.156 -0.2318  0.1020  0.0870
  272loPI   PO4 4340   7.846   1.830   9.879 -0.4528 -0.1070 -0.1018
  272loPI   GL1 4341   7.536   1.885   9.696  0.0378 -0.1362  0.1305
  272loPI   GL2 4342   7.627   2.144   9.403 -0.0288  0.0283  0.2439
  272loPI   C1A 4343   7.216   1.957   9.346  0.4264 -0.0200  0.1722
  272loPI   C2A 4344   7.222   1.804   8.971  0.0414 -0.2896 -0.1736
  272loPI   C3A 4345   7.202   1.644   8.529  0.0548 -0.1352  0.0122
  272loPI   C4A 4346   6.921   1.628   8.169  0.0236  0.1886  0.0289
  272loPI   C5A 4347   6.898   1.407   7.749  0.0583 -0.3586 -0.3242
  272loPI   C6A 4348   7.084   1.352   7.312 -0.0643  0.3989  0.0761
  272loPI   C1B 4349   7.712   1.879   9.117 -0.0272  0.0031  0.1297
  272loPI   C2B 4350   7.697   1.875   8.732  0.0782 -0.1334 -0.0718
  272loPI   C3B 4351   7.629   1.692   8.379 -0.1846 -0.0039  0.1595
  272loPI   C4B 4352   7.746   1.437   8.038  0.2067  0.3151  0.0714
  273loPI    C1 4353  14.200   2.109   9.976 -0.0466  0.0035 -0.1432
  273loPI    C2 4354  14.398   1.774  10.069  0.1053  0.1066 -0.0907
  273loPI    C3 4355  14.461   2.108  10.279 -0.0332  0.1731 -0.1535
  273loPI   PO4 4356  14.045   1.916   9.750 -0.2749 -0.3638 -0.0606
  273loPI   GL1 4357  14.170   2.016   9.356  0.0560  0.1655  0.0252
  273loPI   GL2 4358  14.231   1.679   9.213  0.4227  0.1788  0.0638
  273loPI   C1A 4359  13.886   1.952   8.913 -0.1832 -0.2924  0.3937
  273loPI   C2A 4360  13.752   1.740   8.568 -0.1612  0.1136 -0.1708
  273loPI   C3A 4361  13.630   1.605   8.257  0.0506 -0.0498  0.3008
  273loPI   C4A 4362  13.729   1.304   7.951  0.3399 -0.0477  0.1421
  273loPI   C5A 4363  13.785   1.016   7.604 -0.1392  0.0995  0.0036
  273loPI   C6A 4364  13.733   0.668   7.295  0.1294 -0.1486  0.1839
  273loPI   C1B 4365  14.161   1.551   8.846  0.0594  0.0211  0.1104
  273loPI   C2B 4366  14.148   1.441   8.497  0.0426  0.0090 -0.2525
  273loPI   C3B 4367  14.197   1.327   8.161 -0.0603 -0.0411  0.0454
  273loPI   C4B 4368  14.193   1.383   7.679  0.1800  0.0994  0.0342
  274loPI    C1 4369  17.985   1.097  10.247 -0.2057 -0.1157 -0.0048
  274loPI    C2 4370  17.956   1.214  10.628  0.1325 -0.0756  0.0114
  274loPI    C3 4371  18.266   0.991  10.510  0.2197  0.2081 -0.3137
  274loPI   PO4 4372  18.062   1.177  10.095  0.0598  0.1240 -0.1310
  274loPI   GL1 4373  18.113   1.060   9.637 -0.0752 -0.0109 -0.1374
  274loPI   GL2 4374  18.070   0.750   9.630 -0.1070 -0.1282 -0.1403
  274loPI   C1A 4375  18.221   0.980   9.199 -0.0869  0.0330  0.0853
  274loPI   C2A 4376  18.256   0.902   8.861  0.0659  0.2352  0.0648
  274loPI   C3A 4377  18.386   0.646   8.458 -0.2144 -0.2120  0.2543
  274loPI   C4A 4378  18.504   0.861   8.105 -0.0226 -0.0200  0.0032
  274loPI   C5A 4379  18.742   1.094   7.820 -0.0212 -0.0235 -0.0032
  274loPI   C6A 4380  18.892   1.100   7.396 -0.0893 -0.2045 -0.0410
  274loPI   C1B 4381  18.161   0.462   9.243  0.1825 -0.2138 -0.2380
  274loPI   C2B 4382  18.270   0.301   8.749 -0.2835  0.3041 -0.1265
  274loPI   C3B 4383  18.229   0.235   8.274  0.0931  0.2013 -0.0894
  274loPI   C4B 4384  18.153   0.540   7.948 -0.2749  0.0217 -0.3294
  275loPI    C1 4385   5.874  12.032  10.580 -0.1670 -0.0852 -0.0782
  275loPI    C2 4386   5.745  12.390  10.701  0.2183  0.0473 -0.0470
  275loPI    C3 4387   5.853  12.115  10.970  0.1758  0.0028 -0.0753
  275loPI   PO4 4388   5.630  12.039  10.358  0.1336 -0.3158 -0.0191
  275loPI   GL1 4389   5.385  11.909  10.055 -0.1430  0.3600 -0.5272
  275loPI   GL2 4390   5.408  11.559  10.059 -0.1425  0.1276  0.2163
  275loPI   C1A 4391   5.735  11.778   9.764  0.1840 -0.2283  0.1004
  275loPI   C2A 4392   5.642  11.836   9.269  0.2115  0.0471 -0.1390
  275loPI   C3A 4393   5.739  11.803   8.904 -0.2022  0.1680  0.2061
  275loPI   C4A 4394   5.880  12.011   8.531 -0.0187 -0.1378 -0.1937
  275loPI   C5A 4395   5.799  12.034   8.031  0.5072  0.1946  0.3057
  275loPI   C6A 4396   5.720  12.097   7.596 -0.2172 -0.1284  0.2300
  275loPI   C1B 4397   5.301  11.681   9.619 -0.2312  0.0263 -0.1934
  275loPI   C2B 4398   5.230  12.089   9.404 -0.4626 -0.2926  0.1960
  275loPI   C3B 4399   5.297  12.144   8.968 -0.0433 -0.0333 -0.1694
  275loPI   C4B 4400   5.324  12.199   8.533 -0.1315  0.0044 -0.0377
  276loPI    C1 4401   9.650  16.075   9.895  0.0866  0.0344  0.0543
  276loPI    C2 4402   9.962  15.993  10.131 -0.1083 -0.0401  0.2890
  276loPI    C3 4403   9.773  15.697   9.940  0.0381  0.0183  0.0501
  276loPI   PO4 4404   9.755  16.273   9.729  0.1852 -0.3924 -0.0325
  276loPI   GL1 4405   9.648  16.349   9.338 -0.0647  0.0835 -0.0506
  276loPI   GL2 4406   9.372  16.315   9.255  0.2678  0.1559 -0.0785
  276loPI   C1A 4407   9.979  16.066   9.113  0.1369 -0.0651 -0.0724
  276loPI   C2A 4408   9.954  16.021   8.654 -0.0710  0.1590  0.0166
  276loPI   C3A 4409  10.006  15.993   8.147  0.0006  0.3635  0.1924
  276loPI   C4A 4410   9.929  15.938   7.679 -0.2228 -0.0606 -0.0021
  276loPI   C5A 4411   9.625  15.685   7.355  0.1156 -0.1514 -0.1002
  276loPI   C6A 4412   9.301  15.457   7.227 -0.1201  0.0684 -0.0620
  276loPI   C1B 4413   9.472  16.031   8.870 -0.0417 -0.0580 -0.2190
  276loPI   C2B 4414   9.488  15.706   8.618 -0.0535 -0.0770  0.1179
  276loPI   C3B 4415   9.610  15.674   8.189  0.1029  0.1369  0.1334
  276loPI   C4B 4416   9.699  15.514   7.781 -0.2241  0.2678  0.2001
  277loPI    C1 4417  15.867   1.732  10.097  0.2074 -0.1085 -0.0126
  277loPI    C2 4418  15.520   1.722  10.295  0.0731  0.1968 -0.2258
  277loPI    C3 4419  15.832   1.513  10.430 -0.1400  0.0602  0.0670
  277loPI   PO4 4420  15.824   1.671   9.889  0.1856  0.1926  0.1012
  277loPI   GL1 4421  15.970   1.672   9.563 -0.1566  0.2824 -0.1251
  277loPI   GL2 4422  15.845   1.856   9.392  0.1645  0.2006  0.3709
  277loPI   C1A 4423  15.985   1.398   9.187  0.2080 -0.1200  0.2187
  277loPI   C2A 4424  16.011   1.377   8.740 -0.2577 -0.1610  0.1823
  277loPI   C3A 4425  15.978   1.310   8.399 -0.0597 -0.1749  0.1021
  277loPI   C4A 4426  16.032   1.351   8.011  0.0935  0.0114 -0.1354
  277loPI   C5A 4427  15.796   1.284   7.626 -0.0747 -0.2354 -0.0943
  277loPI   C6A 4428  15.816   1.183   7.267  0.0129 -0.1751  0.0693
  277loPI   C1B 4429  16.056   1.941   8.998  0.4577 -0.0391 -0.1539
  277loPI   C2B 4430  16.050   1.944   8.632 -0.1706 -0.0695 -0.2897
  277loPI   C3B 4431  16.104   1.851   8.126  0.0919 -0.0031 -0.1802
  277loPI   C4B 4432  15.985   1.750   7.720  0.1225  0.0051 -0.0321
  278loPI    C1 4433  13.245   5.952  10.330  0.0416  0.1193 -0.3003
  278loPI    C2 4434  13.642   5.947  10.377  0.0316 -0.0284 -0.2266
  278loPI    C3 4435  13.415   6.180  10.610  0.0641 -0.0416 -0.1816
  278loPI   PO4 4436  13.172   6.057  10.005 -0.0039 -0.4604 -0.0690
  278loPI   GL1 4437  12.750   6.027   9.633 -0.0385 -0.2165 -0.1028
  278loPI   GL2 4438  12.939   6.294   9.565  0.0372  0.2132 -0.1427
  278loPI   C1A 4439  12.845   5.937   9.264 -0.2344  0.0254  0.2782
  278loPI   C2A 4440  12.821   5.744   8.786 -0.1053 -0.2120 -0.0539
  278loPI   C3A 4441  12.857   5.662   8.320  0.1386 -0.0948 -0.1968
  278loPI   C4A 4442  12.886   5.603   7.925 -0.0291 -0.1506 -0.2393
  278loPI   C5A 4443  12.761   5.369   7.526 -0.0568  0.1062  0.3418
  278loPI   C6A 4444  12.851   5.008   7.368 -0.3275 -0.0986  0.2660
  278loPI   C1B 4445  13.053   6.509   9.176 -0.1872 -0.1746  0.0922
  278loPI   C2B 4446  12.989   6.560   8.813  0.0366 -0.0508  0.1094
  278loPI   C3B 4447  12.959   6.668   8.383  0.1294 -0.2245  0.2467
  278loPI   C4B 4448  13.207   6.804   7.929  0.4023  0.1205  0.0247
  279loPI    C1 4449  14.300  13.501  10.129 -0.2649 -0.0581  0.2534
  279loPI    C2 4450  14.556  13.359  10.402 -0.2322  0.0573  0.2831
  279loPI    C3 4451  14.240  13.575  10.518 -0.1222  0.2559  0.2182
  279loPI   PO4 4452  14.400  13.515   9.987 -0.0256  0.0898  0.4590
  279loPI   GL1 4453  14.441  13.758   9.624 -0.0129 -0.1400 -0.1812
  279loPI   GL2 4454  14.591  13.465   9.476  0.1547 -0.0653 -0.2294
  279loPI   C1A 4455  14.258  13.798   9.196  0.1608 -0.0915  0.2207
  279loPI   C2A 4456  14.394  13.718   8.800  0.1235 -0.1331 -0.1259
  279loPI   C3A 4457  14.533  13.630   8.396  0.2576 -0.2657 -0.3765
  279loPI   C4A 4458  14.774  13.641   8.070  0.3504 -0.2473  0.1952
  279loPI   C5A 4459  15.056  13.847   7.808  0.1084 -0.0930 -0.1024
  279loPI   C6A 4460  15.230  13.858   7.455  0.1486 -0.1921  0.0190
  279loPI   C1B 4461  14.544  13.248   9.082 -0.3166  0.0099 -0.1839
  279loPI   C2B 4462  14.603  13.211   8.684 -0.3714  0.0231 -0.2013
  279loPI   C3B 4463  14.814  13.182   8.418 -0.1806  0.0765 -0.1269
  279loPI   C4B 4464  14.931  13.101   7.903 -0.0769  0.1066  0.0625
  280loPI    C1 4465   6.334   5.009   9.771  0.1422  0.0079 -0.1057
  280loPI    C2 4466   6.039   4.744   9.825  0.1237  0.0402 -0.0482
  280loPI    C3 4467   5.982   5.063   9.590  0.1185  0.0373 -0.0509
  280loPI   PO4 4468   6.555   4.847   9.824  0.0008 -0.1406 -0.1646
  280loPI   GL1 4469   6.772   4.652   9.549 -0.1187  0.0338 -0.2798
  280loPI   GL2 4470   6.882   4.855   9.459 -0.0408 -0.0235  0.3317
  280loPI   C1A 4471   6.354   4.642   9.228  0.0313  0.0354 -0.1322
  280loPI   C2A 4472   6.094   4.864   9.093 -0.0925  0.1701 -0.0039
  280loPI   C3A 4473   5.987   5.042   8.759  0.3762 -0.0940 -0.1795
  280loPI   C4A 4474   5.793   4.907   8.455  0.1244 -0.1021 -0.1216
  280loPI   C5A 4475   5.764   5.016   8.044  0.0630  0.1480  0.0624
  280loPI   C6A 4476   5.445   5.070   7.828  0.0384 -0.0896  0.0613
  280loPI   C1B 4477   6.723   4.931   9.044 -0.2209  0.2086  0.1516
  280loPI   C2B 4478   6.536   4.913   8.791  0.0667  0.0973 -0.0568
  280loPI   C3B 4479   6.463   4.630   8.635 -0.1085 -0.4094 -0.0973
  280loPI   C4B 4480   6.251   4.680   8.200 -0.0917 -0.1000 -0.0007
  281loPI    C1 4481   7.428  12.602  10.260  0.0175  0.1329 -0.2508
  281loPI    C2 4482   7.339  12.932  10.052  0.0153  0.2102 -0.1280
  281loPI    C3 4483   7.417  12.957  10.444  0.1439  0.0825 -0.1449
  281loPI   PO4 4484   7.530  12.454  10.066 -0.3579  0.0136  0.2396
  281loPI   GL1 4485   7.561  12.459   9.632  0.0232  0.2840 -0.0296
  281loPI   GL2 4486   7.631  12.730   9.627 -0.1025  0.4150 -0.1739
  281loPI   C1A 4487   7.766  12.201   9.257  0.0046  0.3841  0.3794
  281loPI   C2A 4488   7.732  12.275   8.850  0.3032  0.0973 -0.1237
  281loPI   C3A 4489   7.676  12.258   8.400  0.0982 -0.1002  0.0090
  281loPI   C4A 4490   7.665  12.041   7.939  0.2497  0.0407 -0.0441
  281loPI   C5A 4491   7.866  12.032   7.585  0.0717 -0.1814 -0.1425
  281loPI   C6A 4492   7.764  12.204   7.210 -0.3088  0.1702 -0.2810
  281loPI   C1B 4493   7.450  12.641   9.166  0.3666 -0.0063 -0.3908
  281loPI   C2B 4494   7.288  12.645   8.615  0.4542 -0.0773 -0.2163
  281loPI   C3B 4495   7.099  12.550   8.253  0.2429  0.0299  0.2192
  281loPI   C4B 4496   6.720  12.599   7.986 -0.1592  0.2905 -0.3470
  282loPI    C1 4497  18.898   4.577  10.139  0.2459  0.0404 -0.1677
  282loPI    C2 4498  19.011   4.516  10.518  0.1161 -0.1499 -0.1584
  282loPI    C3 4499  18.623   4.550  10.427  0.1313 -0.3524 -0.3078
  282loPI   PO4 4500  19.021   4.382   9.994  0.0182  0.1693 -0.0162
  282loPI   GL1 4501  19.348   4.423   9.617 -0.2294 -0.1517 -0.1784
  282loPI   GL2 4502  19.519   4.547   9.856 -0.0262  0.3213  0.0091
  282loPI   C1A 4503  19.319   4.336   9.216  0.1131 -0.1374  0.0761
  282loPI   C2A 4504  19.453   4.300   8.834  0.0898 -0.1494 -0.0093
  282loPI   C3A 4505  19.485   4.355   8.478 -0.1433 -0.2705  0.1767
  282loPI   C4A 4506  19.488   4.295   8.130  0.2292  0.1086 -0.0947
  282loPI   C5A 4507  19.296   4.338   7.703  0.1726 -0.0987 -0.1993
  282loPI   C6A 4508  18.883   4.458   7.467 -0.0791 -0.2015  0.0512
  282loPI   C1B 4509  19.836   4.339   9.398 -0.1783 -0.1479 -0.0078
  282loPI   C2B 4510  19.818   4.122   9.107  0.1192 -0.0313  0.0492
  282loPI   C3B 4511  19.875   4.085   8.710  0.0872 -0.0333 -0.2865
  282loPI   C4B 4512  20.053   4.028   8.360 -0.5533 -0.0299 -0.1762
  283loPI    C1 4513  15.286   1.705   9.837 -0.0513 -0.3065 -0.2050
  283loPI    C2 4514  14.889   1.661   9.836 -0.0643 -0.2112  0.0210
  283loPI    C3 4515  15.116   1.422  10.062 -0.0191 -0.0621  0.1342
  283loPI   PO4 4516  15.364   1.696   9.618  0.1397 -0.2463 -0.1452
  283loPI   GL1 4517  15.405   1.432   9.268  0.5944 -0.0062 -0.0682
  283loPI   GL2 4518  15.484   1.198   9.150 -0.0232 -0.2628 -0.2811
  283loPI   C1A 4519  15.164   1.487   8.927  0.1316  0.2587  0.0641
  283loPI   C2A 4520  15.119   1.450   8.448 -0.0173  0.2531  0.0374
  283loPI   C3A 4521  15.073   1.337   8.060 -0.3237 -0.2873  0.1967
  283loPI   C4A 4522  15.077   1.353   7.692  0.0915  0.1548  0.2795
  283loPI   C5A 4523  14.898   1.287   7.233  0.1093 -0.2011  0.1061
  283loPI   C6A 4524  14.471   1.189   7.048  0.0331  0.3670  0.0347
  283loPI   C1B 4525  15.478   1.217   8.690 -0.0906  0.1267  0.1910
  283loPI   C2B 4526  15.538   1.151   8.281 -0.2126 -0.1100  0.3781
  283loPI   C3B 4527  15.490   0.968   7.934 -0.3462  0.1813  0.2464
  283loPI   C4B 4528  14.998   0.868   7.753  0.1819  0.1500  0.1607
  284loPI    C1 4529  18.358  13.037  10.675 -0.0242 -0.0920  0.1792
  284loPI    C2 4530  18.722  12.879  10.727  0.1228  0.1976  0.0514
  284loPI    C3 4531  18.428  12.794  10.986  0.2366 -0.1619  0.0681
  284loPI   PO4 4532  18.386  12.894  10.385  0.1724  0.1264  0.2805
  284loPI   GL1 4533  18.308  13.073   9.926 -0.2342 -0.0379  0.3658
  284loPI   GL2 4534  18.054  13.015   9.799  0.1355  0.0469  0.0959
  284loPI   C1A 4535  18.603  13.074   9.584  0.1306  0.2816 -0.2511
  284loPI   C2A 4536  18.721  12.948   9.157 -0.1841  0.2418  0.0682
  284loPI   C3A 4537  18.635  13.044   8.769 -0.0799  0.3041  0.1052
  284loPI   C4A 4538  18.594  13.417   8.550 -0.1827  0.2466 -0.3414
  284loPI   C5A 4539  18.606  13.671   8.188  0.1089 -0.0760 -0.1697
  284loPI   C6A 4540  18.773  14.036   8.082  0.1656 -0.0927  0.3269
  284loPI   C1B 4541  17.992  12.740   9.460  0.2616 -0.0316  0.0873
  284loPI   C2B 4542  18.203  12.875   9.028 -0.3047 -0.2340 -0.0647
  284loPI   C3B 4543  18.111  13.041   8.660 -0.0664  0.1801 -0.0829
  284loPI   C4B 4544  18.023  12.858   8.340  0.0922  0.2092 -0.2672
  285loPI    C1 4545  13.626  15.791  10.015 -0.0176 -0.3358 -0.0572
  285loPI    C2 4546  13.525  15.512  10.283  0.0292 -0.1654  0.1401
  285loPI    C3 4547  13.300  15.840  10.240  0.1775 -0.0587  0.1720
  285loPI   PO4 4548  13.818  15.548   9.773 -0.0700  0.0687  0.1715
  285loPI   GL1 4549  13.831  15.336   9.394 -0.0882 -0.0517  0.0196
  285loPI   GL2 4550  13.931  15.660   9.303  0.1760 -0.1338 -0.1578
  285loPI   C1A 4551  14.124  15.134   9.087 -0.2537 -0.2396  0.0834
  285loPI   C2A 4552  14.044  15.009   8.582  0.2199  0.1719  0.0035
  285loPI   C3A 4553  14.038  15.120   8.088 -0.2139  0.2373  0.0561
  285loPI   C4A 4554  14.064  15.330   7.688  0.0914  0.0501  0.0696
  285loPI   C5A 4555  13.933  15.362   7.247  0.1651 -0.1009  0.0554
  285loPI   C6A 4556  13.993  15.418   6.805  0.0527  0.1496  0.2437
  285loPI   C1B 4557  13.907  15.603   8.912  0.0116  0.1674 -0.1121
  285loPI   C2B 4558  13.928  15.565   8.459 -0.0377  0.0049  0.0142
  285loPI   C3B 4559  13.763  15.546   7.981 -0.0278  0.2627  0.1432
  285loPI   C4B 4560  13.515  15.445   7.634  0.0545 -0.2325 -0.2791
  286loPI    C1 4561  13.451  14.197  10.047 -0.0982  0.0047  0.2842
  286loPI    C2 4562  13.520  13.828   9.909  0.0527  0.1570 -0.0584
  286loPI    C3 4563  13.451  13.886  10.298  0.1553 -0.2156  0.0191
  286loPI   PO4 4564  13.659  14.304   9.769 -0.2014 -0.0664  0.0654
  286loPI   GL1 4565  13.415  14.379   9.423  0.1285 -0.1033  0.0518
  286loPI   GL2 4566  13.172  14.197   9.532 -0.3023  0.1368 -0.3787
  286loPI   C1A 4567  13.632  14.284   9.085 -0.2326  0.1322 -0.2797
  286loPI   C2A 4568  13.681  14.172   8.687  0.0694 -0.0137 -0.0555
  286loPI   C3A 4569  13.576  14.113   8.365  0.0999 -0.2347  0.0622
  286loPI   C4A 4570  13.676  14.109   7.976 -0.1670 -0.2347 -0.0366
  286loPI   C5A 4571  13.870  13.928   7.574 -0.2485  0.0041  0.1231
  286loPI   C6A 4572  14.132  13.510   7.532  0.2110  0.0766 -0.1271
  286loPI   C1B 4573  13.283  13.943   9.121  0.2797  0.0065  0.3584
  286loPI   C2B 4574  13.353  13.850   8.722  0.1559  0.0346 -0.2774
  286loPI   C3B 4575  13.514  13.664   8.168 -0.1514 -0.4183  0.0563
  286loPI   C4B 4576  13.789  13.536   7.887 -0.0940  0.0954  0.1334
  287loPI    C1 4577  12.274   7.011  10.049  0.0266 -0.0252 -0.2391
  287loPI    C2 4578  12.534   6.722  10.144  0.2759  0.2830  0.0405
  287loPI    C3 4579  12.289   6.869  10.423 -0.1082  0.0928 -0.1883
  287loPI   PO4 4580  12.235   7.042   9.794  0.0966 -0.0865 -0.2486
  287loPI   GL1 4581  12.427   7.145   9.435  0.0522 -0.1010 -0.1580
  287loPI   GL2 4582  12.603   6.901   9.376 -0.0501  0.1948 -0.0143
  287loPI   C1A 4583  12.326   7.082   9.061  0.0210  0.1820 -0.2424
  287loPI   C2A 4584  12.196   7.281   8.600  0.2576  0.0537  0.0369
  287loPI   C3A 4585  12.005   7.575   8.394 -0.1411 -0.2868 -0.2743
  287loPI   C4A 4586  12.043   7.758   7.933 -0.0726  0.1355 -0.1650
  287loPI   C5A 4587  11.858   7.873   7.582 -0.0235  0.0174  0.0442
  287loPI   C6A 4588  11.624   7.716   7.246 -0.0772 -0.0087 -0.2123
  287loPI   C1B 4589  12.534   6.641   9.050 -0.1305  0.0250  0.1071
  287loPI   C2B 4590  12.381   6.675   8.673 -0.1509 -0.1046  0.0293
  287loPI   C3B 4591  12.046   6.832   8.324  0.2910  0.1246  0.1067
  287loPI   C4B 4592  12.071   6.513   7.956 -0.1859 -0.0768 -0.0239
  288loPI    C1 4593   0.130   6.417  10.448  0.0442 -0.1308 -0.1644
  288loPI    C2 4594   0.123   6.093  10.683 -0.0631 -0.1158 -0.1463
  288loPI    C3 4595  -0.165   6.369  10.714  0.1046  0.0521 -0.0631
  288loPI   PO4 4596   0.036   6.474  10.201 -0.0501  0.0366 -0.5559
  288loPI   GL1 4597   0.213   6.488   9.675  0.2653  0.0424 -0.0541
  288loPI   GL2 4598   0.032   6.632   9.553 -0.0956 -0.1777 -0.1746
  288loPI   C1A 4599   0.286   6.316   9.319 -0.1627 -0.1496 -0.1125
  288loPI   C2A 4600   0.429   6.270   8.892 -0.1902 -0.3515 -0.1441
  288loPI   C3A 4601   0.573   6.288   8.513 -0.0852  0.0848  0.1523
  288loPI   C4A 4602   0.827   6.211   8.297  0.0823 -0.1260 -0.1499
  288loPI   C5A 4603   0.810   6.220   7.896  0.1564 -0.2102  0.3992
  288loPI   C6A 4604   1.055   6.007   7.589 -0.3160 -0.1001  0.0255
  288loPI   C1B 4605  -0.265   6.818   9.225 -0.0904 -0.1788  0.1696
  288loPI   C2B 4606  -0.231   6.942   8.865  0.2929 -0.1366  0.0201
  288loPI   C3B 4607  -0.403   6.971   8.404 -0.1107  0.1903 -0.2596
  288loPI   C4B 4608  -0.455   7.085   7.989  0.1776  0.2141 -0.0540
  289loPI    C1 4609   3.267  12.702   9.904 -0.0505 -0.0792  0.0283
  289loPI    C2 4610   2.870  12.654   9.878 -0.0290 -0.1486 -0.1930
  289loPI    C3 4611   3.031  12.816  10.207 -0.2338 -0.1900 -0.0706
  289loPI   PO4 4612   3.309  12.906   9.716  0.0633 -0.2381 -0.0045
  289loPI   GL1 4613   3.126  12.804   9.346 -0.0053 -0.0878  0.0230
  289loPI   GL2 4614   2.875  12.828   9.407  0.1126  0.4648  0.0343
  289loPI   C1A 4615   3.378  12.730   9.019  0.2262 -0.0912 -0.3967
  289loPI   C2A 4616   3.585  12.618   8.623  0.1389  0.1954  0.0064
  289loPI   C3A 4617   3.463  12.498   8.218  0.3088  0.0789 -0.0932
  289loPI   C4A 4618   3.320  12.511   7.824  0.0722 -0.0218  0.0539
  289loPI   C5A 4619   3.232  12.308   7.412  0.0617  0.0791 -0.1243
  289loPI   C6A 4620   3.149  12.415   7.050  0.1700 -0.0942 -0.2338
  289loPI   C1B 4621   2.780  12.891   8.907  0.2755  0.1038  0.1726
  289loPI   C2B 4622   2.707  12.996   8.444  0.1287  0.2138  0.3053
  289loPI   C3B 4623   2.695  12.941   8.064  0.4499  0.2833  0.0558
  289loPI   C4B 4624   2.688  13.196   7.689 -0.1103  0.2745  0.0021
  290loPI    C1 4625   7.779   3.164  10.108  0.0218  0.0399 -0.1743
  290loPI    C2 4626   7.617   3.385  10.400  0.2478 -0.0589  0.0293
  290loPI    C3 4627   7.954   3.180  10.467  0.3016 -0.0855 -0.3020
  290loPI   PO4 4628   7.709   3.194   9.863  0.1625  0.0544  0.0272
  290loPI   GL1 4629   7.514   3.262   9.578  0.1270  0.2876  0.0166
  290loPI   GL2 4630   7.488   3.574   9.466 -0.0793  0.0741  0.2896
  290loPI   C1A 4631   7.179   3.045   9.394 -0.0226  0.3786  0.2774
  290loPI   C2A 4632   7.136   3.059   8.973 -0.1388  0.4995 -0.1720
  290loPI   C3A 4633   7.204   3.093   8.527  0.3611  0.1113 -0.0300
  290loPI   C4A 4634   7.165   3.244   8.076 -0.3552 -0.0000  0.2188
  290loPI   C5A 4635   7.247   3.123   7.757 -0.1096 -0.0409  0.1327
  290loPI   C6A 4636   7.222   2.854   7.348 -0.0407 -0.1505  0.0250
  290loPI   C1B 4637   7.586   3.461   9.122  0.2834 -0.1704 -0.0872
  290loPI   C2B 4638   7.736   3.329   8.742 -0.1748 -0.0151  0.2051
  290loPI   C3B 4639   7.606   3.341   8.403  0.0465 -0.0093  0.1871
  290loPI   C4B 4640   7.676   3.356   7.953 -0.1799  0.0314  0.2744
  291loPI    C1 4641   6.095   9.277  10.266  0.0067  0.1428 -0.0268
  291loPI    C2 4642   6.304   8.939  10.309 -0.0839  0.0838 -0.0476
  291loPI    C3 4643   6.170   9.133  10.632  0.1801  0.2341 -0.0251
  291loPI   PO4 4644   6.201   9.374  10.019  0.0772  0.0779 -0.3029
  291loPI   GL1 4645   6.226   9.554   9.628  0.1779  0.0354  0.3258
  291loPI   GL2 4646   6.541   9.550   9.560 -0.0358 -0.2926 -0.2113
  291loPI   C1A 4647   6.257   9.557   9.117  0.1038  0.2561  0.2878
  291loPI   C2A 4648   6.476   9.552   8.907  0.0031 -0.0893  0.1172
  291loPI   C3A 4649   6.456   9.629   8.474  0.0379  0.1068  0.2061
  291loPI   C4A 4650   6.371   9.691   8.037  0.3373 -0.6672  0.1639
  291loPI   C5A 4651   6.358   9.433   7.754 -0.0311 -0.0141  0.1970
  291loPI   C6A 4652   6.052   9.200   7.542 -0.1231  0.0913 -0.0198
  291loPI   C1B 4653   6.529   9.199   9.331 -0.2040  0.1628  0.1309
  291loPI   C2B 4654   6.559   9.054   8.955  0.1659 -0.0200  0.0497
  291loPI   C3B 4655   6.387   9.078   8.525  0.2988  0.1294  0.3259
  291loPI   C4B 4656   6.120   9.291   8.252  0.0179  0.1475  0.1158
  292loPI    C1 4657   2.938   8.754   9.806  0.0606  0.1131 -0.1143
  292loPI    C2 4658   3.000   8.923  10.164  0.0943  0.1980 -0.1599
  292loPI    C3 4659   3.299   8.732   9.979  0.0953  0.2127 -0.1733
  292loPI   PO4 4660   2.688   8.934   9.768 -0.1313 -0.1175  0.0407
  292loPI   GL1 4661   2.574   9.232   9.359  0.1762  0.2197  0.1228
  292loPI   GL2 4662   2.906   9.095   9.327 -0.1128  0.0049  0.2377
  292loPI   C1A 4663   2.561   9.129   9.037 -0.1620  0.0213  0.2235
  292loPI   C2A 4664   2.515   8.903   8.667  0.2729 -0.3728 -0.2599
  292loPI   C3A 4665   2.479   8.737   8.303 -0.1665 -0.0895 -0.0475
  292loPI   C4A 4666   2.338   8.739   7.855  0.1541  0.0348 -0.0947
  292loPI   C5A 4667   2.090   8.474   7.604  0.3881 -0.0009 -0.0169
  292loPI   C6A 4668   1.771   8.610   7.289 -0.2372 -0.1235 -0.3175
  292loPI   C1B 4669   3.007   8.963   8.841 -0.1818 -0.1415  0.0238
  292loPI   C2B 4670   2.994   8.949   8.383  0.1071  0.1500 -0.0072
  292loPI   C3B 4671   2.860   8.785   8.017  0.1423  0.0972  0.0782
  292loPI   C4B 4672   2.762   8.588   7.686  0.0293 -0.0514 -0.0200
  293loPI    C1 4673  10.399  10.135  10.272  0.2193  0.0483 -0.0367
  293loPI    C2 4674  10.211   9.782  10.258  0.0968  0.1094  0.0571
  293loPI    C3 4675  10.391   9.900  10.596 -0.0313  0.2231  0.0866
  293loPI   PO4 4676  10.497  10.099   9.990 -0.1960  0.2051 -0.1704
  293loPI   GL1 4677  10.311   9.886   9.675 -0.2219  0.2150 -0.0870
  293loPI   GL2 4678  10.354   9.609   9.716 -0.0589 -0.2132  0.0174
  293loPI   C1A 4679  10.129  10.137   9.271 -0.1010  0.1053  0.3404
  293loPI   C2A 4680  10.130  10.317   8.850 -0.0086  0.0075  0.1447
  293loPI   C3A 4681  10.242  10.448   8.515  0.0221 -0.1128  0.0789
  293loPI   C4A 4682  10.340  10.752   8.176 -0.1839  0.1302 -0.2300
  293loPI   C5A 4683  10.496  11.059   7.814  0.1445  0.1112  0.1018
  293loPI   C6A 4684  10.678  11.307   7.418  0.1305  0.1396 -0.1330
  293loPI   C1B 4685  10.388   9.710   9.175 -0.1482  0.1133  0.1511
  293loPI   C2B 4686  10.190   9.807   8.798 -0.1510  0.1025  0.0251
  293loPI   C3B 4687  10.312   9.865   8.415 -0.0414 -0.2278 -0.1992
  293loPI   C4B 4688  10.236   9.675   8.136  0.1626  0.2334  0.0092
  294loPI    C1 4689   9.574   0.864   9.583 -0.0185  0.2822 -0.1129
  294loPI    C2 4690   9.610   0.992   9.961  0.0706  0.1473 -0.0748
  294loPI    C3 4691   9.269   1.053   9.760 -0.0183  0.1180  0.0660
  294loPI   PO4 4692   9.798   1.005   9.452 -0.0022 -0.0418  0.0431
  294loPI   GL1 4693   9.984   1.205   9.120  0.0132 -0.0753  0.1153
  294loPI   GL2 4694  10.154   1.444   9.294 -0.4884 -0.0371  0.0319
  294loPI   C1A 4695   9.956   1.097   8.696  0.3651  0.0090 -0.1551
  294loPI   C2A 4696  10.005   1.136   8.240 -0.0685  0.0324 -0.0488
  294loPI   C3A 4697   9.845   1.254   7.831 -0.2265 -0.0388 -0.1497
  294loPI   C4A 4698   9.469   1.420   7.601  0.0136  0.1703  0.1121
  294loPI   C5A 4699   9.231   1.212   7.372 -0.0639 -0.1650  0.0315
  294loPI   C6A 4700   8.861   1.314   7.173  0.3343  0.0431 -0.0377
  294loPI   C1B 4701  10.394   1.464   8.970  0.2106 -0.0482 -0.1820
  294loPI   C2B 4702  10.324   1.446   8.531 -0.1372 -0.2745  0.5168
  294loPI   C3B 4703  10.294   1.429   8.026 -0.0995  0.0951  0.1852
  294loPI   C4B 4704  10.345   1.657   7.681 -0.2970  0.0038  0.1098
  295loPI    C1 4705   7.521   7.874   9.810 -0.3186  0.1446 -0.0894
  295loPI    C2 4706   7.844   8.107   9.836 -0.1734 -0.0533 -0.0954
  295loPI    C3 4707   7.577   8.102  10.134 -0.0770 -0.0273 -0.0077
  295loPI   PO4 4708   7.659   7.531   9.705  0.1445 -0.0866 -0.1119
  295loPI   GL1 4709   7.739   7.321   9.300 -0.0315  0.1566 -0.4922
  295loPI   GL2 4710   7.829   7.511   9.127  0.0920 -0.0292 -0.5332
  295loPI   C1A 4711   7.548   7.263   8.818  0.4124  0.0228 -0.2894
  295loPI   C2A 4712   7.460   7.162   8.283 -0.0338 -0.0877  0.0671
  295loPI   C3A 4713   7.390   7.195   7.890  0.2260  0.0866 -0.0698
  295loPI   C4A 4714   7.640   7.065   7.474 -0.1340  0.6955  0.1309
  295loPI   C5A 4715   7.830   6.594   7.321  0.2068  0.0619 -0.2449
  295loPI   C6A 4716   7.584   6.430   6.863  0.0934  0.0128 -0.1257
  295loPI   C1B 4717   8.261   7.766   9.067  0.1354 -0.1082 -0.0156
  295loPI   C2B 4718   8.566   8.183   8.976 -0.2033  0.4136  0.3708
  295loPI   C3B 4719   8.630   8.574   9.002 -0.3528  0.0830 -0.2462
  295loPI   C4B 4720   9.097   8.768   8.991 -0.0312 -0.3284 -0.1308
  296loPI    C1 4721  11.203  17.307  10.097  0.2175 -0.1329 -0.2683
  296loPI    C2 4722  10.934  17.200  10.373  0.1592  0.0376 -0.2578
  296loPI    C3 4723  11.300  17.315  10.485  0.1113  0.1795 -0.2459
  296loPI   PO4 4724  11.206  17.060   9.875 -0.0210  0.0759 -0.1310
  296loPI   GL1 4725  11.369  17.078   9.399  0.0753  0.1013 -0.2779
  296loPI   GL2 4726  11.243  17.313   9.193 -0.0018  0.1424 -0.1431
  296loPI   C1A 4727  11.365  16.801   9.019  0.0043 -0.0520  0.1767
  296loPI   C2A 4728  11.309  16.739   8.527 -0.0528 -0.2121  0.2619
  296loPI   C3A 4729  11.080  16.719   8.214  0.0713 -0.0056  0.3165
  296loPI   C4A 4730  10.881  16.841   7.810 -0.1821 -0.2321 -0.1170
  296loPI   C5A 4731  11.088  17.068   7.417 -0.0460  0.1655 -0.1607
  296loPI   C6A 4732  11.109  17.403   7.072 -0.1535 -0.0931 -0.1274
  296loPI   C1B 4733  11.406  17.255   8.820  0.1532  0.1273 -0.0206
  296loPI   C2B 4734  11.340  17.231   8.390 -0.1103 -0.2164 -0.0311
  296loPI   C3B 4735  11.266  17.238   7.926 -0.0835 -0.3948 -0.0925
  296loPI   C4B 4736  11.474  17.403   7.515 -0.1399 -0.2046 -0.2564
  297loPI    C1 4737   7.254  17.333  10.226 -0.0161 -0.0562  0.0391
  297loPI    C2 4738   6.933  17.232  10.443  0.0882 -0.2018  0.1269
  297loPI    C3 4739   7.294  17.090  10.541  0.2536  0.3100  0.2955
  297loPI   PO4 4740   7.204  17.317   9.920  0.1761 -0.2918 -0.0614
  297loPI   GL1 4741   7.252  17.088   9.514 -0.2031 -0.0697  0.2930
  297loPI   GL2 4742   7.043  17.355   9.391  0.1347  0.0006 -0.0703
  297loPI   C1A 4743   7.231  16.944   9.110 -0.0874  0.1281  0.1767
  297loPI   C2A 4744   7.384  16.752   8.769 -0.2042 -0.0641  0.3221
  297loPI   C3A 4745   7.331  16.825   8.430  0.3706  0.2591  0.0621
  297loPI   C4A 4746   7.203  16.928   8.015  0.0249 -0.1316  0.1910
  297loPI   C5A 4747   7.297  16.811   7.622  0.1553  0.3175 -0.1863
  297loPI   C6A 4748   7.345  16.918   7.311  0.0267 -0.1226  0.1260
  297loPI   C1B 4749   7.052  17.522   8.945 -0.2516 -0.0968  0.1981
  297loPI   C2B 4750   6.892  17.742   8.620  0.0898 -0.0514  0.0331
  297loPI   C3B 4751   6.857  17.787   8.222  0.0172 -0.1493  0.0075
  297loPI   C4B 4752   6.941  17.839   7.899 -0.0453 -0.0384 -0.2130
  298loPI    C1 4753  11.013   9.112  10.154  0.0778 -0.0441 -0.1145
  298loPI    C2 4754  11.275   9.107  10.456 -0.0181  0.1507 -0.0261
  298loPI    C3 4755  10.946   9.333  10.481 -0.2521 -0.1772 -0.0883
  298loPI   PO4 4756  11.159   9.039   9.970 -0.1824  0.0269 -0.1499
  298loPI   GL1 4757  11.070   9.002   9.584 -0.2063  0.2254  0.0217
  298loPI   GL2 4758  11.275   9.182   9.542 -0.1186 -0.3389  0.0279
  298loPI   C1A 4759  11.005   8.801   9.123  0.2805  0.2700  0.0920
  298loPI   C2A 4760  11.065   8.598   8.755 -0.0387 -0.0186  0.1088
  298loPI   C3A 4761  10.960   8.739   8.379 -0.2650 -0.0262  0.0290
  298loPI   C4A 4762  11.002   8.719   7.936 -0.0355  0.3369  0.4098
  298loPI   C5A 4763  10.657   8.868   7.703  0.2213  0.2387  0.0485
  298loPI   C6A 4764  10.462   9.130   7.426 -0.2441 -0.0141  0.2567
  298loPI   C1B 4765  11.294   9.302   9.071 -0.3226  0.1393  0.1432
  298loPI   C2B 4766  11.329   9.239   8.627  0.0292  0.1209 -0.2901
  298loPI   C3B 4767  11.156   9.202   8.254  0.0803 -0.3841 -0.2350
  298loPI   C4B 4768  11.058   9.232   7.784 -0.0791  0.0878 -0.0684
  299loPI    C1 4769   0.004   9.959   9.819  0.1961  0.1262 -0.1390
  299loPI    C2 4770   0.300   9.703   9.899  0.0945  0.0420 -0.0284
  299loPI    C3 4771  -0.007   9.738  10.152  0.1247  0.2999 -0.0245
  299loPI   PO4 4772  -0.010   9.843   9.497  0.2379 -0.2381 -0.3157
  299loPI   GL1 4773  -0.075  10.107   9.295  0.1115 -0.0248  0.0773
  299loPI   GL2 4774   0.196  10.275   9.101 -0.1617  0.2172  0.3872
  299loPI   C1A 4775  -0.014   9.904   8.788 -0.4025 -0.3738  0.0309
  299loPI   C2A 4776  -0.062   9.899   8.432  0.1569 -0.2954  0.3775
  299loPI   C3A 4777  -0.413   9.896   8.066 -0.0698  0.1002  0.0692
  299loPI   C4A 4778  -0.568   9.732   7.712 -0.1313  0.1162  0.0203
  299loPI   C5A 4779  -0.932   9.522   7.693  0.0956 -0.1750 -0.1346
  299loPI   C6A 4780  -1.185   9.183   7.830  0.0418  0.1050  0.1099
  299loPI   C1B 4781   0.328  10.232   8.661  0.0562  0.0654 -0.0994
  299loPI   C2B 4782   0.377  10.217   8.255  0.1976  0.2192 -0.1533
  299loPI   C3B 4783   0.349  10.177   7.906  0.2303 -0.1065 -0.4949
  299loPI   C4B 4784   0.258  10.383   7.513  0.0527 -0.0763  0.0478
  300loPI    C1 4785   5.754   1.742  10.263 -0.0986  0.2232  0.0814
  300loPI    C2 4786   5.376   1.874  10.271 -0.0772  0.2816  0.1420
  300loPI    C3 4787   5.479   1.548  10.479 -0.1976 -0.0133 -0.2490
  300loPI   PO4 4788   5.835   1.733  10.008 -0.1072 -0.1304 -0.1542
  300loPI   GL1 4789   5.906   1.425   9.565 -0.0197  0.1767  0.3529
  300loPI   GL2 4790   5.637   1.474   9.479  0.2406 -0.1261 -0.3390
  300loPI   C1A 4791   6.071   1.674   9.138 -0.2779  0.1291 -0.1588
  300loPI   C2A 4792   6.194   1.537   8.737 -0.0825  0.2724 -0.3133
  300loPI   C3A 4793   5.893   1.225   8.512 -0.0289 -0.2681 -0.1270
  300loPI   C4A 4794   5.923   0.933   8.101  0.0367 -0.3481 -0.0272
  300loPI   C5A 4795   5.547   0.840   7.882  0.0772  0.1549 -0.2104
  300loPI   C6A 4796   5.214   0.895   7.636  0.0769 -0.3025 -0.2040
  300loPI   C1B 4797   5.229   1.506   9.319 -0.0588  0.0152 -0.0007
  300loPI   C2B 4798   4.703   1.414   9.180  0.0701  0.1845 -0.0915
  300loPI   C3B 4799   4.290   1.200   9.085 -0.0489 -0.0665  0.2034
  300loPI   C4B 4800   4.061   1.006   8.807  0.2926 -0.0917 -0.0665
  301loPI    C1 4801   2.126  18.767  10.319 -0.4078 -0.0919 -0.0668
  301loPI    C2 4802   2.244  19.059  10.566 -0.2040 -0.1829 -0.0549
  301loPI    C3 4803   2.359  18.682  10.633 -0.0613 -0.1942 -0.3455
  301loPI   PO4 4804   2.110  18.912  10.099  0.3404 -0.1189 -0.0996
  301loPI   GL1 4805   1.861  18.807   9.670  0.2723 -0.2669 -0.2129
  301loPI   GL2 4806   1.565  18.976   9.527  0.1974  0.0612  0.0511
  301loPI   C1A 4807   1.827  18.650   9.248 -0.0549 -0.1583  0.1693
  301loPI   C2A 4808   2.060  18.495   8.908  0.2405  0.2318  0.0487
  301loPI   C3A 4809   2.182  18.412   8.483 -0.1387 -0.3742  0.0465
  301loPI   C4A 4810   2.201  18.497   7.993 -0.1090  0.0014  0.2026
  301loPI   C5A 4811   2.463  18.681   7.633  0.0081  0.0850 -0.4324
  301loPI   C6A 4812   2.855  18.858   7.696 -0.1286  0.0983  0.1571
  301loPI   C1B 4813   1.627  19.321   9.307 -0.1651 -0.1187 -0.0295
  301loPI   C2B 4814   1.485  19.662   9.200 -0.0185 -0.0477 -0.1847
  301loPI   C3B 4815   1.609  20.031   8.896 -0.4959 -0.3378 -0.1247
  301loPI   C4B 4816   1.721  20.273   8.688 -0.0624  0.1804 -0.1905
  302loPI    C1 4817   8.550   6.994   9.947 -0.0367  0.0447 -0.0748
  302loPI    C2 4818   8.583   7.392   9.960  0.2571  0.0174  0.1026
  302loPI    C3 4819   8.491   7.188  10.292 -0.1713 -0.0434 -0.0476
  302loPI   PO4 4820   8.441   6.990   9.715 -0.2966  0.0843  0.4080
  302loPI   GL1 4821   8.492   6.851   9.315 -0.1535 -0.0304  0.0600
  302loPI   GL2 4822   8.806   6.822   9.393  0.3444  0.0482 -0.3419
  302loPI   C1A 4823   8.430   6.634   8.921 -0.0217 -0.0467  0.1990
  302loPI   C2A 4824   8.430   6.599   8.505 -0.1074 -0.1065  0.3678
  302loPI   C3A 4825   8.506   6.701   8.100  0.0340 -0.0865 -0.1310
  302loPI   C4A 4826   8.232   6.812   7.744  0.3066  0.1282 -0.0968
  302loPI   C5A 4827   7.756   6.784   7.852  0.0575 -0.2320 -0.0695
  302loPI   C6A 4828   7.477   6.631   8.244 -0.0144 -0.2442  0.3975
  302loPI   C1B 4829   8.898   6.812   8.869  0.1255 -0.1923 -0.1502
  302loPI   C2B 4830   9.017   6.728   8.422 -0.2948 -0.1595  0.1568
  302loPI   C3B 4831   9.059   6.770   8.118  0.0007  0.1901  0.1925
  302loPI   C4B 4832   9.233   6.972   7.830  0.2078  0.1899 -0.2797
  303loPI    C1 4833   6.431   7.440  10.307 -0.3161  0.3133 -0.0555
  303loPI    C2 4834   6.375   7.380  10.698 -0.0088  0.0408 -0.0492
  303loPI    C3 4835   6.585   7.696  10.572 -0.2066  0.1927 -0.0013
  303loPI   PO4 4836   6.246   7.364  10.197  0.3533  0.1038  0.1499
  303loPI   GL1 4837   5.969   7.318   9.914  0.4280 -0.0307  0.3084
  303loPI   GL2 4838   6.148   7.237   9.642  0.0724 -0.3781 -0.1238
  303loPI   C1A 4839   5.671   7.214   9.553  0.2125 -0.0765 -0.0408
  303loPI   C2A 4840   5.818   7.319   9.119  0.0932  0.0446  0.2350
  303loPI   C3A 4841   5.684   7.151   8.757  0.4089  0.1922  0.2651
  303loPI   C4A 4842   5.460   7.255   8.314 -0.3974 -0.0077  0.3133
  303loPI   C5A 4843   5.444   7.652   8.080 -0.0633 -0.2080 -0.0593
  303loPI   C6A 4844   5.423   7.915   7.732  0.0975 -0.0086  0.1186
  303loPI   C1B 4845   6.239   7.043   9.236  0.1191  0.1984  0.1008
  303loPI   C2B 4846   6.130   7.122   8.743 -0.2689  0.1482  0.0619
  303loPI   C3B 4847   6.066   7.238   8.295  0.4376  0.0179 -0.0786
  303loPI   C4B 4848   5.862   7.385   7.941 -0.5646  0.0933  0.1475
  304loPI    C1 4849  14.801  14.565  10.018 -0.1886 -0.0516 -0.0925
  304loPI    C2 4850  14.945  14.451  10.373  0.0109 -0.0813 -0.1820
  304loPI    C3 4851  14.975  14.833  10.259  0.0398 -0.0918 -0.2099
  304loPI   PO4 4852  15.005  14.306   9.871  0.1876  0.1169  0.1858
  304loPI   GL1 4853  15.221  14.389   9.506 -0.2276 -0.1038 -0.2724
  304loPI   GL2 4854  14.926  14.577   9.481  0.1533 -0.0775  0.0584
  304loPI   C1A 4855  15.298  14.099   9.133 -0.0767  0.0165  0.0957
  304loPI   C2A 4856  15.460  13.854   8.770  0.0951  0.2815 -0.0454
  304loPI   C3A 4857  15.596  13.731   8.321  0.0328 -0.2548 -0.1524
  304loPI   C4A 4858  15.571  13.862   7.930  0.2495 -0.2043  0.1915
  304loPI   C5A 4859  15.702  13.909   7.569  0.2298 -0.2783 -0.3721
  304loPI   C6A 4860  15.633  14.123   7.255 -0.0420  0.0676  0.2466
  304loPI   C1B 4861  15.025  14.571   9.047  0.1212 -0.2432 -0.2544
  304loPI   C2B 4862  15.155  14.880   8.715 -0.4742 -0.2032 -0.1673
  304loPI   C3B 4863  15.300  15.080   8.353  0.1796  0.0807  0.1332
  304loPI   C4B 4864  15.489  14.886   7.943  0.3788 -0.2199  0.0633
  305loPI    C1 4865  17.465   9.393  10.137 -0.1390 -0.3420 -0.1116
  305loPI    C2 4866  17.539   9.667  10.418 -0.0446 -0.1217 -0.3481
  305loPI    C3 4867  17.467   9.288  10.523 -0.1879 -0.0064 -0.0173
  305loPI   PO4 4868  17.614   9.409   9.958 -0.1321  0.0253  0.2651
  305loPI   GL1 4869  17.724   9.457   9.587  0.0453  0.0420  0.0054
  305loPI   GL2 4870  17.526   9.701   9.530 -0.1563 -0.0305  0.0837
  305loPI   C1A 4871  17.563   9.196   9.253 -0.2106  0.1010  0.1834
  305loPI   C2A 4872  17.620   9.399   8.831  0.3293  0.3871 -0.0091
  305loPI   C3A 4873  17.460   9.472   8.514  0.2367  0.1109 -0.1101
  305loPI   C4A 4874  17.211   9.692   8.272 -0.1307  0.1725 -0.0009
  305loPI   C5A 4875  17.290  10.063   8.028  0.3151  0.2084 -0.0026
  305loPI   C6A 4876  17.422  10.215   7.559  0.0860  0.2571 -0.2470
  305loPI   C1B 4877  17.496   9.826   9.137 -0.0247  0.0501  0.2183
  305loPI   C2B 4878  17.476   9.927   8.755  0.0920  0.1064  0.2730
  305loPI   C3B 4879  17.651   9.887   8.368  0.2200  0.2530  0.3474
  305loPI   C4B 4880  17.653   9.601   7.997 -0.1851 -0.0211 -0.0393
  306loPI    C1 4881  18.370   7.258  10.046  0.0062 -0.2808  0.0228
  306loPI    C2 4882  18.387   7.331  10.439  0.0520 -0.1650 -0.0002
  306loPI    C3 4883  18.723   7.255  10.235  0.0472 -0.0607 -0.0471
  306loPI   PO4 4884  18.047   7.226   9.875  0.0943 -0.1775 -0.0044
  306loPI   GL1 4885  17.784   7.246   9.427 -0.0261 -0.0848  0.3930
  306loPI   GL2 4886  17.981   7.038   9.429 -0.0103  0.2982  0.1835
  306loPI   C1A 4887  17.819   7.303   8.993 -0.0112  0.1256 -0.1906
  306loPI   C2A 4888  17.821   7.345   8.545 -0.0026  0.2516  0.1318
  306loPI   C3A 4889  17.492   7.490   8.192 -0.0276  0.0093  0.4280
  306loPI   C4A 4890  17.379   7.494   7.725  0.2973 -0.2327  0.2689
  306loPI   C5A 4891  17.470   7.828   7.387  0.1902 -0.0260  0.1452
  306loPI   C6A 4892  17.933   7.882   7.201  0.1104  0.2155  0.2278
  306loPI   C1B 4893  18.234   6.936   9.048  0.1628  0.2890 -0.1947
  306loPI   C2B 4894  18.106   6.947   8.636  0.0198  0.0637  0.0375
  306loPI   C3B 4895  17.979   6.959   8.244  0.1302  0.0611  0.2692
  306loPI   C4B 4896  17.745   7.145   7.908  0.2866 -0.0785  0.0905
  307loPI    C1 4897   6.520   4.658  10.359  0.1508  0.0070 -0.0116
  307loPI    C2 4898   6.461   4.404  10.662  0.0589  0.2295  0.1604
  307loPI    C3 4899   6.786   4.636  10.656 -0.0435  0.3758  0.1980
  307loPI   PO4 4900   6.399   4.490  10.106  0.0008  0.0850 -0.0314
  307loPI   GL1 4901   6.354   4.385   9.728 -0.1302  0.1138  0.1209
  307loPI   GL2 4902   6.085   4.197   9.618  0.0604 -0.0266 -0.0544
  307loPI   C1A 4903   6.576   4.185   9.369 -0.1718 -0.1017 -0.1104
  307loPI   C2A 4904   6.721   4.318   9.064  0.2216 -0.1441  0.2430
  307loPI   C3A 4905   6.887   4.469   8.690  0.0977 -0.1888 -0.0032
  307loPI   C4A 4906   7.009   4.318   8.236  0.0779  0.1397  0.2436
  307loPI   C5A 4907   6.928   4.125   7.894  0.1370  0.0943  0.2558
  307loPI   C6A 4908   6.819   3.631   7.721  0.0940  0.1576  0.0281
  307loPI   C1B 4909   6.014   4.275   9.248  0.3182  0.0018 -0.2882
  307loPI   C2B 4910   6.158   4.089   8.873 -0.1130  0.1463  0.0783
  307loPI   C3B 4911   6.178   3.852   8.616 -0.0276 -0.2293  0.2479
  307loPI   C4B 4912   6.023   3.706   8.193  0.4877 -0.3408 -0.3623
  308loPI    C1 4913   6.601   0.227  10.177 -0.1458  0.1409 -0.0279
  308loPI    C2 4914   6.548   0.564  10.384 -0.1013  0.1248  0.0098
  308loPI    C3 4915   6.431   0.215  10.538  0.2801  0.0655  0.1763
  308loPI   PO4 4916   6.523   0.293   9.970 -0.0448 -0.0019  0.1609
  308loPI   GL1 4917   6.573   0.392   9.576 -0.0377  0.1662 -0.1182
  308loPI   GL2 4918   6.505   0.683   9.364  0.2787  0.0904 -0.1481
  308loPI   C1A 4919   6.767   0.195   9.088  0.0661 -0.2834  0.0460
  308loPI   C2A 4920   7.037   0.225   8.651  0.1976  0.0214  0.0915
  308loPI   C3A 4921   7.002   0.004   8.163 -0.0932  0.2611  0.2056
  308loPI   C4A 4922   7.244   0.179   7.871 -0.0930 -0.2139 -0.0555
  308loPI   C5A 4923   7.587   0.190   7.656  0.3991  0.0893 -0.1497
  308loPI   C6A 4924   7.841  -0.055   7.414  0.3160 -0.0543 -0.0182
  308loPI   C1B 4925   6.588   0.680   8.903  0.1818 -0.3300 -0.0121
  308loPI   C2B 4926   6.774   0.662   8.461 -0.0251  0.1946 -0.0761
  308loPI   C3B 4927   6.670   0.376   8.135  0.0393 -0.3176 -0.0346
  308loPI   C4B 4928   6.666   0.259   7.691  0.0713 -0.2588  0.0117
  309loPI    C1 4929  15.768   8.505   9.890 -0.0509  0.0991 -0.2481
  309loPI    C2 4930  15.586   8.856   9.952 -0.1473  0.0166 -0.0541
  309loPI    C3 4931  15.624   8.594  10.252  0.2583  0.0145 -0.1008
  309loPI   PO4 4932  15.711   8.421   9.634 -0.0327  0.0621  0.1930
  309loPI   GL1 4933  15.694   8.130   9.157 -0.2213  0.3807 -0.0698
  309loPI   GL2 4934  15.973   8.217   9.273  0.1739 -0.1746  0.0243
  309loPI   C1A 4935  15.536   8.236   8.717  0.0322  0.3067 -0.3537
  309loPI   C2A 4936  15.308   8.386   8.533  0.1688  0.0552 -0.1502
  309loPI   C3A 4937  15.121   8.502   8.150 -0.2528  0.3419 -0.0473
  309loPI   C4A 4938  15.147   8.533   7.678  0.1657 -0.1332  0.1975
  309loPI   C5A 4939  15.352   8.375   7.277 -0.0758  0.0759 -0.0781
  309loPI   C6A 4940  15.456   8.061   6.916  0.0769 -0.3583 -0.0294
  309loPI   C1B 4941  15.995   8.366   8.863  0.1906 -0.1403  0.3091
  309loPI   C2B 4942  15.903   8.377   8.362 -0.1186  0.1642  0.0997
  309loPI   C3B 4943  16.087   8.373   7.908 -0.1796  0.2412 -0.0667
  309loPI   C4B 4944  16.230   8.354   7.571  0.2448  0.1795 -0.2721
  310loPI    C1 4945  11.237   7.030  10.019 -0.0575  0.0510  0.2736
  310loPI    C2 4946  11.186   6.634  10.023  0.2237  0.0090  0.0624
  310loPI    C3 4947  11.500   6.797  10.209  0.1642  0.1242  0.0626
  310loPI   PO4 4948  11.120   7.070   9.824  0.1525  0.1884 -0.1365
  310loPI   GL1 4949  11.027   6.945   9.537 -0.0158  0.2075  0.0742
  310loPI   GL2 4950  11.338   7.009   9.387  0.0279 -0.2227 -0.1422
  310loPI   C1A 4951  10.967   6.890   9.049  0.1520 -0.2098  0.1266
  310loPI   C2A 4952  10.776   6.874   8.633  0.2430 -0.0139 -0.1322
  310loPI   C3A 4953  10.707   6.771   8.283 -0.2407  0.0116  0.4839
  310loPI   C4A 4954  10.971   6.833   7.977 -0.3350  0.3056  0.2544
  310loPI   C5A 4955  11.056   6.778   7.632 -0.0108 -0.1059  0.2187
  310loPI   C6A 4956  10.941   6.908   7.214  0.0467 -0.1950  0.1968
  310loPI   C1B 4957  11.530   7.000   9.063 -0.0911 -0.1534  0.1900
  310loPI   C2B 4958  11.503   6.814   8.627 -0.0820  0.0069  0.1105
  310loPI   C3B 4959  11.475   6.743   8.150  0.0641  0.0354  0.0699
  310loPI   C4B 4960  11.525   6.740   7.774  0.2128  0.0928 -0.4089
  311loPI    C1 4961   3.818  14.170  10.102  0.1381  0.0044  0.0965
  311loPI    C2 4962   3.622  13.967  10.385  0.3064 -0.2798  0.0132
  311loPI    C3 4963   3.957  14.164  10.477  0.0494  0.1137  0.1316
  311loPI   PO4 4964   3.625  14.207   9.881  0.2590 -0.0821  0.0450
  311loPI   GL1 4965   3.576  14.331   9.465  0.1983  0.0491  0.1912
  311loPI   GL2 4966   3.240  14.308   9.223  0.1041  0.0895 -0.1097
  311loPI   C1A 4967   3.731  14.536   8.992 -0.1365 -0.0342  0.0350
  311loPI   C2A 4968   3.770  14.587   8.502 -0.1670 -0.3752  0.0361
  311loPI   C3A 4969   3.783  14.631   8.121  0.0736  0.1868 -0.1266
  311loPI   C4A 4970   4.123  14.636   7.999  0.0184  0.1138  0.3049
  311loPI   C5A 4971   4.170  14.345   7.611  0.1352  0.1311  0.0553
  311loPI   C6A 4972   4.039  14.133   7.158 -0.0163 -0.0532 -0.1429
  311loPI   C1B 4973   3.348  14.356   8.754  0.1195  0.0636 -0.2020
  311loPI   C2B 4974   3.256  14.553   8.377  0.2767  0.1247 -0.1262
  311loPI   C3B 4975   3.361  14.888   8.099 -0.0042 -0.3770 -0.2080
  311loPI   C4B 4976   3.215  15.228   7.789  0.1594 -0.2082  0.1048
  312loPI    C1 4977   7.115   5.157  10.128 -0.0388  0.2665  0.0686
  312loPI    C2 4978   7.169   4.913  10.441  0.0831 -0.0973 -0.2289
  312loPI    C3 4979   6.817   5.095  10.387  0.0715 -0.0055  0.1342
  312loPI   PO4 4980   7.211   5.044   9.804  0.1659  0.0841  0.2172
  312loPI   GL1 4981   7.138   5.367   9.433 -0.2722 -0.1878 -0.0331
  312loPI   GL2 4982   6.907   5.335   9.207  0.3689  0.0809 -0.1233
  312loPI   C1A 4983   7.356   5.180   9.068  0.2625  0.0179 -0.0619
  312loPI   C2A 4984   7.478   5.177   8.657 -0.3111 -0.2404 -0.1188
  312loPI   C3A 4985   7.271   5.292   8.246 -0.4158 -0.2651 -0.0457
  312loPI   C4A 4986   7.094   5.002   7.974  0.1857  0.1859  0.1117
  312loPI   C5A 4987   7.039   4.913   7.591  0.0386 -0.1747  0.1706
  312loPI   C6A 4988   7.235   4.574   7.287  0.1876 -0.1913  0.3748
  312loPI   C1B 4989   6.735   5.620   9.028 -0.2075  0.0625 -0.0505
  312loPI   C2B 4990   6.598   5.652   8.601  0.1198  0.0294  0.0257
  312loPI   C3B 4991   6.722   5.399   8.216 -0.1104  0.1018  0.2026
  312loPI   C4B 4992   6.920   5.483   7.823  0.1379 -0.1413  0.0403
  313loPI    C1 4993   4.907   9.065  10.600  0.1016  0.0026  0.0881
  313loPI    C2 4994   5.018   8.900  10.947 -0.1475 -0.2130  0.0682
  313loPI    C3 4995   4.864   8.672  10.657 -0.1898  0.0066 -0.0846
  313loPI   PO4 4996   5.061   9.230  10.556  0.0364  0.0649 -0.1224
  313loPI   GL1 4997   4.885   9.260  10.106  0.2752 -0.0143  0.3192
  313loPI   GL2 4998   5.101   9.355   9.946  0.0528 -0.1492  0.2334
  313loPI   C1A 4999   4.671   9.368   9.676  0.0222 -0.0088 -0.0384
  313loPI   C2A 5000   4.555   9.307   9.192 -0.2113 -0.3231  0.2531
  313loPI   C3A 5001   4.375   9.471   8.769  0.0482  0.0143 -0.1964
  313loPI   C4A 5002   4.354   9.527   8.315 -0.1496  0.0599 -0.1237
  313loPI   C5A 5003   4.217   9.484   7.957 -0.4562 -0.0817  0.1026
  313loPI   C6A 5004   4.410   9.435   7.600  0.0689  0.2464  0.3360
  313loPI   C1B 5005   5.084   9.185   9.574  0.1372 -0.1302 -0.2479
  313loPI   C2B 5006   5.038   9.283   9.206  0.0060  0.0195  0.0397
  313loPI   C3B 5007   4.906   9.544   8.884  0.1441 -0.2430  0.2017
  313loPI   C4B 5008   4.965   9.639   8.478  0.0885  0.3123 -0.4757
  314loPI    C1 5009  12.782   5.206  10.183  0.0680 -0.0896  0.0395
  314loPI    C2 5010  13.131   5.135  10.364  0.0166  0.0682  0.2035
  314loPI    C3 5011  12.920   5.462  10.458 -0.1337  0.0188  0.0420
  314loPI   PO4 5012  12.681   4.986  10.168 -0.0830 -0.1128 -0.2024
  314loPI   GL1 5013  12.473   4.840   9.742 -0.0878  0.1574  0.0740
  314loPI   GL2 5014  12.692   5.121   9.677 -0.0255  0.1607 -0.3732
  314loPI   C1A 5015  12.726   4.777   9.366 -0.3300 -0.0257 -0.0258
  314loPI   C2A 5016  12.975   4.694   9.060  0.0304 -0.1921  0.0751
  314loPI   C3A 5017  12.909   4.743   8.697  0.4529  0.2234  0.0443
  314loPI   C4A 5018  12.750   4.708   8.217 -0.0835 -0.3899  0.0048
  314loPI   C5A 5019  12.872   4.725   7.835 -0.0646 -0.1498  0.4930
  314loPI   C6A 5020  12.992   4.530   7.405 -0.0149 -0.0730 -0.0966
  314loPI   C1B 5021  12.699   5.256   9.237 -0.1582 -0.1541 -0.3025
  314loPI   C2B 5022  12.841   5.210   8.806 -0.0643 -0.2930 -0.3905
  314loPI   C3B 5023  13.022   5.159   8.372  0.1098 -0.0494 -0.0916
  314loPI   C4B 5024  13.094   5.176   7.977 -0.0917  0.1514 -0.2338
  315loPI    C1 5025  17.406   2.337  10.451 -0.2722 -0.1537 -0.0065
  315loPI    C2 5026  17.669   2.362  10.751 -0.3556  0.1630  0.0432
  315loPI    C3 5027  17.434   2.041  10.719  0.1700 -0.2194 -0.1175
  315loPI   PO4 5028  17.550   2.404  10.239 -0.0894  0.2314  0.1242
  315loPI   GL1 5029  17.784   2.239   9.979 -0.2775  0.0290  0.2218
  315loPI   GL2 5030  18.072   2.075   9.865 -0.0997 -0.0468  0.1950
  315loPI   C1A 5031  17.758   2.309   9.545 -0.0720  0.3065 -0.2349
  315loPI   C2A 5032  17.772   2.331   9.079 -0.0435  0.1961 -0.1073
  315loPI   C3A 5033  17.648   2.403   8.620 -0.0886  0.0337 -0.3142
  315loPI   C4A 5034  17.409   2.487   8.346  0.1347 -0.1816 -0.1712
  315loPI   C5A 5035  17.148   2.449   8.054 -0.0126 -0.0921  0.0970
  315loPI   C6A 5036  16.719   2.496   7.913  0.1300  0.2378  0.0662
  315loPI   C1B 5037  18.310   2.142   9.556 -0.3434 -0.1973 -0.1130
  315loPI   C2B 5038  18.236   2.002   9.148 -0.0007  0.0383 -0.0709
  315loPI   C3B 5039  18.164   1.823   8.682 -0.0245  0.0279 -0.0641
  315loPI   C4B 5040  18.151   1.823   8.306  0.2749 -0.3158  0.1557
  316loPI    C1 5041   0.656  16.491  10.308  0.1150 -0.0863 -0.0298
  316loPI    C2 5042   0.355  16.228  10.291  0.0331  0.0074 -0.0456
  316loPI    C3 5043   0.299  16.585  10.463  0.1320  0.0301 -0.0596
  316loPI   PO4 5044   0.691  16.610  10.000  0.0909 -0.3842 -0.1279
  316loPI   GL1 5045   0.650  16.748   9.504 -0.0186 -0.0056  0.0636
  316loPI   GL2 5046   0.570  16.444   9.546 -0.0037  0.1995 -0.1373
  316loPI   C1A 5047   0.565  16.741   9.067 -0.0639  0.1295  0.3263
  316loPI   C2A 5048   0.391  17.005   8.835 -0.0734  0.2202  0.3959
  316loPI   C3A 5049   0.255  16.948   8.383 -0.1885  0.1612  0.3163
  316loPI   C4A 5050   0.032  16.765   8.066  0.0331  0.1119 -0.1070
  316loPI   C5A 5051  -0.175  16.855   7.656 -0.0987  0.1242 -0.0488
  316loPI   C6A 5052  -0.593  16.981   7.351  0.1496  0.2690  0.0463
  316loPI   C1B 5053   0.890  16.263   9.414 -0.1838  0.2549 -0.0798
  316loPI   C2B 5054   1.236  16.011   9.341 -0.1227  0.0683  0.0732
  316loPI   C3B 5055   1.659  15.891   9.510 -0.0378  0.0546  0.0571
  316loPI   C4B 5056   2.004  16.014   9.673  0.0170 -0.0415 -0.2748
  317loPI    C1 5057  18.145  11.141  10.167  0.2247  0.0305  0.0512
  317loPI    C2 5058  17.846  11.370  10.033  0.1572 -0.2132 -0.2266
  317loPI    C3 5059  17.929  11.358  10.424  0.1800  0.3000 -0.2084
  317loPI   PO4 5060  18.084  10.874  10.008 -0.0362  0.3526 -0.1038
  317loPI   GL1 5061  17.867  10.817   9.581  0.3543  0.0414  0.1020
  317loPI   GL2 5062  17.575  10.998   9.739  0.1342  0.3785 -0.0803
  317loPI   C1A 5063  17.742  11.149   9.239  0.1549  0.3819 -0.2830
  317loPI   C2A 5064  17.703  11.123   8.750 -0.5424 -0.1194 -0.1040
  317loPI   C3A 5065  17.854  11.239   8.387 -0.1632 -0.2173 -0.4742
  317loPI   C4A 5066  17.962  11.476   8.096 -0.0486 -0.2410 -0.0715
  317loPI   C5A 5067  17.783  11.677   7.811 -0.0259  0.0987  0.2150
  317loPI   C6A 5068  17.389  11.922   7.627 -0.0750  0.0864 -0.1987
  317loPI   C1B 5069  17.301  10.922   9.348 -0.1686 -0.0592  0.0362
  317loPI   C2B 5070  17.232  10.562   9.100 -0.4656 -0.1263 -0.0805
  317loPI   C3B 5071  17.402  10.422   8.816 -0.1903  0.1015 -0.2972
  317loPI   C4B 5072  17.297  10.242   8.448 -0.1739  0.1225  0.1019
  318loPI    C1 5073   8.782   3.552  10.439  0.0487  0.0279  0.1362
  318loPI    C2 5074   8.441   3.378  10.557 -0.0962  0.1666 -0.0710
  318loPI    C3 5075   8.588   3.691  10.760 -0.0644  0.0753  0.0479
  318loPI   PO4 5076   8.766   3.421  10.134 -0.3216 -0.1921  0.0879
  318loPI   GL1 5077   9.031   3.426   9.723 -0.0451 -0.0303  0.1845
  318loPI   GL2 5078   9.128   3.726   9.635 -0.4681 -0.1851 -0.3735
  318loPI   C1A 5079   9.002   3.465   9.264  0.0126 -0.0576 -0.1110
  318loPI   C2A 5080   9.085   3.467   8.844  0.1096 -0.0158 -0.1245
  318loPI   C3A 5081   8.978   3.438   8.438  0.1154 -0.1587  0.0376
  318loPI   C4A 5082   8.738   3.346   8.078  0.1047  0.0196  0.0281
  318loPI   C5A 5083   8.864   3.142   7.537  0.1477  0.1315  0.4063
  318loPI   C6A 5084   8.767   3.488   7.228 -0.2031  0.0242 -0.0800
  318loPI   C1B 5085   9.106   3.968   9.381  0.3631  0.0054 -0.0699
  318loPI   C2B 5086   9.054   3.927   8.947 -0.0259 -0.1171 -0.3762
  318loPI   C3B 5087   9.130   3.899   8.510  0.1085 -0.1678  0.0195
  318loPI   C4B 5088   9.072   3.926   8.151 -0.2124  0.1639  0.2183
  319loPI    C1 5089   1.212  13.518  10.118  0.0241  0.1613  0.0713
  319loPI    C2 5090   1.208  13.283  10.442  0.1051 -0.0716 -0.0940
  319loPI    C3 5091   1.479  13.574  10.410 -0.0798  0.1345  0.1724
  319loPI   PO4 5092   0.944  13.504  10.096  0.4608  0.0003 -0.1151
  319loPI   GL1 5093   0.728  13.390   9.726  0.0424  0.1940 -0.2747
  319loPI   GL2 5094   0.896  13.115   9.573  0.1688 -0.1261  0.0619
  319loPI   C1A 5095   0.527  13.392   9.271 -0.3489 -0.1755  0.0431
  319loPI   C2A 5096   0.551  13.315   8.821 -0.1673 -0.1897  0.0891
  319loPI   C3A 5097   0.568  13.223   8.361  0.1473  0.1278  0.3086
  319loPI   C4A 5098   0.340  13.415   8.021 -0.0355 -0.0343  0.2731
  319loPI   C5A 5099   0.488  13.449   7.691  0.2248  0.2591 -0.0799
  319loPI   C6A 5100   0.970  13.234   7.647 -0.3342  0.0334 -0.0859
  319loPI   C1B 5101   0.879  13.011   9.124  0.0976  0.0957  0.0204
  319loPI   C2B 5102   0.787  12.839   8.667 -0.1835  0.2446  0.6245
  319loPI   C3B 5103   0.881  12.883   8.220  0.3755  0.0025  0.2177
  319loPI   C4B 5104   0.687  12.847   7.738  0.1317 -0.2006  0.2267
  320loPI    C1 5105   9.859  10.226  10.095  0.1098 -0.2612 -0.0472
  320loPI    C2 5106   9.927  10.165  10.484  0.0928 -0.0442 -0.0091
  320loPI    C3 5107   9.771  10.512  10.360  0.0307 -0.1399 -0.2026
  320loPI   PO4 5108   9.914  10.030   9.943  0.1774 -0.1792 -0.1392
  320loPI   GL1 5109   9.753  10.035   9.524  0.2854  0.1597  0.0828
  320loPI   GL2 5110   9.750  10.345   9.603  0.0958  0.2247  0.1529
  320loPI   C1A 5111   9.799   9.728   9.134  0.0687 -0.0481 -0.2058
  320loPI   C2A 5112   9.682   9.956   8.809  0.1426 -0.1702 -0.1265
  320loPI   C3A 5113   9.888  10.117   8.475  0.1307  0.1411 -0.1292
  320loPI   C4A 5114  10.070  10.163   8.076 -0.0365 -0.3504 -0.0104
  320loPI   C5A 5115  10.087  10.418   7.677  0.2852 -0.1253 -0.0342
  320loPI   C6A 5116  10.474  10.598   7.579 -0.0279 -0.5201 -0.2177
  320loPI   C1B 5117   9.653  10.374   9.123 -0.0815 -0.0276  0.3274
  320loPI   C2B 5118   9.636  10.500   8.666 -0.3255 -0.2045 -0.1039
  320loPI   C3B 5119   9.885  10.695   8.212  0.1278  0.4296 -0.1847
  320loPI   C4B 5120   9.864  10.925   7.775  0.1465 -0.1703 -0.1392
  321loPI    C1 5121  10.304   5.997  10.186 -0.0907 -0.1874 -0.0824
  321loPI    C2 5122  10.516   6.018  10.524  0.1550 -0.1689 -0.2352
  321loPI    C3 5123  10.130   6.122  10.524  0.2199  0.0844 -0.0179
  321loPI   PO4 5124  10.479   6.047   9.960 -0.0681  0.1963 -0.1797
  321loPI   GL1 5125  10.676   6.107   9.551 -0.0824 -0.1975 -0.2672
  321loPI   GL2 5126  10.425   6.063   9.386 -0.0631  0.0373 -0.1217
  321loPI   C1A 5127  11.000   5.963   9.218 -0.0432 -0.0038  0.3612
  321loPI   C2A 5128  11.089   5.919   8.798  0.2090 -0.1864  0.1783
  321loPI   C3A 5129  11.028   5.948   8.298 -0.0263  0.0644 -0.0927
  321loPI   C4A 5130  11.014   5.843   7.840 -0.0780 -0.1587 -0.4285
  321loPI   C5A 5131  10.855   6.013   7.466 -0.0159  0.0746  0.1943
  321loPI   C6A 5132  10.454   6.124   7.393 -0.1986 -0.1242  0.4253
  321loPI   C1B 5133  10.559   5.773   8.942  0.2208 -0.3439  0.2379
  321loPI   C2B 5134  10.592   5.765   8.453  0.3481 -0.2530  0.1898
  321loPI   C3B 5135  10.576   5.649   8.038  0.0244  0.1105 -0.3429
  321loPI   C4B 5136  10.545   5.670   7.604 -0.2150  0.1470 -0.1359
  322loPI    C1 5137   9.154  11.863  10.040 -0.1618  0.0302 -0.0278
  322loPI    C2 5138   9.350  12.073  10.318 -0.0155  0.1009 -0.1826
  322loPI    C3 5139   9.191  11.718  10.411 -0.0199  0.1511  0.0061
  322loPI   PO4 5140   9.384  11.766   9.835 -0.2390  0.0285  0.2976
  322loPI   GL1 5141   9.496  11.955   9.449  0.0694  0.1963 -0.0119
  322loPI   GL2 5142   9.776  11.778   9.425  0.0898  0.0916 -0.2099
  322loPI   C1A 5143   9.567  12.190   9.008 -0.3535  0.2627 -0.0481
  322loPI   C2A 5144   9.626  12.092   8.617  0.0639  0.1317 -0.2376
  322loPI   C3A 5145   9.600  12.082   8.191 -0.0051 -0.4445 -0.4068
  322loPI   C4A 5146   9.511  12.051   7.829  0.2354 -0.0634  0.0599
  322loPI   C5A 5147   9.775  12.389   7.493 -0.1102  0.2382 -0.3755
  322loPI   C6A 5148  10.069  12.646   7.608  0.0744  0.3844  0.2628
  322loPI   C1B 5149   9.705  11.666   9.066  0.0802  0.1291  0.2635
  322loPI   C2B 5150   9.613  11.500   8.682  0.2233  0.2321  0.4994
  322loPI   C3B 5151   9.754  11.567   8.301 -0.1123  0.1361  0.3263
  322loPI   C4B 5152   9.681  11.415   7.888 -0.3715 -0.0149 -0.2748
  323loPI    C1 5153  18.422  15.147  10.350 -0.0458  0.0267 -0.0006
  323loPI    C2 5154  18.809  15.071  10.412  0.0411  0.2750 -0.2142
  323loPI    C3 5155  18.530  14.855  10.600  0.2812  0.0934 -0.0588
  323loPI   PO4 5156  18.446  15.161  10.062  0.0966 -0.0542  0.2403
  323loPI   GL1 5157  18.257  15.301   9.671  0.1699 -0.0010 -0.0376
  323loPI   GL2 5158  17.957  15.549   9.679  0.1043  0.0137 -0.0690
  323loPI   C1A 5159  18.343  15.463   9.376 -0.3985 -0.0579  0.1046
  323loPI   C2A 5160  18.353  15.672   9.084 -0.1121 -0.1916 -0.0368
  323loPI   C3A 5161  18.389  15.805   8.664 -0.0058 -0.2431 -0.0664
  323loPI   C4A 5162  18.406  15.804   8.237  0.1705  0.0640 -0.3052
  323loPI   C5A 5163  18.075  16.017   7.933  0.3129  0.0761  0.0892
  323loPI   C6A 5164  17.930  16.148   7.455 -0.0407 -0.5033  0.0580
  323loPI   C1B 5165  17.899  15.573   9.275 -0.0782 -0.0477 -0.2690
  323loPI   C2B 5166  17.885  15.732   8.781 -0.1552  0.0266  0.1854
  323loPI   C3B 5167  17.817  15.759   8.349 -0.1103 -0.1083 -0.1496
  323loPI   C4B 5168  17.856  15.570   7.981 -0.1618  0.0613 -0.0057
  324loPI    C1 5169   5.776   0.965  10.001 -0.1547  0.3492 -0.2679
  324loPI    C2 5170   6.091   1.210   9.973  0.0334  0.1365 -0.0455
  324loPI    C3 5171   5.840   1.242  10.283  0.1111 -0.0097  0.0340
  324loPI   PO4 5172   5.685   0.969   9.708 -0.4051  0.0751 -0.1119
  324loPI   GL1 5173   5.715   0.813   9.337 -0.0973  0.1139 -0.1134
  324loPI   GL2 5174   5.570   0.985   9.194 -0.0478 -0.0309  0.0075
  324loPI   C1A 5175   6.073   0.671   9.126  0.0961 -0.0674 -0.1024
  324loPI   C2A 5176   6.188   0.762   8.663  0.2130 -0.3665 -0.0437
  324loPI   C3A 5177   6.338   0.725   8.230 -0.3624  0.0725  0.2087
  324loPI   C4A 5178   6.279   0.628   7.785  0.0763  0.0708  0.1796
  324loPI   C5A 5179   6.528   0.697   7.370  0.0380  0.1781  0.2001
  324loPI   C6A 5180   6.821   0.931   7.148 -0.2343  0.1467 -0.0829
  324loPI   C1B 5181   5.654   0.907   8.803 -0.1768  0.1049  0.1241
  324loPI   C2B 5182   5.501   0.929   8.463  0.3381  0.3011 -0.0913
  324loPI   C3B 5183   5.416   1.245   8.179 -0.2165 -0.2550 -0.2540
  324loPI   C4B 5184   5.088   1.322   7.862 -0.0051  0.3147 -0.6408
  325loPI    C1 5185   3.120  13.367  10.213  0.1843  0.1573 -0.0762
  325loPI    C2 5186   3.379  13.486  10.494 -0.0715  0.2678  0.1175
  325loPI    C3 5187   3.122  13.748  10.335  0.0843  0.2109 -0.2392
  325loPI   PO4 5188   3.192  13.300  10.085  0.0144  0.0676 -0.0240
  325loPI   GL1 5189   3.225  13.405   9.655  0.1729 -0.2371  0.0039
  325loPI   GL2 5190   3.402  13.343   9.442 -0.0875 -0.1470 -0.0177
  325loPI   C1A 5191   2.868  13.363   9.372  0.3001  0.1495  0.4875
  325loPI   C2A 5192   2.850  13.409   9.019  0.1465  0.0277  0.0120
  325loPI   C3A 5193   2.885  13.412   8.506 -0.1539 -0.0454  0.2724
  325loPI   C4A 5194   2.945  13.395   8.103 -0.0865 -0.2363 -0.0922
  325loPI   C5A 5195   2.998  13.566   7.709  0.1979  0.2862  0.1689
  325loPI   C6A 5196   3.373  13.694   7.369 -0.0145  0.4124 -0.0268
  325loPI   C1B 5197   3.318  13.241   9.108 -0.1177 -0.1332 -0.2039
  325loPI   C2B 5198   3.179  13.001   8.689 -0.1677  0.2133  0.0004
  325loPI   C3B 5199   3.243  12.908   8.329  0.2207  0.1907 -0.0654
  325loPI   C4B 5200   3.140  12.992   7.831 -0.0899 -0.0904  0.1038
  326loPI    C1 5201  15.651  11.593  10.431  0.2403 -0.0088  0.0029
  326loPI    C2 5202  15.578  11.920  10.650  0.0689 -0.2581  0.3282
  326loPI    C3 5203  15.857  11.659  10.768  0.1618 -0.2626  0.1034
  326loPI   PO4 5204  15.452  11.528  10.209 -0.2571 -0.0601 -0.0691
  326loPI   GL1 5205  15.554  11.608   9.749  0.0972 -0.2356 -0.2631
  326loPI   GL2 5206  15.346  11.253   9.794  0.0324 -0.0350  0.2643
  326loPI   C1A 5207  15.597  11.875   9.302  0.4736  0.2451 -0.2123
  326loPI   C2A 5208  15.489  11.663   8.928 -0.3163  0.0648 -0.1312
  326loPI   C3A 5209  15.367  11.675   8.582  0.1626  0.1025  0.0021
  326loPI   C4A 5210  15.303  11.764   8.144 -0.3121  0.1045 -0.0268
  326loPI   C5A 5211  15.386  11.586   7.788 -0.0919 -0.2256  0.2575
  326loPI   C6A 5212  15.626  11.310   7.654  0.1676 -0.2712  0.2237
  326loPI   C1B 5213  15.117  11.019   9.572 -0.0841 -0.1052 -0.0399
  326loPI   C2B 5214  14.944  10.887   9.139  0.1374 -0.0436  0.0963
  326loPI   C3B 5215  15.106  10.927   8.669 -0.3686  0.1953  0.2792
  326loPI   C4B 5216  15.034  10.880   8.230  0.0461  0.0840 -0.0218
  327loPI    C1 5217   7.777  15.233   9.928  0.0651 -0.0112  0.0244
  327loPI    C2 5218   8.007  15.415  10.200 -0.1303 -0.0181  0.1964
  327loPI    C3 5219   7.687  15.205  10.317  0.0138 -0.3607 -0.0088
  327loPI   PO4 5220   8.025  15.228   9.783  0.2145 -0.0615  0.1722
  327loPI   GL1 5221   8.122  15.236   9.380  0.2085  0.1373  0.1375
  327loPI   GL2 5222   8.129  15.551   9.179 -0.1143 -0.1195  0.0847
  327loPI   C1A 5223   8.301  14.872   9.258 -0.3583  0.2580  0.2586
  327loPI   C2A 5224   8.607  14.799   8.925  0.1547  0.1275 -0.0418
  327loPI   C3A 5225   8.664  14.897   8.450 -0.3406 -0.1571  0.0859
  327loPI   C4A 5226   9.004  14.842   8.109  0.0402  0.0812 -0.0925
  327loPI   C5A 5227   9.245  14.715   7.848  0.0631  0.2673 -0.1691
  327loPI   C6A 5228   9.311  14.710   7.385  0.0642  0.1568  0.0924
  327loPI   C1B 5229   8.198  15.255   8.883  0.2364 -0.2092  0.0700
  327loPI   C2B 5230   8.369  15.268   8.425  0.0499 -0.2536 -0.3433
  327loPI   C3B 5231   8.625  15.141   7.982 -0.0197  0.2451 -0.2727
  327loPI   C4B 5232   8.810  14.854   7.650  0.2132  0.2420  0.3074
  328loPI    C1 5233   2.142  14.940  10.227  0.0392 -0.2967 -0.3349
  328loPI    C2 5234   2.315  14.599  10.344  0.3497  0.0490  0.2665
  328loPI    C3 5235   2.087  14.804  10.600 -0.1232  0.1246 -0.1995
  328loPI   PO4 5236   2.324  15.038   9.971  0.2553 -0.2089 -0.4716
  328loPI   GL1 5237   2.542  15.099   9.491 -0.1209  0.2182 -0.0782
  328loPI   GL2 5238   2.164  15.064   9.435  0.1145  0.0551  0.0167
  328loPI   C1A 5239   2.555  15.246   9.109 -0.1025 -0.1151  0.2138
  328loPI   C2A 5240   2.347  15.275   8.724  0.0161  0.0622 -0.0080
  328loPI   C3A 5241   2.456  15.253   8.300  0.2604 -0.0645  0.0115
  328loPI   C4A 5242   2.660  15.195   7.938 -0.0766  0.0931  0.4200
  328loPI   C5A 5243   2.621  15.316   7.557 -0.2682 -0.2215  0.1317
  328loPI   C6A 5244   2.763  15.485   7.182  0.0675 -0.3179  0.2629
  328loPI   C1B 5245   2.024  15.105   9.055 -0.1218 -0.1267 -0.3210
  328loPI   C2B 5246   1.937  15.056   8.594 -0.4062 -0.1750  0.0361
  328loPI   C3B 5247   2.075  15.042   8.151 -0.0815  0.0434 -0.1129
  328loPI   C4B 5248   2.193  15.131   7.768  0.0088 -0.0210 -0.0234
  329loPI    C1 5249   6.263   2.073   9.942 -0.0898 -0.2445  0.1793
  329loPI    C2 5250   6.313   1.732   9.740 -0.0734 -0.0937 -0.0746
  329loPI    C3 5251   6.606   1.871   9.973  0.1143  0.0015 -0.3622
  329loPI   PO4 5252   6.101   2.161   9.834  0.0480  0.0020  0.2242
  329loPI   GL1 5253   6.050   2.056   9.468  0.2623 -0.2862  0.3348
  329loPI   GL2 5254   6.318   2.068   9.320  0.3413  0.0589  0.2382
  329loPI   C1A 5255   5.645   1.878   9.215 -0.4532 -0.0191  0.1308
  329loPI   C2A 5256   5.805   1.926   8.752 -0.0504  0.1651  0.1637
  329loPI   C3A 5257   5.950   1.714   8.353  0.3539  0.2084 -0.0205
  329loPI   C4A 5258   5.849   1.411   7.993 -0.1445 -0.2234  0.1134
  329loPI   C5A 5259   6.096   1.178   7.649 -0.0741  0.2366 -0.2641
  329loPI   C6A 5260   6.519   1.186   7.534  0.1702 -0.1052 -0.0655
  329loPI   C1B 5261   6.343   2.056   8.923 -0.3927  0.1316  0.0951
  329loPI   C2B 5262   6.497   2.352   8.516 -0.0922 -0.0231  0.2055
  329loPI   C3B 5263   6.791   2.432   8.138  0.1926  0.0176 -0.1522
  329loPI   C4B 5264   6.792   2.068   7.889  0.0101 -0.1626 -0.1867
  330loPI    C1 5265  11.914  15.121   9.922 -0.0533 -0.0055 -0.0630
  330loPI    C2 5266  11.995  15.017  10.299 -0.0537 -0.0501 -0.0752
  330loPI    C3 5267  11.930  15.401  10.208 -0.2025 -0.0573 -0.0027
  330loPI   PO4 5268  12.117  15.012   9.760  0.0123  0.0968 -0.2493
  330loPI   GL1 5269  12.014  14.829   9.389 -0.0169  0.1336 -0.0202
  330loPI   GL2 5270  11.891  15.108   9.297 -0.2546  0.0260 -0.1507
  330loPI   C1A 5271  12.397  14.860   9.179  0.1441  0.1388  0.0919
  330loPI   C2A 5272  12.675  14.716   8.893  0.1590 -0.0367 -0.3579
  330loPI   C3A 5273  12.794  14.512   8.501  0.3473 -0.0036 -0.1003
  330loPI   C4A 5274  13.074  14.118   8.358 -0.1148 -0.0661  0.1301
  330loPI   C5A 5275  13.120  13.892   7.942 -0.1257  0.0880  0.0722
  330loPI   C6A 5276  13.443  13.776   7.606 -0.0657 -0.0334 -0.0354
  330loPI   C1B 5277  12.124  15.297   8.842 -0.0102  0.0892 -0.3467
  330loPI   C2B 5278  11.929  15.507   8.419  0.0001 -0.1565  0.1447
  330loPI   C3B 5279  12.058  15.227   8.038 -0.3377  0.0663 -0.0221
  330loPI   C4B 5280  12.049  15.033   7.649 -0.1789  0.0431  0.0794
  331loPI    C1 5281  17.167  15.201  10.318 -0.1029  0.1236 -0.2378
  331loPI    C2 5282  16.848  14.963  10.355 -0.1310  0.1712 -0.1731
  331loPI    C3 5283  17.052  15.076  10.680  0.0173  0.0519 -0.2237
  331loPI   PO4 5284  17.296  15.215  10.116 -0.1707  0.1872 -0.2115
  331loPI   GL1 5285  17.248  15.204   9.793  0.0995 -0.0117 -0.0394
  331loPI   GL2 5286  17.441  15.540   9.738 -0.1786 -0.0486 -0.0887
  331loPI   C1A 5287  17.126  15.141   9.350  0.0124  0.0969 -0.1287
  331loPI   C2A 5288  17.260  14.896   9.098 -0.2942 -0.0358  0.0548
  331loPI   C3A 5289  17.402  14.857   8.647 -0.0356 -0.0273 -0.0419
  331loPI   C4A 5290  17.503  14.654   8.248  0.2360 -0.0437  0.0921
  331loPI   C5A 5291  17.908  14.516   8.069  0.0422 -0.1466 -0.4223
  331loPI   C6A 5292  18.379  14.543   8.004  0.2805  0.3773 -0.0543
  331loPI   C1B 5293  17.378  15.663   9.298  0.0438  0.1459 -0.0782
  331loPI   C2B 5294  17.386  15.480   8.957 -0.1770 -0.2510 -0.3728
  331loPI   C3B 5295  17.350  15.585   8.526  0.1595 -0.2498 -0.1946
  331loPI   C4B 5296  17.325  15.617   8.068 -0.1867 -0.1374  0.1665
  332loPI    C1 5297   0.344   1.479  10.116 -0.2434 -0.0258 -0.0100
  332loPI    C2 5298  -0.009   1.601  10.262 -0.3688 -0.2069 -0.1578
  332loPI    C3 5299   0.226   1.361  10.480 -0.0871  0.3447  0.1661
  332loPI   PO4 5300   0.434   1.677  10.043  0.1143  0.0268 -0.0470
  332loPI   GL1 5301   0.481   1.743   9.614  0.1777 -0.1234 -0.3096
  332loPI   GL2 5302   0.559   2.132   9.615  0.1031 -0.1382  0.1421
  332loPI   C1A 5303   0.487   1.759   9.189  0.0756 -0.0421  0.3616
  332loPI   C2A 5304   0.383   1.732   8.719 -0.0005 -0.1778 -0.2028
  332loPI   C3A 5305   0.456   1.737   8.205 -0.1689  0.1149 -0.2473
  332loPI   C4A 5306   0.452   1.872   7.726  0.0487  0.0505  0.0952
  332loPI   C5A 5307   0.249   1.787   7.423  0.1913  0.2209  0.4037
  332loPI   C6A 5308   0.197   1.453   7.110 -0.0788  0.1951  0.0209
  332loPI   C1B 5309   0.598   2.389   9.378 -0.0709  0.0680 -0.0743
  332loPI   C2B 5310   0.647   2.645   9.066  0.0769  0.1868 -0.3329
  332loPI   C3B 5311   0.593   2.742   8.621  0.2638  0.0561  0.1796
  332loPI   C4B 5312   0.505   2.908   8.195 -0.0512  0.1909 -0.1096
  333loPI    C1 5313  17.116   4.120  10.402 -0.0808  0.4298  0.0176
  333loPI    C2 5314  16.825   3.886  10.545 -0.1435  0.4418 -0.0893
  333loPI    C3 5315  17.144   3.969  10.772  0.2563 -0.3744 -0.3113
  333loPI   PO4 5316  17.088   4.033  10.141  0.2935  0.0411  0.2811
  333loPI   GL1 5317  17.082   4.096   9.715  0.0137 -0.1711  0.1742
  333loPI   GL2 5318  17.084   4.528   9.574  0.0111  0.2295 -0.1787
  333loPI   C1A 5319  17.009   4.073   9.245  0.2905 -0.1337  0.1776
  333loPI   C2A 5320  16.811   3.897   8.865 -0.2312 -0.0389 -0.1894
  333loPI   C3A 5321  16.909   4.135   8.464  0.2544  0.1096  0.4948
  333loPI   C4A 5322  17.007   4.245   8.007  0.6487 -0.0882  0.1892
  333loPI   C5A 5323  16.887   4.020   7.600 -0.4459  0.0457 -0.2337
  333loPI   C6A 5324  16.595   3.952   7.483 -0.1114 -0.0134  0.1713
  333loPI   C1B 5325  17.115   4.620   9.184  0.3393 -0.3063 -0.0818
  333loPI   C2B 5326  16.878   4.581   8.785  0.0879  0.0112 -0.1000
  333loPI   C3B 5327  16.933   4.673   8.315  0.1381  0.1082  0.0518
  333loPI   C4B 5328  16.934   4.747   7.877  0.1128  0.1434  0.2903
  334loPI    C1 5329   0.887  17.025  10.418 -0.0660  0.0912  0.0616
  334loPI    C2 5330   0.682  16.820  10.694  0.1092 -0.1567  0.0116
  334loPI    C3 5331   0.487  17.023  10.409 -0.0744  0.1470  0.3455
  334loPI   PO4 5332   1.096  16.871  10.317 -0.0306  0.1958 -0.4690
  334loPI   GL1 5333   1.259  16.971   9.943 -0.0798  0.0938  0.1254
  334loPI   GL2 5334   1.213  16.577   9.943 -0.1496 -0.0433 -0.0900
  334loPI   C1A 5335   1.221  16.936   9.502 -0.1118  0.1537  0.1136
  334loPI   C2A 5336   1.252  16.840   9.149  0.0797 -0.1271 -0.2409
  334loPI   C3A 5337   1.377  16.775   8.775  0.0866 -0.0165  0.1077
  334loPI   C4A 5338   1.600  16.432   8.624 -0.2210 -0.0906 -0.0437
  334loPI   C5A 5339   1.819  16.417   8.306  0.3280  0.1697  0.1447
  334loPI   C6A 5340   2.028  16.484   7.970  0.1454 -0.0204 -0.1715
  334loPI   C1B 5341   1.304  16.464   9.494 -0.0818  0.2286 -0.2471
  334loPI   C2B 5342   1.291  16.384   8.997  0.0481  0.1802 -0.0824
  334loPI   C3B 5343   1.076  16.414   8.616  0.2515  0.2762  0.1132
  334loPI   C4B 5344   1.302  16.467   8.263 -0.1465  0.1252  0.0489
  335loPI    C1 5345   7.191  12.222  10.574 -0.0897  0.0640  0.2114
  335loPI    C2 5346   6.855  12.005  10.583  0.0805 -0.2020  0.2743
  335loPI    C3 5347   6.858  12.375  10.734 -0.2768 -0.0592 -0.0510
  335loPI   PO4 5348   7.277  12.080  10.268 -0.0718  0.1157  0.1016
  335loPI   GL1 5349   7.199  12.158   9.806  0.1133  0.0075  0.0996
  335loPI   GL2 5350   7.128  11.901   9.723 -0.0937  0.1650 -0.0968
  335loPI   C1A 5351   7.246  12.210   9.320  0.2675 -0.1561 -0.3023
  335loPI   C2A 5352   7.131  12.163   8.830  0.0995  0.2575  0.1374
  335loPI   C3A 5353   7.162  12.071   8.377  0.1991  0.4177  0.2419
  335loPI   C4A 5354   7.114  12.107   7.940 -0.0219 -0.1457 -0.2154
  335loPI   C5A 5355   6.815  11.889   7.723  0.2930 -0.0423  0.0379
  335loPI   C6A 5356   6.585  11.533   7.528  0.0779  0.3567 -0.2725
  335loPI   C1B 5357   6.942  11.702   9.295 -0.3796 -0.0160 -0.1348
  335loPI   C2B 5358   7.017  11.470   8.987  0.1723 -0.0195 -0.0610
  335loPI   C3B 5359   7.041  11.597   8.615 -0.1147 -0.2906  0.0466
  335loPI   C4B 5360   6.720  11.533   8.200 -0.1004 -0.0614  0.0155
  336loPI    C1 5361   2.296   0.679  10.388 -0.1023  0.0578 -0.0081
  336loPI    C2 5362   2.509   0.508  10.680 -0.1102 -0.3711 -0.2450
  336loPI    C3 5363   2.585   0.886  10.572 -0.0275 -0.2463  0.2244
  336loPI   PO4 5364   2.277   0.457  10.161  0.1329 -0.1348 -0.0220
  336loPI   GL1 5365   2.469   0.113   9.808  0.2380  0.0325  0.0628
  336loPI   GL2 5366   2.386  -0.160   9.682  0.0390 -0.0379  0.2673
  336loPI   C1A 5367   2.541   0.355   9.452  0.0473  0.1359  0.1157
  336loPI   C2A 5368   2.455   0.390   9.058  0.1648  0.0770  0.0584
  336loPI   C3A 5369   2.418   0.329   8.697 -0.0309  0.1608 -0.0045
  336loPI   C4A 5370   2.319   0.452   8.271  0.3820  0.1232  0.2841
  336loPI   C5A 5371   2.375   0.455   7.784 -0.1563  0.2070  0.2083
  336loPI   C6A 5372   2.811   0.528   7.606 -0.0555 -0.0066  0.3550
  336loPI   C1B 5373   2.350  -0.236   9.276  0.0239  0.1805  0.4639
  336loPI   C2B 5374   2.438  -0.183   8.839 -0.0728  0.1613 -0.0528
  336loPI   C3B 5375   2.173  -0.028   8.479  0.4408 -0.0610 -0.1979
  336loPI   C4B 5376   1.825  -0.207   8.191 -0.0885  0.2056  0.2677
  337loPI    C1 5377  14.128   0.414  10.322 -0.3588 -0.1991  0.0183
  337loPI    C2 5378  13.935   0.764  10.296 -0.0031 -0.0195 -0.3317
  337loPI    C3 5379  14.217   0.711  10.575  0.1515  0.0817 -0.4674
  337loPI   PO4 5380  13.928   0.367   9.998 -0.3257  0.2146 -0.0921
  337loPI   GL1 5381  13.914   0.588   9.568  0.2475 -0.2449 -0.2206
  337loPI   GL2 5382  13.960   0.301   9.436  0.0098  0.2485  0.1429
  337loPI   C1A 5383  13.803   0.657   9.122 -0.2838  0.3177 -0.3185
  337loPI   C2A 5384  13.795   0.598   8.671  0.0626  0.0023  0.0903
  337loPI   C3A 5385  13.741   0.343   8.312  0.1811 -0.3115 -0.1826
  337loPI   C4A 5386  13.282   0.347   8.150  0.2000 -0.1555  0.0372
  337loPI   C5A 5387  12.957   0.173   8.179  0.1863  0.2525  0.4019
  337loPI   C6A 5388  12.543   0.324   8.383 -0.2587 -0.0872  0.1964
  337loPI   C1B 5389  13.933   0.163   9.004  0.4854  0.0104 -0.1149
  337loPI   C2B 5390  14.003  -0.156   8.615  0.1216  0.0950  0.1749
  337loPI   C3B 5391  14.070  -0.255   8.239 -0.0372  0.5806  0.1944
  337loPI   C4B 5392  14.079  -0.097   7.735 -0.1144 -0.0216  0.0710
  338loPI    C1 5393   1.547  16.728  10.397 -0.3050  0.0845 -0.2053
  338loPI    C2 5394   1.630  16.695  10.787 -0.0814 -0.0675 -0.2638
  338loPI    C3 5395   1.545  17.053  10.631 -0.0888  0.0066 -0.0921
  338loPI   PO4 5396   1.639  16.556  10.276 -0.0570 -0.2208  0.1325
  338loPI   GL1 5397   1.791  16.712   9.903  0.2084 -0.0682  0.0809
  338loPI   GL2 5398   1.671  16.443   9.793  0.0758 -0.0505  0.0474
  338loPI   C1A 5399   1.785  16.963   9.531  0.3344  0.1544  0.1305
  338loPI   C2A 5400   1.616  17.164   9.237 -0.1853 -0.1550  0.0496
  338loPI   C3A 5401   1.372  17.224   8.746 -0.0880  0.3243  0.0481
  338loPI   C4A 5402   1.409  17.329   8.276  0.0220  0.1727  0.0012
  338loPI   C5A 5403   1.517  17.455   7.848  0.0367 -0.3038  0.1530
  338loPI   C6A 5404   1.892  17.581   7.582 -0.1116  0.2426 -0.1970
  338loPI   C1B 5405   1.738  16.537   9.329 -0.0204 -0.0266 -0.2291
  338loPI   C2B 5406   1.755  16.735   9.033  0.0908 -0.1387  0.0790
  338loPI   C3B 5407   1.827  16.928   8.772  0.0713 -0.0018 -0.1930
  338loPI   C4B 5408   2.068  16.839   8.413 -0.2237 -0.3366 -0.0985
  339loPI    C1 5409  10.597   4.260   9.929 -0.0401 -0.3513  0.1407
  339loPI    C2 5410  10.942   4.102   9.802  0.0751 -0.1407  0.1848
  339loPI    C3 5411  10.931   4.307  10.145 -0.0861 -0.1106  0.1626
  339loPI   PO4 5412  10.515   4.393   9.702 -0.0003 -0.0359 -0.0715
  339loPI   GL1 5413  10.615   4.665   9.314  0.1267  0.2134  0.0981
  339loPI   GL2 5414  10.801   4.383   9.312 -0.4697 -0.0585 -0.0849
  339loPI   C1A 5415  10.474   4.753   8.878  0.0067 -0.4863 -0.1042
  339loPI   C2A 5416  10.470   4.603   8.489 -0.1725 -0.0066 -0.0595
  339loPI   C3A 5417  10.568   4.610   8.056 -0.1578 -0.2155 -0.2915
  339loPI   C4A 5418  10.608   4.590   7.567  0.2193 -0.1244  0.1918
  339loPI   C5A 5419  10.650   4.121   7.481  0.0495 -0.2069 -0.0796
  339loPI   C6A 5420  10.625   3.719   7.141 -0.3138 -0.1454 -0.0197
  339loPI   C1B 5421  10.953   4.436   8.890 -0.1947 -0.1046  0.1106
  339loPI   C2B 5422  10.937   4.326   8.475  0.0166  0.1244 -0.1143
  339loPI   C3B 5423  10.985   4.367   8.125  0.1868 -0.1755  0.0621
  339loPI   C4B 5424  11.004   4.315   7.778  0.3187  0.2400 -0.0806
  340loPI    C1 5425  10.440   3.693  10.230  0.1889  0.0246 -0.1142
  340loPI    C2 5426  10.613   3.359  10.367  0.0949 -0.0217 -0.1078
  340loPI    C3 5427  10.216   3.400  10.384  0.0715 -0.0735 -0.4649
  340loPI   PO4 5428  10.502   3.748  10.016  0.0697  0.0863 -0.2281
  340loPI   GL1 5429  10.473   3.664   9.602  0.2829 -0.1154 -0.2380
  340loPI   GL2 5430  10.516   3.997   9.423  0.1500 -0.1019  0.0412
  340loPI   C1A 5431  10.457   3.488   9.159 -0.0522 -0.2005  0.1421
  340loPI   C2A 5432  10.392   3.537   8.837 -0.0550  0.3020  0.2165
  340loPI   C3A 5433  10.502   3.581   8.456 -0.2451 -0.2095  0.0978
  340loPI   C4A 5434  10.525   3.514   8.061  0.1329  0.1043  0.0723
  340loPI   C5A 5435  10.365   3.581   7.676  0.4638  0.1602 -0.0200
  340loPI   C6A 5436  10.248   3.348   7.344 -0.2455  0.1840 -0.0929
  340loPI   C1B 5437  10.478   4.047   9.027  0.0375 -0.1506 -0.0749
  340loPI   C2B 5438  10.429   4.071   8.650 -0.1180  0.0944  0.1456
  340loPI   C3B 5439  10.560   4.102   8.235 -0.1253  0.2830 -0.1547
  340loPI   C4B 5440  10.520   4.039   7.913 -0.0478  0.2079 -0.2094
  341loPI    C1 5441  13.889  18.800  10.047 -0.0209 -0.0214  0.0655
  341loPI    C2 5442  14.207  18.920  10.257  0.0418 -0.0824  0.0057
  341loPI    C3 5443  13.839  18.982  10.400  0.0697  0.2496 -0.0596
  341loPI   PO4 5444  13.860  18.933   9.779 -0.0373  0.1354  0.0832
  341loPI   GL1 5445  14.164  18.800   9.460 -0.0814  0.4718  0.1165
  341loPI   GL2 5446  14.350  19.013   9.324  0.1025 -0.2302  0.0015
  341loPI   C1A 5447  13.914  18.757   9.190 -0.0156  0.1257  0.3142
  341loPI   C2A 5448  13.840  18.476   8.939  0.1169  0.0161 -0.0763
  341loPI   C3A 5449  13.753  18.456   8.475  0.1645 -0.2962 -0.3742
  341loPI   C4A 5450  13.539  18.526   8.016 -0.0578  0.0676  0.0696
  341loPI   C5A 5451  13.404  18.274   7.559 -0.0807  0.0458  0.0888
  341loPI   C6A 5452  13.242  18.018   7.240 -0.0256 -0.1519 -0.0414
  341loPI   C1B 5453  14.421  19.020   8.858  0.1935 -0.1324  0.2794
  341loPI   C2B 5454  14.545  18.988   8.374 -0.0330  0.1067  0.1679
  341loPI   C3B 5455  14.592  18.978   7.905 -0.0616 -0.1522  0.0203
  341loPI   C4B 5456  14.878  19.144   7.694 -0.0130  0.1966  0.0264
  342loPI    C1 5457  13.751   8.057  10.260  0.1026 -0.0234  0.0844
  342loPI    C2 5458  13.877   7.712  10.418 -0.1452 -0.0976  0.1244
  342loPI    C3 5459  13.861   8.042  10.644  0.2652 -0.0134  0.0391
  342loPI   PO4 5460  13.803   8.042   9.958  0.3315 -0.0013  0.5777
  342loPI   GL1 5461  13.914   8.097   9.585  0.0968  0.1046 -0.0251
  342loPI   GL2 5462  13.686   8.283   9.558  0.0909 -0.2699 -0.0631
  342loPI   C1A 5463  13.834   7.903   9.285 -0.1272 -0.4041 -0.1282
  342loPI   C2A 5464  13.832   7.930   8.812 -0.2102 -0.1249 -0.1410
  342loPI   C3A 5465  13.890   7.869   8.425  0.0002 -0.3893  0.0513
  342loPI   C4A 5466  13.865   7.994   7.970 -0.1374  0.1034  0.0124
  342loPI   C5A 5467  13.783   8.195   7.641 -0.1075 -0.0144  0.2818
  342loPI   C6A 5468  13.860   8.645   7.514 -0.0641 -0.1509  0.0319
  342loPI   C1B 5469  13.854   8.338   9.130 -0.0446  0.1504 -0.1201
  342loPI   C2B 5470  13.886   8.482   8.838  0.0336 -0.1784  0.0299
  342loPI   C3B 5471  13.702   8.334   8.493 -0.1806 -0.1143  0.0968
  342loPI   C4B 5472  13.663   8.458   8.072  0.1186 -0.0228 -0.1562
  343loPI    C1 5473  15.883   5.356  10.223 -0.2208  0.1069  0.1777
  343loPI    C2 5474  15.704   5.107  10.479 -0.0981 -0.1414  0.0256
  343loPI    C3 5475  15.830   5.465  10.604 -0.4317 -0.0824  0.2046
  343loPI   PO4 5476  15.746   5.225   9.986 -0.2043  0.1940  0.1652
  343loPI   GL1 5477  15.498   5.249   9.624 -0.1069 -0.1684  0.0797
  343loPI   GL2 5478  15.551   4.903   9.604  0.0230 -0.0061  0.1310
  343loPI   C1A 5479  15.542   5.414   9.173 -0.0116  0.2151 -0.1150
  343loPI   C2A 5480  15.623   5.402   8.709 -0.2397 -0.1949 -0.1918
  343loPI   C3A 5481  15.790   5.310   8.366 -0.1828  0.2690 -0.2973
  343loPI   C4A 5482  15.865   5.140   8.040 -0.1173  0.0578 -0.2657
  343loPI   C5A 5483  16.088   5.206   7.687  0.3029  0.0029 -0.1407
  343loPI   C6A 5484  16.240   4.831   7.572  0.0476  0.1101  0.0990
  343loPI   C1B 5485  15.653   4.915   9.200 -0.2382 -0.0435  0.0452
  343loPI   C2B 5486  15.724   4.886   8.735  0.2676 -0.1409 -0.2775
  343loPI   C3B 5487  15.667   4.710   8.327  0.3156 -0.2640  0.0095
  343loPI   C4B 5488  15.437   4.749   7.952  0.1065 -0.0573  0.2644
  344loPI    C1 5489   9.409  17.909   9.811  0.1436 -0.1199  0.2475
  344loPI    C2 5490   9.702  18.065  10.034  0.2141 -0.1880  0.2030
  344loPI    C3 5491   9.666  18.170   9.650  0.1761 -0.1748  0.2101
  344loPI   PO4 5492   9.365  17.671   9.789 -0.0525 -0.1218 -0.1826
  344loPI   GL1 5493   9.456  17.633   9.380 -0.0129  0.1878  0.1241
  344loPI   GL2 5494   9.163  17.447   9.347 -0.0098 -0.0806  0.1536
  344loPI   C1A 5495   9.844  17.679   9.079 -0.0832  0.0601  0.1174
  344loPI   C2A 5496  10.022  17.780   8.566 -0.1515 -0.1793  0.0187
  344loPI   C3A 5497  10.212  17.904   8.125 -0.3101  0.0511 -0.0894
  344loPI   C4A 5498  10.226  17.838   7.601  0.0569  0.0778  0.1479
  344loPI   C5A 5499  10.335  17.524   7.345 -0.0114  0.0252  0.1126
  344loPI   C6A 5500  10.552  17.353   6.967  0.1427 -0.1054  0.0240
  344loPI   C1B 5501   9.163  17.606   8.836  0.0466  0.2484  0.0690
  344loPI   C2B 5502   9.107  17.682   8.382 -0.1216  0.0204  0.0175
  344loPI   C3B 5503   9.330  17.605   7.937 -0.0990 -0.3494 -0.4334
  344loPI   C4B 5504   9.733  17.674   7.789  0.1908 -0.2243 -0.1072
  345loPI    C1 5505  10.523   2.736  10.160 -0.1390  0.3637  0.1829
  345loPI    C2 5506  10.375   2.366  10.126  0.0065  0.3186  0.0237
  345loPI    C3 5507  10.723   2.426  10.314 -0.0629  0.3871  0.1318
  345loPI   PO4 5508  10.397   2.803   9.774  0.0600  0.0176 -0.4150
  345loPI   GL1 5509  10.246   2.543   9.378 -0.1963 -0.1151  0.1414
  345loPI   GL2 5510  10.662   2.599   9.290 -0.2053 -0.1524 -0.1218
  345loPI   C1A 5511  10.326   2.555   8.954 -0.0829 -0.0982  0.1500
  345loPI   C2A 5512  10.310   2.481   8.583 -0.1176 -0.3715  0.0225
  345loPI   C3A 5513  10.402   2.556   8.126 -0.3157  0.0879 -0.1716
  345loPI   C4A 5514  10.390   2.575   7.623 -0.0831  0.1035 -0.1768
  345loPI   C5A 5515  10.153   2.620   7.326  0.0497 -0.2091 -0.2244
  345loPI   C6A 5516  10.280   2.664   6.931 -0.1034 -0.0615  0.0571
  345loPI   C1B 5517  10.792   2.766   8.893 -0.1093  0.0835  0.0677
  345loPI   C2B 5518  10.909   2.813   8.448 -0.1959 -0.2455  0.0790
  345loPI   C3B 5519  10.883   2.862   7.929 -0.1434  0.0896 -0.0504
  345loPI   C4B 5520  10.879   2.781   7.530 -0.1426  0.3096  0.0632
  346loPI    C1 5521   8.786  15.423   9.732  0.1008 -0.0983  0.3223
  346loPI    C2 5522   8.533  15.124   9.648  0.0290  0.0930 -0.1723
  346loPI    C3 5523   8.489  15.334   9.986 -0.4221  0.0679 -0.2092
  346loPI   PO4 5524   8.837  15.706   9.501 -0.0140  0.1331 -0.1149
  346loPI   GL1 5525   8.850  15.778   9.138 -0.1958 -0.3606  0.2167
  346loPI   GL2 5526   8.493  15.895   9.218 -0.2243 -0.0078 -0.0156
  346loPI   C1A 5527   8.993  15.901   8.683 -0.1068 -0.2455 -0.1522
  346loPI   C2A 5528   9.119  15.872   8.253 -0.0366 -0.3373 -0.3278
  346loPI   C3A 5529   9.299  15.819   7.831 -0.2227 -0.1110 -0.1807
  346loPI   C4A 5530   9.006  15.620   7.556 -0.0295  0.0950 -0.5508
  346loPI   C5A 5531   8.701  15.282   7.442  0.0170  0.2416 -0.1712
  346loPI   C6A 5532   8.345  15.388   7.686 -0.0199  0.1733 -0.0676
  346loPI   C1B 5533   8.486  15.721   8.755 -0.1510 -0.0938  0.1057
  346loPI   C2B 5534   8.681  15.641   8.344  0.0389 -0.3133  0.2069
  346loPI   C3B 5535   8.682  15.750   7.844  0.1082 -0.0628  0.2962
  346loPI   C4B 5536   8.349  15.819   7.525 -0.0661  0.4088  0.0936
  347loPI    C1 5537  16.999   9.375  10.249  0.2420 -0.0063  0.1204
  347loPI    C2 5538  16.902   9.679  10.491 -0.0886 -0.1009  0.1107
  347loPI    C3 5539  17.020   9.329  10.646  0.0590 -0.0447  0.1263
  347loPI   PO4 5540  16.714   9.412  10.028  0.0639  0.0577 -0.0286
  347loPI   GL1 5541  16.517   9.413   9.544 -0.3521  0.0295 -0.0513
  347loPI   GL2 5542  16.328   9.295   9.316  0.0151 -0.1406 -0.0023
  347loPI   C1A 5543  16.654   9.528   9.067 -0.1002  0.0459 -0.0586
  347loPI   C2A 5544  16.466   9.458   8.576 -0.1312  0.2258 -0.2774
  347loPI   C3A 5545  16.518   9.395   8.177 -0.1259 -0.1504 -0.1771
  347loPI   C4A 5546  16.771   9.119   7.837 -0.1682  0.3767  0.1205
  347loPI   C5A 5547  17.139   8.877   7.711  0.2336 -0.2435 -0.1845
  347loPI   C6A 5548  17.225   8.731   7.261  0.1643 -0.1160 -0.0086
  347loPI   C1B 5549  16.245   9.208   8.925 -0.0288 -0.2612  0.0608
  347loPI   C2B 5550  15.998   9.130   8.495 -0.0510  0.1917 -0.2278
  347loPI   C3B 5551  15.994   9.316   8.109 -0.2170 -0.2120 -0.1641
  347loPI   C4B 5552  15.917   9.631   7.647  0.1711 -0.1411  0.1890
  348loPI    C1 5553  13.071  18.406  10.002 -0.1074 -0.0744  0.0510
  348loPI    C2 5554  12.932  18.669   9.734 -0.0393 -0.2019 -0.1113
  348loPI    C3 5555  13.086  18.798  10.080 -0.4810 -0.0537  0.0358
  348loPI   PO4 5556  13.271  18.177   9.764  0.3009  0.1364  0.1578
  348loPI   GL1 5557  13.389  18.282   9.322  0.5615 -0.0669 -0.0263
  348loPI   GL2 5558  13.155  18.549   9.303 -0.2719  0.1229  0.0164
  348loPI   C1A 5559  13.487  18.147   8.794 -0.1098  0.4090  0.1340
  348loPI   C2A 5560  13.569  17.963   8.391  0.0949  0.0168 -0.3044
  348loPI   C3A 5561  13.677  18.031   8.063 -0.2309  0.2426  0.2157
  348loPI   C4A 5562  13.739  17.854   7.653  0.0232  0.2021  0.1081
  348loPI   C5A 5563  13.848  17.617   7.324 -0.3393 -0.2704  0.1539
  348loPI   C6A 5564  14.050  17.248   7.104  0.2599 -0.0051 -0.0383
  348loPI   C1B 5565  13.003  18.859   9.005  0.2215  0.3281  0.3258
  348loPI   C2B 5566  12.891  18.945   8.581 -0.1605  0.1294  0.0855
  348loPI   C3B 5567  12.919  18.686   8.142 -0.0869 -0.0731  0.1252
  348loPI   C4B 5568  13.135  18.808   7.886 -0.1220  0.0250  0.1192
  349loPI    C1 5569  13.732  18.341   9.956 -0.0045  0.1024 -0.0145
  349loPI    C2 5570  13.840  18.451   9.587  0.2243  0.2529  0.0950
  349loPI    C3 5571  13.508  18.602   9.751  0.0419  0.0733 -0.1025
  349loPI   PO4 5572  13.755  18.111   9.965  0.0100  0.0934  0.3760
  349loPI   GL1 5573  13.861  17.997   9.493 -0.0791 -0.0735 -0.1262
  349loPI   GL2 5574  13.857  17.694   9.617  0.0094 -0.0419 -0.1038
  349loPI   C1A 5575  14.005  17.969   9.076 -0.0376  0.0683 -0.2148
  349loPI   C2A 5576  14.021  18.103   8.663  0.0205  0.1027  0.1496
  349loPI   C3A 5577  14.110  18.233   8.239 -0.0713 -0.3005 -0.0616
  349loPI   C4A 5578  14.062  18.400   7.734  0.0211 -0.0780 -0.1291
  349loPI   C5A 5579  14.170  18.544   7.379  0.0769 -0.2534 -0.1264
  349loPI   C6A 5580  14.097  18.365   6.925  0.0444 -0.2614  0.0549
  349loPI   C1B 5581  13.522  17.727   9.219 -0.1651  0.0143 -0.0878
  349loPI   C2B 5582  13.566  17.625   8.809 -0.1143 -0.1603 -0.0681
  349loPI   C3B 5583  13.684  17.377   8.457  0.4251 -0.2064  0.1669
  349loPI   C4B 5584  13.882  17.186   8.119  0.0222 -0.1982  0.2852
  350loPI    C1 5585  17.644  17.723  10.231  0.1725 -0.1208 -0.0240
  350loPI    C2 5586  17.337  17.477  10.302  0.0009  0.0987  0.0023
  350loPI    C3 5587  17.649  17.484  10.551 -0.1107  0.0914  0.1434
  350loPI   PO4 5588  17.703  17.694   9.998 -0.1873 -0.2788  0.0124
  350loPI   GL1 5589  17.757  17.487   9.565 -0.2075  0.2998  0.2966
  350loPI   GL2 5590  18.059  17.359   9.777 -0.1015  0.0060 -0.2878
  350loPI   C1A 5591  17.536  17.377   9.224 -0.1544  0.1771  0.0895
  350loPI   C2A 5592  17.567  17.570   8.839  0.4100 -0.3553 -0.0822
  350loPI   C3A 5593  17.326  17.466   8.494 -0.1347 -0.1385  0.0983
  350loPI   C4A 5594  17.355  17.195   8.071  0.0252  0.1391  0.3116
  350loPI   C5A 5595  17.280  17.223   7.634  0.0016  0.0327  0.1117
  350loPI   C6A 5596  17.231  17.383   7.231 -0.1676  0.0311 -0.0134
  350loPI   C1B 5597  18.144  17.120   9.451 -0.2284  0.3940  0.0258
  350loPI   C2B 5598  17.984  17.029   9.056 -0.3172 -0.1337  0.0212
  350loPI   C3B 5599  18.067  17.081   8.753 -0.1879  0.0317  0.4162
  350loPI   C4B 5600  18.341  17.143   8.478 -0.2046 -0.0565  0.2545
  351loPI    C1 5601  17.944   4.071  10.374 -0.0060  0.0011 -0.0380
  351loPI    C2 5602  17.903   3.825  10.687 -0.0391 -0.1552 -0.1644
  351loPI    C3 5603  17.625   4.103  10.614  0.3477  0.4068  0.3991
  351loPI   PO4 5604  18.010   3.986  10.182 -0.0115  0.0744 -0.1495
  351loPI   GL1 5605  18.090   4.071   9.847  0.0797 -0.1868  0.3715
  351loPI   GL2 5606  17.896   4.371   9.746 -0.0839 -0.0267 -0.2391
  351loPI   C1A 5607  18.252   3.989   9.492  0.1943  0.0545 -0.1655
  351loPI   C2A 5608  18.460   3.896   9.065 -0.0900  0.1664 -0.2248
  351loPI   C3A 5609  18.660   3.894   8.634  0.0314  0.1099 -0.0091
  351loPI   C4A 5610  18.531   3.712   8.304  0.1833 -0.1246 -0.1301
  351loPI   C5A 5611  18.207   3.760   8.025 -0.0358  0.1158 -0.1534
  351loPI   C6A 5612  17.782   3.568   7.945 -0.2928  0.1098  0.0528
  351loPI   C1B 5613  17.945   4.571   9.317  0.1010 -0.0349 -0.1100
  351loPI   C2B 5614  18.126   4.733   8.877  0.0269 -0.0986 -0.3364
  351loPI   C3B 5615  18.370   5.018   8.707 -0.0528  0.2190 -0.0703
  351loPI   C4B 5616  18.367   5.094   8.287  0.3375 -0.1221  0.0259
  352loPI    C1 5617   2.735  16.369  10.588  0.1665 -0.0884  0.1979
  352loPI    C2 5618   2.640  16.034  10.783 -0.1678 -0.0518  0.1046
  352loPI    C3 5619   2.551  16.390  10.942 -0.4378 -0.0219 -0.1058
  352loPI   PO4 5620   2.596  16.299  10.319 -0.0459  0.2243 -0.2838
  352loPI   GL1 5621   2.474  16.309   9.845 -0.2053  0.0323  0.0897
  352loPI   GL2 5622   2.302  16.591   9.987 -0.1074  0.1643 -0.1930
  352loPI   C1A 5623   2.556  16.450   9.404 -0.0488  0.0163  0.1850
  352loPI   C2A 5624   2.538  16.385   8.954 -0.1524  0.0396  0.1220
  352loPI   C3A 5625   2.451  16.445   8.459  0.1008  0.2109  0.0099
  352loPI   C4A 5626   2.467  16.771   8.123  0.0066  0.2096 -0.1258
  352loPI   C5A 5627   2.548  17.185   8.003  0.0937 -0.1269 -0.0761
  352loPI   C6A 5628   2.475  17.567   8.027  0.2127 -0.0427 -0.4714
  352loPI   C1B 5629   2.185  16.635   9.608  0.0030 -0.0736 -0.2837
  352loPI   C2B 5630   2.224  16.744   9.215  0.0215 -0.1139  0.0197
  352loPI   C3B 5631   2.387  16.893   8.837  0.0063 -0.2543 -0.2238
  352loPI   C4B 5632   2.494  17.280   8.503 -0.1111  0.3602 -0.1276
  353loPI    C1 5633   4.724  18.928  10.151  0.3035 -0.0028 -0.1135
  353loPI    C2 5634   4.637  19.274   9.970 -0.0983 -0.0292  0.0202
  353loPI    C3 5635   4.638  19.251  10.370  0.1678 -0.1249  0.0160
  353loPI   PO4 5636   4.896  18.823  10.006 -0.2115  0.0522  0.0948
  353loPI   GL1 5637   4.928  19.061   9.616 -0.0967 -0.4011 -0.1171
  353loPI   GL2 5638   4.751  19.166   9.383  0.2105 -0.3864 -0.2159
  353loPI   C1A 5639   5.261  19.147   9.210  0.2292  0.0685 -0.1716
  353loPI   C2A 5640   5.153  18.954   8.805 -0.4128 -0.0442 -0.0647
  353loPI   C3A 5641   5.209  18.919   8.304 -0.0165 -0.0083  0.0909
  353loPI   C4A 5642   4.952  18.629   8.044  0.0966 -0.0012  0.2103
  353loPI   C5A 5643   5.036  18.784   7.677 -0.0912  0.1153  0.3641
  353loPI   C6A 5644   5.403  18.645   7.398 -0.0710  0.0774  0.0270
  353loPI   C1B 5645   4.824  19.252   8.884 -0.1188 -0.1926 -0.2821
  353loPI   C2B 5646   4.707  19.341   8.395 -0.0754  0.0677  0.0788
  353loPI   C3B 5647   4.750  19.079   7.980 -0.0473  0.3275  0.0586
  353loPI   C4B 5648   4.754  19.245   7.589 -0.0728  0.1607  0.2848
  354loPI    C1 5649   0.167   7.474  10.194  0.2355  0.1528 -0.1096
  354loPI    C2 5650   0.519   7.287  10.228  0.0330 -0.1779  0.2542
  354loPI    C3 5651   0.296   7.354  10.553 -0.1424  0.2301  0.0572
  354loPI   PO4 5652   0.188   7.653   9.992  0.0473 -0.1025 -0.0433
  354loPI   GL1 5653   0.032   7.783   9.466  0.3009 -0.0245 -0.1500
  354loPI   GL2 5654  -0.225   7.731   9.315  0.1701 -0.2710  0.1326
  354loPI   C1A 5655   0.268   7.806   9.170  0.0110  0.0145  0.1787
  354loPI   C2A 5656   0.203   7.885   8.732  0.1789 -0.1838 -0.2724
  354loPI   C3A 5657   0.049   7.879   8.302  0.0950  0.0717  0.0311
  354loPI   C4A 5658   0.135   7.802   7.877  0.0203  0.1830 -0.1005
  354loPI   C5A 5659   0.374   7.695   7.638 -0.1082  0.0784 -0.1905
  354loPI   C6A 5660   0.744   7.424   7.429  0.0353 -0.0149 -0.1335
  354loPI   C1B 5661  -0.402   7.811   8.988 -0.0499  0.1475 -0.1106
  354loPI   C2B 5662  -0.526   7.804   8.499 -0.1651  0.2077 -0.1075
  354loPI   C3B 5663  -0.486   7.898   8.065  0.0326  0.1361  0.3126
  354loPI   C4B 5664  -0.184   8.152   7.787  0.1523 -0.0942 -0.4048
  355loPI    C1 5665   0.665  11.421   9.831 -0.0429 -0.0871  0.0027
  355loPI    C2 5666   0.916  11.269  10.103 -0.1213 -0.0365  0.1046
  355loPI    C3 5667   0.521  11.234  10.155 -0.1370 -0.0008  0.0114
  355loPI   PO4 5668   0.873  11.284   9.576  0.0271 -0.1830 -0.3860
  355loPI   GL1 5669   1.195  11.453   9.247 -0.0110 -0.1269  0.0585
  355loPI   GL2 5670   1.042  11.833   9.158 -0.0650 -0.1602  0.0757
  355loPI   C1A 5671   1.003  11.383   8.859  0.1261 -0.0009  0.0094
  355loPI   C2A 5672   0.825  11.291   8.414 -0.1892  0.1148 -0.0960
  355loPI   C3A 5673   0.727  10.948   8.170 -0.0144 -0.0178  0.2249
  355loPI   C4A 5674   0.652  10.752   7.664 -0.0439 -0.1011  0.0340
  355loPI   C5A 5675   0.651  10.614   7.247 -0.0695  0.1918  0.0902
  355loPI   C6A 5676   0.475  10.228   7.004 -0.0378  0.0083 -0.1041
  355loPI   C1B 5677   1.131  11.935   8.783 -0.0627 -0.0502 -0.1974
  355loPI   C2B 5678   0.989  11.938   8.422 -0.0367 -0.1672  0.0313
  355loPI   C3B 5679   0.818  11.890   8.095  0.2146 -0.0372 -0.1711
  355loPI   C4B 5680   0.810  11.782   7.718 -0.3562 -0.1171  0.1197
  356loPI    C1 5681  18.352  11.665  10.335 -0.0071  0.1644  0.3060
  356loPI    C2 5682  18.154  11.837  10.637 -0.0408 -0.0952  0.4344
  356loPI    C3 5683  18.542  11.918  10.580 -0.1165  0.2150  0.3389
  356loPI   PO4 5684  18.236  11.690  10.117 -0.2757  0.0624  0.0006
  356loPI   GL1 5685  18.143  11.564   9.693 -0.0797  0.0434 -0.2621
  356loPI   GL2 5686  18.045  11.260   9.585  0.2265  0.1827  0.4490
  356loPI   C1A 5687  18.345  11.566   9.283  0.0520  0.2356  0.1877
  356loPI   C2A 5688  18.592  11.564   8.913  0.1844 -0.4408  0.2172
  356loPI   C3A 5689  18.350  11.426   8.585  0.0965 -0.0143  0.0526
  356loPI   C4A 5690  18.412  11.217   8.204  0.3445  0.2322 -0.0348
  356loPI   C5A 5691  18.420  11.168   7.839  0.0689 -0.0056  0.1656
  356loPI   C6A 5692  18.367  10.779   7.661  0.0572  0.0652  0.3204
  356loPI   C1B 5693  18.249  11.093   9.077  0.1700  0.2637 -0.0122
  356loPI   C2B 5694  18.077  10.872   8.580  0.1440  0.2784 -0.0274
  356loPI   C3B 5695  17.938  10.814   8.155 -0.0856  0.0654  0.1568
  356loPI   C4B 5696  17.938  11.066   7.832 -0.0562  0.4060  0.0844
  357loPI    C1 5697  11.489  11.129   9.819 -0.0473  0.0392  0.1686
  357loPI    C2 5698  11.354  11.215  10.185  0.2902 -0.1139  0.3332
  357loPI    C3 5699  11.451  10.839  10.091  0.1009 -0.0949  0.0479
  357loPI   PO4 5700  11.460  11.335   9.676  0.1593  0.2396 -0.4281
  357loPI   GL1 5701  11.137  11.374   9.400  0.1333 -0.3522 -0.1478
  357loPI   GL2 5702  11.235  10.965   9.305 -0.0449  0.0162  0.0304
  357loPI   C1A 5703  11.035  11.226   8.937 -0.1306 -0.1062  0.2554
  357loPI   C2A 5704  11.209  11.092   8.522  0.1228 -0.1173 -0.0235
  357loPI   C3A 5705  11.179  10.821   8.156 -0.1392 -0.2701 -0.0936
  357loPI   C4A 5706  11.025  10.691   7.687 -0.0459 -0.1332 -0.0628
  357loPI   C5A 5707  10.896  10.918   7.265  0.1348 -0.0099  0.1390
  357loPI   C6A 5708  11.241  10.981   6.942  0.1716  0.0117  0.0908
  357loPI   C1B 5709  11.336  10.749   8.917  0.2683 -0.1475 -0.0751
  357loPI   C2B 5710  11.561  10.504   8.530  0.0475 -0.2952 -0.3299
  357loPI   C3B 5711  11.666  10.529   8.070 -0.1883 -0.2439 -0.2275
  357loPI   C4B 5712  11.457  10.438   7.668  0.0068 -0.2580  0.2126
  358loPI    C1 5713  13.130   3.913   9.897 -0.1330  0.1820 -0.1715
  358loPI    C2 5714  13.252   4.273  10.019 -0.1351  0.0564  0.2145
  358loPI    C3 5715  13.129   4.003  10.287 -0.1885 -0.2124 -0.0762
  358loPI   PO4 5716  13.390   3.816   9.748 -0.0061  0.0874  0.3141
  358loPI   GL1 5717  13.517   3.437   9.437 -0.1557  0.3620  0.0529
  358loPI   GL2 5718  13.594   3.209   9.246 -0.0636 -0.2318 -0.4307
  358loPI   C1A 5719  13.636   3.682   9.045  0.0436 -0.1573  0.2713
  358loPI   C2A 5720  13.612   3.729   8.613 -0.0538  0.4107 -0.0580
  358loPI   C3A 5721  13.558   4.026   8.264  0.0509 -0.1187 -0.0112
  358loPI   C4A 5722  13.660   4.035   7.829  0.0718 -0.2144 -0.0903
  358loPI   C5A 5723  13.918   3.985   7.453  0.0942 -0.1582  0.0651
  358loPI   C6A 5724  14.063   3.869   7.184  0.2544  0.0870 -0.0502
  358loPI   C1B 5725  13.599   3.227   8.779  0.0247  0.0601  0.0827
  358loPI   C2B 5726  13.486   3.250   8.381 -0.0307  0.1026  0.2665
  358loPI   C3B 5727  13.517   3.088   7.877 -0.1782  0.0553  0.1276
  358loPI   C4B 5728  13.426   3.273   7.562  0.0407  0.0230 -0.0110
  359loPI    C1 5729  17.035   4.832  10.177  0.1455 -0.2742 -0.0929
  359loPI    C2 5730  16.896   4.545  10.418 -0.1009 -0.1044 -0.0288
  359loPI    C3 5731  16.996   4.901  10.569 -0.0047 -0.0835 -0.1403
  359loPI   PO4 5732  17.255   4.689  10.063  0.0243  0.0228  0.3368
  359loPI   GL1 5733  17.499   4.708   9.688 -0.0256  0.1167  0.0249
  359loPI   GL2 5734  17.539   4.878   9.468  0.0529 -0.0146 -0.1662
  359loPI   C1A 5735  17.453   4.354   9.374  0.1180  0.2522  0.2384
  359loPI   C2A 5736  17.542   4.516   8.950 -0.1751  0.3419  0.2601
  359loPI   C3A 5737  17.401   4.464   8.533 -0.0215 -0.3076  0.0482
  359loPI   C4A 5738  17.557   4.317   8.114  0.2692 -0.1691  0.1940
  359loPI   C5A 5739  17.452   4.557   7.795  0.1756  0.0145 -0.1193
  359loPI   C6A 5740  17.309   4.921   7.450 -0.2477  0.2564  0.2219
  359loPI   C1B 5741  17.960   5.052   9.273  0.3199 -0.0091 -0.3851
  359loPI   C2B 5742  18.302   5.391   9.266 -0.1037  0.2667 -0.1475
  359loPI   C3B 5743  18.463   5.555   8.973 -0.1927  0.2922 -0.2101
  359loPI   C4B 5744  18.697   5.587   8.579 -0.1543  0.2908 -0.0957
  360loPI    C1 5745  10.571  10.788  10.256  0.2021 -0.3609 -0.1662
  360loPI    C2 5746  10.235  10.581  10.327  0.1402 -0.1403  0.2048
  360loPI    C3 5747  10.542  10.560  10.583  0.1367  0.2149  0.2444
  360loPI   PO4 5748  10.678  10.590   9.962  0.1117 -0.3778 -0.3128
  360loPI   GL1 5749  10.549  10.328   9.518 -0.1453  0.4283 -0.1301
  360loPI   GL2 5750  10.896  10.403   9.441  0.0827 -0.0275  0.0535
  360loPI   C1A 5751  10.526  10.296   9.074 -0.3758 -0.2589 -0.0345
  360loPI   C2A 5752  10.620  10.231   8.765 -0.0617 -0.1884  0.0228
  360loPI   C3A 5753  10.781  10.055   8.422  0.0812  0.2910 -0.0637
  360loPI   C4A 5754  10.636   9.950   8.014  0.2912  0.1406  0.2501
  360loPI   C5A 5755  10.541  10.096   7.598 -0.3084 -0.3916  0.2241
  360loPI   C6A 5756  10.726   9.879   7.304  0.2880 -0.0741  0.0479
  360loPI   C1B 5757  11.064  10.378   9.075 -0.0789  0.0849  0.0215
  360loPI   C2B 5758  11.124  10.284   8.683 -0.2968 -0.0048 -0.3067
  360loPI   C3B 5759  11.209  10.318   8.183  0.0483  0.0002 -0.4616
  360loPI   C4B 5760  11.073  10.159   7.843  0.1772  0.0552  0.0640
  361loPI    C1 5761   7.337  14.907  10.002 -0.2084 -0.0098 -0.1137
  361loPI    C2 5762   7.196  15.137  10.297 -0.2778 -0.0311 -0.1302
  361loPI    C3 5763   7.144  14.741  10.310  0.2360 -0.0984  0.1263
  361loPI   PO4 5764   7.305  14.975   9.744 -0.0481 -0.1042  0.0201
  361loPI   GL1 5765   7.261  15.215   9.408 -0.0893 -0.0687  0.3428
  361loPI   GL2 5766   7.073  15.099   9.266 -0.1833 -0.1147  0.0062
  361loPI   C1A 5767   7.607  15.182   9.072  0.2675 -0.0047 -0.5876
  361loPI   C2A 5768   7.646  15.137   8.700  0.2183  0.0910  0.0572
  361loPI   C3A 5769   7.710  14.974   8.287 -0.0013 -0.3839 -0.2976
  361loPI   C4A 5770   7.714  14.924   7.883  0.0072  0.0707  0.0717
  361loPI   C5A 5771   7.751  14.811   7.403 -0.1054 -0.3461 -0.0033
  361loPI   C6A 5772   7.993  14.596   7.276 -0.0562  0.3436 -0.2476
  361loPI   C1B 5773   7.063  14.824   8.964  0.3089 -0.3390  0.1705
  361loPI   C2B 5774   7.173  14.627   8.571 -0.3930  0.2042  0.1249
  361loPI   C3B 5775   7.244  14.797   8.070 -0.0551 -0.1690  0.1025
  361loPI   C4B 5776   7.259  14.602   7.631 -0.0958 -0.1112  0.2560
  362loPI    C1 5777   8.619  17.105  10.113  0.0307 -0.3200  0.0210
  362loPI    C2 5778   8.758  17.283  10.444  0.3170 -0.2642 -0.1258
  362loPI    C3 5779   8.373  17.323  10.341  0.2740 -0.1107  0.0882
  362loPI   PO4 5780   8.735  17.157   9.863  0.0549 -0.1974 -0.0138
  362loPI   GL1 5781   8.773  17.221   9.499  0.1588 -0.0511 -0.0736
  362loPI   GL2 5782   8.566  17.406   9.410  0.2062  0.0317 -0.1422
  362loPI   C1A 5783   8.911  17.109   9.068  0.1063  0.1534  0.0706
  362loPI   C2A 5784   9.189  17.148   8.556 -0.0200  0.2395 -0.0506
  362loPI   C3A 5785   9.202  17.079   8.050 -0.0861 -0.1990 -0.1515
  362loPI   C4A 5786   9.526  16.966   7.822 -0.1617  0.0639  0.0482
  362loPI   C5A 5787   9.376  16.735   7.424 -0.3348 -0.1199  0.1397
  362loPI   C6A 5788   9.433  16.557   6.985 -0.0974 -0.0923 -0.0227
  362loPI   C1B 5789   8.392  17.270   9.015 -0.2697 -0.0299  0.0964
  362loPI   C2B 5790   8.237  17.235   8.527 -0.0148  0.1029  0.2693
  362loPI   C3B 5791   8.342  17.123   8.167  0.0874 -0.0537  0.1628
  362loPI   C4B 5792   8.363  16.949   7.755  0.1190  0.1219 -0.1947
  363loPI    C1 5793  11.998   2.723   9.789 -0.0418 -0.3235  0.0868
  363loPI    C2 5794  12.105   2.677  10.172 -0.2400 -0.2637  0.1511
  363loPI    C3 5795  11.854   2.971  10.068 -0.0982 -0.2086 -0.0430
  363loPI   PO4 5796  12.062   2.554   9.693 -0.1001 -0.0095  0.1143
  363loPI   GL1 5797  12.293   2.647   9.290  0.0267  0.2711  0.0833
  363loPI   GL2 5798  12.171   2.969   9.339  0.4666 -0.0645 -0.0479
  363loPI   C1A 5799  12.333   2.446   8.871 -0.1784  0.0668  0.0981
  363loPI   C2A 5800  12.250   2.460   8.353 -0.1465  0.0216 -0.0619
  363loPI   C3A 5801  12.167   2.447   7.978 -0.0427  0.0254 -0.1841
  363loPI   C4A 5802  11.921   2.392   7.577 -0.0544  0.0046 -0.0441
  363loPI   C5A 5803  11.987   2.815   7.291  0.2053  0.0316  0.0822
  363loPI   C6A 5804  12.383   2.932   7.177  0.0538 -0.1541 -0.2675
  363loPI   C1B 5805  12.164   3.050   8.923  0.0048  0.3803  0.1014
  363loPI   C2B 5806  12.252   3.016   8.482  0.2814 -0.3257 -0.0501
  363loPI   C3B 5807  12.289   2.929   8.124  0.0527 -0.3370  0.0025
  363loPI   C4B 5808  12.243   2.932   7.750  0.3762  0.4004 -0.3003
  364loPI    C1 5809   4.910  14.262  10.222  0.1589 -0.1028  0.0253
  364loPI    C2 5810   4.936  14.417  10.590  0.0765 -0.2585  0.0976
  364loPI    C3 5811   5.217  14.164  10.459  0.3130  0.0937 -0.0903
  364loPI   PO4 5812   4.729  14.172  10.112 -0.1259 -0.0977  0.0260
  364loPI   GL1 5813   4.852  14.246   9.713 -0.0507 -0.1819  0.0060
  364loPI   GL2 5814   4.988  14.499   9.575 -0.1078 -0.0300 -0.2652
  364loPI   C1A 5815   4.911  13.992   9.356 -0.5105 -0.0393 -0.0403
  364loPI   C2A 5816   4.910  13.981   8.877  0.2620 -0.1483 -0.0009
  364loPI   C3A 5817   4.938  13.926   8.467  0.0793 -0.1651 -0.1277
  364loPI   C4A 5818   5.049  14.034   8.050 -0.2670  0.1769 -0.1145
  364loPI   C5A 5819   5.204  14.397   7.832 -0.1861 -0.0517 -0.4689
  364loPI   C6A 5820   5.505  14.665   7.687  0.1735  0.0327  0.2067
  364loPI   C1B 5821   4.822  14.512   9.113  0.0186 -0.2015  0.1106
  364loPI   C2B 5822   4.765  14.387   8.641  0.0887  0.0155 -0.1927
  364loPI   C3B 5823   4.561  14.375   8.236 -0.1613  0.0355 -0.0976
  364loPI   C4B 5824   4.755  14.665   7.956 -0.2032 -0.1697 -0.0083
  365loPI    C1 5825  13.287   5.510   9.983  0.1541  0.1787  0.0403
  365loPI    C2 5826  13.519   5.645   9.687 -0.0084  0.2220 -0.0685
  365loPI    C3 5827  13.679   5.558  10.042  0.1714  0.2663 -0.1377
  365loPI   PO4 5828  13.129   5.335   9.871 -0.0591  0.0449 -0.1194
  365loPI   GL1 5829  13.076   5.493   9.403  0.0676 -0.4154 -0.1292
  365loPI   GL2 5830  13.225   5.161   9.424  0.2656  0.0759 -0.0370
  365loPI   C1A 5831  13.248   5.545   9.001  0.0034  0.1628 -0.0096
  365loPI   C2A 5832  13.273   5.598   8.539  0.0824 -0.0374 -0.2474
  365loPI   C3A 5833  13.360   5.587   8.143 -0.1311  0.3001  0.4391
  365loPI   C4A 5834  13.402   5.821   7.842 -0.1518  0.0940 -0.2476
  365loPI   C5A 5835  13.430   6.102   7.403  0.1705  0.1328 -0.0258
  365loPI   C6A 5836  13.540   6.390   7.281 -0.0627  0.1873  0.2679
  365loPI   C1B 5837  13.380   5.068   9.012 -0.1677  0.0725  0.2528
  365loPI   C2B 5838  13.542   4.984   8.664  0.3557 -0.1246 -0.1112
  365loPI   C3B 5839  13.546   5.015   8.267 -0.3940 -0.2472  0.2080
  365loPI   C4B 5840  13.538   4.798   7.916 -0.0030  0.1292 -0.1647
  366loPI    C1 5841   5.093   4.574  10.498 -0.0096 -0.2911  0.0718
  366loPI    C2 5842   4.847   4.845  10.660 -0.0845 -0.1395 -0.2862
  366loPI    C3 5843   4.986   4.543  10.882 -0.0815  0.1323  0.0909
  366loPI   PO4 5844   5.211   4.818  10.202 -0.2597  0.4297 -0.1058
  366loPI   GL1 5845   5.137   4.835   9.746 -0.0487 -0.0148  0.1404
  366loPI   GL2 5846   4.807   4.855   9.749  0.4299  0.0951  0.0043
  366loPI   C1A 5847   5.482   5.018   9.505 -0.0975 -0.1092  0.1954
  366loPI   C2A 5848   5.343   5.077   9.146  0.1939 -0.0013  0.1118
  366loPI   C3A 5849   5.390   5.215   8.736  0.2090  0.2962 -0.0282
  366loPI   C4A 5850   5.380   5.135   8.311  0.2749 -0.3095 -0.0628
  366loPI   C5A 5851   5.001   5.215   8.081  0.1716  0.2539 -0.0124
  366loPI   C6A 5852   4.533   5.344   7.992 -0.1505  0.0915 -0.1550
  366loPI   C1B 5853   4.533   4.633   9.403 -0.3863 -0.0788 -0.0986
  366loPI   C2B 5854   4.557   4.702   9.017  0.3019  0.0641  0.0181
  366loPI   C3B 5855   4.522   4.711   8.537  0.2048 -0.0240 -0.1677
  366loPI   C4B 5856   4.600   4.914   8.195  0.2848 -0.2359  0.0687
  367loPI    C1 5857   9.745  12.734  10.042  0.0445  0.0582  0.1916
  367loPI    C2 5858   9.794  12.612  10.420 -0.2084  0.0230  0.2147
  367loPI    C3 5859   9.426  12.675  10.276 -0.1210 -0.0881 -0.0651
  367loPI   PO4 5860   9.918  12.537   9.921  0.0672  0.1251  0.0548
  367loPI   GL1 5861   9.933  12.289   9.560 -0.2961 -0.1209  0.4210
  367loPI   GL2 5862   9.678  12.493   9.441 -0.0788  0.1686 -0.0256
  367loPI   C1A 5863  10.014  12.280   9.160  0.0903  0.0853 -0.2677
  367loPI   C2A 5864  10.095  12.105   8.748 -0.3156  0.2128  0.2914
  367loPI   C3A 5865  10.060  11.966   8.326  0.1048  0.1741  0.1699
  367loPI   C4A 5866   9.992  11.871   7.940  0.1817  0.3379 -0.1670
  367loPI   C5A 5867   9.968  11.866   7.482 -0.3258  0.0377 -0.0006
  367loPI   C6A 5868   9.737  11.946   7.160 -0.0296 -0.2463 -0.0792
  367loPI   C1B 5869   9.218  12.486   9.292 -0.0837 -0.4752 -0.0149
  367loPI   C2B 5870   9.051  12.228   9.024 -0.0651  0.2349  0.0011
  367loPI   C3B 5871   8.796  12.384   8.692 -0.0953 -0.0896 -0.0841
  367loPI   C4B 5872   8.528  12.207   8.379  0.0724  0.0285 -0.2236
  368loPI    C1 5873   4.874  16.087   9.986 -0.0661  0.0265  0.0762
  368loPI    C2 5874   5.272  16.058   9.969 -0.0673  0.1032 -0.1180
  368loPI    C3 5875   5.077  15.946  10.300  0.0916 -0.2014 -0.1242
  368loPI   PO4 5876   4.727  15.904   9.728  0.1830 -0.3263 -0.0393
  368loPI   GL1 5877   4.400  16.145   9.563 -0.1066 -0.0463 -0.0129
  368loPI   GL2 5878   4.372  15.886   9.310  0.0980 -0.3897  0.1509
  368loPI   C1A 5879   4.414  16.438   9.271 -0.0146 -0.0786  0.0523
  368loPI   C2A 5880   4.028  16.303   9.020 -0.1043 -0.0539 -0.2494
  368loPI   C3A 5881   3.929  16.429   8.608  0.1832 -0.1309  0.0024
  368loPI   C4A 5882   4.209  16.594   8.314  0.2868 -0.0079  0.2671
  368loPI   C5A 5883   4.192  16.702   7.877 -0.2176 -0.0942 -0.0481
  368loPI   C6A 5884   3.832  16.788   7.677 -0.4422  0.1543  0.1685
  368loPI   C1B 5885   4.541  16.045   8.936 -0.0078  0.5198  0.0764
  368loPI   C2B 5886   4.680  15.939   8.554  0.2233  0.2350 -0.4143
  368loPI   C3B 5887   4.753  15.751   8.131  0.2631  0.2298  0.1846
  368loPI   C4B 5888   4.672  15.722   7.646  0.0809  0.0067  0.3068
  369loPI    C1 5889  14.939  17.741   9.681  0.3489 -0.2130 -0.0112
  369loPI    C2 5890  15.024  17.835  10.060 -0.1793  0.2855 -0.0016
  369loPI    C3 5891  14.718  17.591   9.979 -0.0059  0.1010 -0.1069
  369loPI   PO4 5892  15.164  17.703   9.558 -0.0744  0.1515  0.2721
  369loPI   GL1 5893  15.170  17.490   9.261  0.3656 -0.0408  0.0056
  369loPI   GL2 5894  15.003  17.669   9.071 -0.0691 -0.2075 -0.2150
  369loPI   C1A 5895  15.165  17.243   8.786  0.0628 -0.1094  0.0207
  369loPI   C2A 5896  15.280  17.363   8.378  0.0905 -0.0755 -0.0643
  369loPI   C3A 5897  15.373  17.267   7.990 -0.0273 -0.1942  0.3145
  369loPI   C4A 5898  15.706  17.144   7.734 -0.0429  0.0597  0.0009
  369loPI   C5A 5899  16.045  17.073   7.499  0.0752  0.0510 -0.2844
  369loPI   C6A 5900  16.489  17.063   7.318  0.2548 -0.0369 -0.0691
  369loPI   C1B 5901  14.963  17.724   8.575 -0.3566 -0.0923 -0.0345
  369loPI   C2B 5902  14.941  17.638   8.144  0.2406 -0.1890  0.1176
  369loPI   C3B 5903  14.870  17.759   7.693  0.3312  0.3110  0.2703
  369loPI   C4B 5904  15.003  17.823   7.307  0.1974  0.1788  0.0561
  370loPI    C1 5905   2.356  13.287  10.025 -0.1816 -0.0673  0.5328
  370loPI    C2 5906   2.624  13.082  10.240 -0.0216 -0.2194  0.1960
  370loPI    C3 5907   2.317  12.891  10.070 -0.0173 -0.1387  0.0968
  370loPI   PO4 5908   2.427  13.441   9.817  0.0153  0.0343 -0.0393
  370loPI   GL1 5909   2.241  13.559   9.426  0.2228  0.0488  0.0752
  370loPI   GL2 5910   2.058  13.693   9.307 -0.0646  0.3037  0.0403
  370loPI   C1A 5911   2.301  13.235   9.087 -0.0937  0.1962 -0.1291
  370loPI   C2A 5912   2.419  13.344   8.744  0.1531 -0.1292 -0.4457
  370loPI   C3A 5913   2.377  13.311   8.225  0.5172  0.0971 -0.1194
  370loPI   C4A 5914   2.432  13.579   7.814  0.0465  0.3498 -0.1892
  370loPI   C5A 5915   2.339  13.607   7.383  0.0245 -0.4123 -0.2706
  370loPI   C6A 5916   2.503  14.010   7.141 -0.1400  0.0658 -0.1358
  370loPI   C1B 5917   2.012  13.652   8.900  0.2583  0.3459  0.0592
  370loPI   C2B 5918   2.069  13.633   8.445  0.2425  0.2066 -0.0695
  370loPI   C3B 5919   1.975  13.690   8.052 -0.3032 -0.1710 -0.0828
  370loPI   C4B 5920   1.885  13.700   7.608  0.0883 -0.0750  0.0429
  371loPI    C1 5921   2.373   8.508   9.923 -0.1557  0.1268  0.2220
  371loPI    C2 5922   2.448   8.786  10.201  0.1203 -0.0007  0.2785
  371loPI    C3 5923   2.718   8.501  10.124  0.1449  0.1604 -0.2757
  371loPI   PO4 5924   2.116   8.356   9.976 -0.0374  0.1315 -0.1726
  371loPI   GL1 5925   1.907   8.308   9.652  0.4880  0.0259 -0.0757
  371loPI   GL2 5926   2.170   8.127   9.542  0.2419 -0.1802 -0.0602
  371loPI   C1A 5927   1.904   8.328   9.162 -0.0267 -0.1221 -0.0536
  371loPI   C2A 5928   1.776   8.323   8.713 -0.1006 -0.1688  0.3956
  371loPI   C3A 5929   1.673   8.005   8.453 -0.1056 -0.0196  0.0624
  371loPI   C4A 5930   1.786   8.022   7.922  0.3921 -0.1425 -0.1005
  371loPI   C5A 5931   1.794   7.887   7.509 -0.2843 -0.2535  0.2420
  371loPI   C6A 5932   2.153   7.810   7.244  0.0102 -0.1168  0.0731
  371loPI   C1B 5933   2.302   8.043   9.092 -0.1003 -0.0674  0.1701
  371loPI   C2B 5934   2.602   7.951   8.826 -0.1560 -0.0914  0.0215
  371loPI   C3B 5935   2.763   7.833   8.412 -0.2820  0.2673  0.0037
  371loPI   C4B 5936   2.668   7.673   7.992  0.1586  0.0640 -0.2701
  372loPI    C1 5937   0.159  14.747  10.182 -0.0201  0.1050 -0.1463
  372loPI    C2 5938  -0.062  14.437  10.305  0.1709 -0.0740 -0.2467
  372loPI    C3 5939   0.102  14.684  10.573 -0.2469  0.1336 -0.1734
  372loPI   PO4 5940  -0.064  14.894   9.978  0.2753 -0.1261  0.2178
  372loPI   GL1 5941  -0.457  14.863   9.678  0.0564 -0.1680 -0.0056
  372loPI   GL2 5942  -0.808  14.780   9.608 -0.0257 -0.1955 -0.0095
  372loPI   C1A 5943  -0.277  15.105   9.347  0.0678  0.0310  0.2000
  372loPI   C2A 5944  -0.315  15.324   8.951 -0.1927  0.2525  0.0824
  372loPI   C3A 5945  -0.253  15.327   8.548 -0.0021  0.0212  0.1516
  372loPI   C4A 5946   0.002  15.263   8.066 -0.0403  0.0263 -0.0955
  372loPI   C5A 5947   0.101  14.958   7.724 -0.0759  0.1451 -0.2264
  372loPI   C6A 5948   0.091  14.776   7.329  0.0369  0.2939 -0.0459
  372loPI   C1B 5949  -0.746  14.906   9.138 -0.2172  0.0655  0.3357
  372loPI   C2B 5950  -0.553  14.924   8.738  0.0911 -0.1191 -0.2501
  372loPI   C3B 5951  -0.764  14.877   8.428  0.2743  0.0039 -0.2648
  372loPI   C4B 5952  -1.003  15.073   8.078 -0.1341  0.0318 -0.1119
  373loPI    C1 5953  11.043   3.461  10.014 -0.1162  0.0733 -0.1172
  373loPI    C2 5954  10.977   3.782  10.243  0.0166 -0.0280  0.0663
  373loPI    C3 5955  11.103   3.441  10.409 -0.0478 -0.1530 -0.1376
  373loPI   PO4 5956  10.861   3.396   9.892 -0.4109 -0.1095 -0.2349
  373loPI   GL1 5957  10.710   3.217   9.526  0.1381 -0.1624  0.2674
  373loPI   GL2 5958  10.485   3.154   9.459 -0.0968  0.0355  0.4855
  373loPI   C1A 5959  10.867   3.236   9.075 -0.3366 -0.1408 -0.0792
  373loPI   C2A 5960  10.945   3.257   8.704  0.1284  0.2181  0.0515
  373loPI   C3A 5961  11.015   3.303   8.283  0.3323  0.1985  0.1939
  373loPI   C4A 5962  11.016   3.454   7.875  0.0030 -0.1003 -0.0944
  373loPI   C5A 5963  11.060   3.816   7.657  0.0340  0.2084 -0.0413
  373loPI   C6A 5964  11.090   3.962   7.240  0.1737  0.0276  0.1565
  373loPI   C1B 5965  10.329   3.030   9.073 -0.2658 -0.0339 -0.1482
  373loPI   C2B 5966  10.416   3.050   8.686  0.2543 -0.0412  0.1581
  373loPI   C3B 5967  10.524   3.053   8.185 -0.2719  0.3492  0.1076
  373loPI   C4B 5968  10.488   3.118   7.744 -0.3927  0.1417 -0.1248
  374loPI    C1 5969   8.318   5.650   9.916 -0.0716  0.2624  0.1475
  374loPI    C2 5970   8.537   5.477  10.201  0.0939  0.3530  0.0768
  374loPI    C3 5971   8.154   5.566  10.271  0.0560  0.1230  0.1748
  374loPI   PO4 5972   8.579   5.834   9.752  0.0547  0.0091  0.0721
  374loPI   GL1 5973   8.712   5.968   9.303 -0.3203 -0.0443 -0.0037
  374loPI   GL2 5974   8.359   6.124   9.355  0.1843  0.2808  0.0594
  374loPI   C1A 5975   8.855   5.799   8.837 -0.0775 -0.1260  0.0938
  374loPI   C2A 5976   8.769   5.818   8.446  0.2007  0.1158  0.2528
  374loPI   C3A 5977   8.708   5.872   7.990 -0.3365 -0.1571 -0.1942
  374loPI   C4A 5978   8.669   6.011   7.538  0.1872  0.0280 -0.1764
  374loPI   C5A 5979   8.346   5.830   7.321 -0.0050 -0.2413 -0.1263
  374loPI   C6A 5980   7.931   5.714   7.173 -0.0340 -0.1081 -0.1518
  374loPI   C1B 5981   8.407   6.065   8.907  0.1681  0.4125 -0.1148
  374loPI   C2B 5982   8.342   6.094   8.485 -0.1127 -0.3211 -0.1643
  374loPI   C3B 5983   8.372   6.201   8.025  0.2023  0.1360  0.3405
  374loPI   C4B 5984   8.288   6.349   7.594 -0.0021 -0.0509  0.2394
  375loPI    C1 5985  15.927  17.378   9.935 -0.5933 -0.0183  0.0310
  375loPI    C2 5986  16.105  17.124  10.187 -0.0737  0.2568 -0.0464
  375loPI    C3 5987  15.753  17.287  10.284 -0.0477  0.0927  0.3432
  375loPI   PO4 5988  16.042  17.578   9.810 -0.2992 -0.2290  0.1680
  375loPI   GL1 5989  16.144  17.724   9.430  0.1145  0.0456 -0.1094
  375loPI   GL2 5990  16.475  17.580   9.516  0.0252 -0.0109 -0.0682
  375loPI   C1A 5991  16.093  17.574   9.076  0.0111 -0.1941 -0.0754
  375loPI   C2A 5992  16.224  17.537   8.647 -0.3664  0.2518  0.0906
  375loPI   C3A 5993  16.248  17.518   8.305 -0.0021  0.0972  0.1257
  375loPI   C4A 5994  16.145  17.581   7.962  0.0220 -0.0199 -0.0237
  375loPI   C5A 5995  15.863  17.706   7.697 -0.0438  0.2899  0.0484
  375loPI   C6A 5996  15.828  17.493   7.335 -0.2302 -0.2254 -0.1135
  375loPI   C1B 5997  16.595  17.839   9.197 -0.0281 -0.2589  0.3306
  375loPI   C2B 5998  16.456  17.947   8.747 -0.2502  0.1963  0.1867
  375loPI   C3B 5999  16.488  17.942   8.299  0.2719  0.0435 -0.1173
  375loPI   C4B 6000  16.898  18.284   8.130  0.1024  0.3409 -0.0182
  376loPI    C1 6001   1.530   1.943  10.164 -0.0855 -0.0661 -0.2549
  376loPI    C2 6002   1.256   2.212  10.051 -0.1142 -0.0007 -0.0334
  376loPI    C3 6003   1.606   2.334  10.203 -0.2113 -0.0870  0.2669
  376loPI   PO4 6004   1.489   1.808   9.834 -0.2241  0.0113  0.0013
  376loPI   GL1 6005   1.395   1.690   9.415  0.0904  0.0565  0.2229
  376loPI   GL2 6006   1.526   1.440   9.251  0.3013  0.0381  0.1100
  376loPI   C1A 6007   1.154   1.904   9.197  0.1395 -0.0710  0.1289
  376loPI   C2A 6008   0.911   1.853   8.913 -0.0155 -0.0898 -0.0350
  376loPI   C3A 6009   0.848   1.937   8.392 -0.0198  0.4498 -0.0599
  376loPI   C4A 6010   0.905   1.667   7.941 -0.0977 -0.2769 -0.3577
  376loPI   C5A 6011   0.908   1.620   7.578 -0.1197 -0.0514 -0.3493
  376loPI   C6A 6012   1.136   1.632   7.246 -0.0700 -0.2208 -0.1972
  376loPI   C1B 6013   1.263   1.528   8.940  0.1757 -0.1579  0.1819
  376loPI   C2B 6014   1.308   1.638   8.401 -0.0384  0.0565 -0.1408
  376loPI   C3B 6015   1.421   1.642   7.992  0.3325  0.0099  0.4225
  376loPI   C4B 6016   1.344   1.878   7.614 -0.0316  0.1043 -0.1636
  377loPI    C1 6017  17.317  14.367  10.170 -0.1841  0.0687  0.0370
  377loPI    C2 6018  17.453  14.199  10.507  0.0848 -0.2015 -0.2008
  377loPI    C3 6019  17.691  14.439  10.292 -0.1240  0.0634 -0.1415
  377loPI   PO4 6020  17.287  14.282   9.962 -0.1807  0.0360 -0.0262
  377loPI   GL1 6021  17.217  14.112   9.572 -0.0336 -0.4188 -0.2893
  377loPI   GL2 6022  17.334  14.390   9.504 -0.0999  0.3155  0.2862
  377loPI   C1A 6023  16.986  13.995   9.206 -0.4252  0.0775  0.1796
  377loPI   C2A 6024  16.817  13.929   8.860  0.1346  0.2599  0.0839
  377loPI   C3A 6025  16.813  13.914   8.400 -0.1161 -0.1877  0.3005
  377loPI   C4A 6026  16.630  13.901   8.008 -0.0007 -0.0010  0.1303
  377loPI   C5A 6027  16.837  13.880   7.633 -0.2035  0.0995  0.2622
  377loPI   C6A 6028  17.277  13.884   7.750 -0.2062  0.0619  0.0405
  377loPI   C1B 6029  17.259  14.315   8.959 -0.0433  0.0517  0.0064
  377loPI   C2B 6030  17.117  14.217   8.594  0.1494  0.1127  0.0447
  377loPI   C3B 6031  17.291  14.148   8.205 -0.1327  0.3097  0.0012
  377loPI   C4B 6032  17.183  14.394   7.790  0.1870 -0.1266 -0.3103
  378loPI    C1 6033   2.970  18.832  10.372  0.1559  0.0227 -0.2041
  378loPI    C2 6034   2.655  19.027  10.221  0.0324 -0.1402 -0.1602
  378loPI    C3 6035   3.023  19.106  10.086 -0.0429 -0.0573 -0.3198
  378loPI   PO4 6036   2.907  18.622  10.323 -0.0317 -0.1133  0.4164
  378loPI   GL1 6037   3.111  18.435   9.851 -0.0405 -0.1519  0.0479
  378loPI   GL2 6038   2.935  18.735   9.798 -0.1238  0.1696  0.0618
  378loPI   C1A 6039   3.265  18.418   9.414 -0.2528  0.2760  0.1491
  378loPI   C2A 6040   3.272  18.690   9.137  0.1004  0.1236  0.1117
  378loPI   C3A 6041   3.311  18.918   8.665  0.0228 -0.1570 -0.1241
  378loPI   C4A 6042   3.612  18.938   8.244 -0.1172 -0.4211  0.1511
  378loPI   C5A 6043   3.705  18.785   7.708 -0.0411  0.3819 -0.0899
  378loPI   C6A 6044   3.595  18.600   7.269 -0.1344  0.1981  0.1113
  378loPI   C1B 6045   2.855  18.939   9.335 -0.0121  0.2148  0.1293
  378loPI   C2B 6046   2.872  19.138   9.033  0.1527 -0.4702  0.1593
  378loPI   C3B 6047   2.847  19.147   8.473 -0.0848  0.0678 -0.0088
  378loPI   C4B 6048   2.860  19.230   8.105 -0.1285 -0.2846  0.1122
  379loPI    C1 6049   6.993  16.440  10.112  0.3803  0.1098  0.0679
  379loPI    C2 6050   7.025  16.836  10.064 -0.1210  0.1510  0.0290
  379loPI    C3 6051   6.826  16.687  10.378 -0.0197 -0.0702 -0.0097
  379loPI   PO4 6052   6.854  16.335   9.822 -0.1920 -0.2585 -0.1301
  379loPI   GL1 6053   6.879  16.529   9.493  0.1972 -0.0292  0.0566
  379loPI   GL2 6054   6.669  16.372   9.395  0.0971 -0.1229 -0.0896
  379loPI   C1A 6055   6.753  16.901   9.271  0.1043  0.0875  0.0583
  379loPI   C2A 6056   6.820  16.878   8.779  0.0611 -0.0794  0.0204
  379loPI   C3A 6057   6.788  16.831   8.344 -0.2744 -0.1192  0.2959
  379loPI   C4A 6058   6.727  16.757   7.899 -0.1844 -0.0404 -0.1103
  379loPI   C5A 6059   6.952  16.501   7.435 -0.1671 -0.1530  0.0184
  379loPI   C6A 6060   7.327  16.399   7.323  0.1375 -0.1755  0.0582
  379loPI   C1B 6061   6.989  16.446   9.040  0.1915 -0.2978 -0.3285
  379loPI   C2B 6062   6.995  16.457   8.568 -0.2911 -0.3104  0.0783
  379loPI   C3B 6063   7.106  16.424   8.165 -0.0831  0.2014  0.0592
  379loPI   C4B 6064   7.474  16.440   7.957  0.0136  0.0903 -0.1386
  380loPI    C1 6065   1.562  13.047  10.127  0.0780  0.0148  0.0953
  380loPI    C2 6066   1.901  13.249  10.194  0.0784 -0.0073  0.1605
  380loPI    C3 6067   1.871  12.866  10.306  0.1128 -0.0738 -0.0525
  380loPI   PO4 6068   1.491  13.129   9.871 -0.3049 -0.0951  0.0071
  380loPI   GL1 6069   1.295  13.445   9.513 -0.1449  0.4100 -0.0306
  380loPI   GL2 6070   1.622  13.563   9.483 -0.1569 -0.1693  0.1859
  380loPI   C1A 6071   1.071  13.506   9.191 -0.0324  0.2095  0.2490
  380loPI   C2A 6072   0.998  13.434   8.808 -0.0123  0.1418  0.2644
  380loPI   C3A 6073   1.073  13.336   8.404  0.1493 -0.1881 -0.1962
  380loPI   C4A 6074   1.134  13.356   8.047 -0.0360  0.0247  0.3314
  380loPI   C5A 6075   0.973  13.719   7.742 -0.1922  0.1767 -0.0157
  380loPI   C6A 6076   1.072  14.153   7.510 -0.1657 -0.3997  0.0526
  380loPI   C1B 6077   1.511  13.561   9.037 -0.0597 -0.0439  0.0580
  380loPI   C2B 6078   1.482  13.501   8.619  0.0169 -0.0200 -0.3023
  380loPI   C3B 6079   1.550  13.584   8.218 -0.0625 -0.2832  0.1725
  380loPI   C4B 6080   1.469  13.739   7.932  0.0202  0.1821  0.0014
  381loPI    C1 6081   4.065   1.434  10.077  0.0991  0.0375  0.1078
  381loPI    C2 6082   3.787   1.325  10.344 -0.0216  0.0820  0.0015
  381loPI    C3 6083   4.098   1.549  10.459 -0.1378  0.2039  0.0806
  381loPI   PO4 6084   4.045   1.145   9.964  0.0571 -0.0629  0.1518
  381loPI   GL1 6085   3.880   0.876   9.708 -0.4218  0.0951 -0.3434
  381loPI   GL2 6086   3.822   0.502   9.845 -0.0831 -0.1343  0.2300
  381loPI   C1A 6087   3.929   0.960   9.270  0.0886  0.0679  0.0133
  381loPI   C2A 6088   3.600   1.222   8.968 -0.1590  0.3452  0.0768
  381loPI   C3A 6089   3.649   1.250   8.596 -0.0813  0.0181  0.0054
  381loPI   C4A 6090   4.127   1.140   8.310  0.2294 -0.2369 -0.0690
  381loPI   C5A 6091   4.030   0.995   7.892  0.1245  0.1093 -0.1621
  381loPI   C6A 6092   3.910   0.815   7.499  0.2273  0.0851 -0.2341
  381loPI   C1B 6093   3.699   0.367   9.450  0.0051 -0.3629  0.1502
  381loPI   C2B 6094   3.901   0.440   9.018  0.1502  0.1386  0.0585
  381loPI   C3B 6095   4.231   0.517   8.738 -0.1312  0.1347 -0.1945
  381loPI   C4B 6096   4.275   0.613   8.280 -0.1858 -0.0699 -0.1161
  382loPI    C1 6097  14.792   3.227   9.653 -0.2831 -0.0995  0.1698
  382loPI    C2 6098  15.068   3.162   9.935  0.0591 -0.0391 -0.1440
  382loPI    C3 6099  14.702   3.287  10.039  0.1768 -0.0229  0.2705
  382loPI   PO4 6100  15.034   3.375   9.466 -0.0806 -0.0761 -0.1336
  382loPI   GL1 6101  15.005   3.791   9.289  0.0232  0.0218 -0.1862
  382loPI   GL2 6102  15.002   4.158   9.203 -0.0163 -0.2864 -0.1496
  382loPI   C1A 6103  14.993   3.663   8.851 -0.2588  0.1164 -0.1731
  382loPI   C2A 6104  14.984   3.430   8.478  0.2602  0.0533 -0.1015
  382loPI   C3A 6105  14.819   3.351   8.137 -0.0762 -0.2615  0.2179
  382loPI   C4A 6106  14.710   3.199   7.868 -0.2461  0.3318 -0.0393
  382loPI   C5A 6107  14.759   2.889   7.519 -0.0947 -0.0625  0.0547
  382loPI   C6A 6108  14.954   2.604   7.397  0.0272  0.3349 -0.3336
  382loPI   C1B 6109  14.945   4.134   8.741  0.1276 -0.2546 -0.0853
  382loPI   C2B 6110  14.685   4.210   8.513 -0.1397  0.0434 -0.0368
  382loPI   C3B 6111  14.585   4.164   8.051  0.0446  0.1851  0.3165
  382loPI   C4B 6112  14.906   4.162   7.725  0.0595 -0.2211 -0.2712
  383loPI    C1 6113  13.773  17.360  10.070 -0.0114  0.2586 -0.1880
  383loPI    C2 6114  13.469  17.419  10.324  0.0248 -0.1010 -0.0559
  383loPI    C3 6115  13.751  17.699  10.281 -0.1196  0.0718  0.1072
  383loPI   PO4 6116  13.628  17.275   9.787 -0.1720  0.1473 -0.0087
  383loPI   GL1 6117  13.685  17.239   9.278  0.0387  0.0480 -0.0083
  383loPI   GL2 6118  13.970  17.186   9.479  0.0277  0.0054 -0.0700
  383loPI   C1A 6119  13.876  17.035   8.871 -0.0058 -0.0050  0.2649
  383loPI   C2A 6120  14.114  17.051   8.538  0.1782  0.0766  0.2712
  383loPI   C3A 6121  14.430  16.881   8.222  0.1767 -0.2076 -0.2030
  383loPI   C4A 6122  14.570  16.743   7.868  0.4377 -0.5327  0.1168
  383loPI   C5A 6123  14.833  16.660   7.563 -0.1164  0.0085 -0.4841
  383loPI   C6A 6124  14.908  16.531   7.131 -0.0298  0.1558  0.3659
  383loPI   C1B 6125  14.087  17.473   9.152 -0.2566 -0.2763 -0.2292
  383loPI   C2B 6126  14.076  17.536   8.737 -0.3682 -0.2897 -0.0698
  383loPI   C3B 6127  14.093  17.740   8.337  0.3555 -0.0825 -0.3815
  383loPI   C4B 6128  14.023  17.590   7.974 -0.0054 -0.0613 -0.0436
  384loPI    C1 6129   4.095   0.603  10.281  0.1626  0.1870 -0.1540
  384loPI    C2 6130   4.429   0.740  10.454 -0.0506  0.2190  0.2445
  384loPI    C3 6131   4.088   0.945  10.488 -0.1324  0.1444 -0.0900
  384loPI   PO4 6132   4.180   0.414  10.167  0.3094 -0.0653 -0.2013
  384loPI   GL1 6133   4.132   0.056   9.809  0.2372 -0.0337  0.1086
  384loPI   GL2 6134   4.219   0.479   9.617 -0.0274 -0.0823  0.1940
  384loPI   C1A 6135   4.283  -0.063   9.408  0.2512  0.3052 -0.0399
  384loPI   C2A 6136   4.245   0.091   8.985 -0.3508 -0.0516  0.3439
  384loPI   C3A 6137   4.433   0.033   8.622  0.2519 -0.3429 -0.0365
  384loPI   C4A 6138   4.278  -0.043   8.272 -0.2576  0.0191  0.0154
  384loPI   C5A 6139   4.342  -0.233   7.858  0.0048  0.0664  0.1664
  384loPI   C6A 6140   4.138  -0.537   7.565  0.2202  0.1934  0.1384
  384loPI   C1B 6141   4.463   0.606   9.218  0.2660 -0.1121  0.0502
  384loPI   C2B 6142   4.743   0.748   8.788  0.3293  0.4619 -0.1821
  384loPI   C3B 6143   4.521   0.993   8.550 -0.1305 -0.1611  0.0572
  384loPI   C4B 6144   4.641   1.190   8.164 -0.1285  0.2006 -0.0345
  385loPI    C1 6145   3.977  16.245  10.146  0.1570  0.1222 -0.0715
  385loPI    C2 6146   4.372  16.183  10.135  0.1286 -0.1151  0.1426
  385loPI    C3 6147   4.154  16.029  10.432 -0.1287  0.0032  0.0187
  385loPI   PO4 6148   3.925  16.241   9.871  0.0466 -0.0106 -0.3415
  385loPI   GL1 6149   3.961  16.433   9.530  0.0213 -0.1040  0.0889
  385loPI   GL2 6150   3.967  16.828   9.588 -0.0656  0.2376  0.2227
  385loPI   C1A 6151   3.566  16.615   9.333  0.1730  0.3295 -0.0227
  385loPI   C2A 6152   3.466  16.460   8.904 -0.1051 -0.0490 -0.0638
  385loPI   C3A 6153   3.265  16.346   8.556  0.0454  0.0158  0.1636
  385loPI   C4A 6154   3.292  16.429   8.171 -0.0613  0.1443  0.3023
  385loPI   C5A 6155   2.966  16.684   7.839 -0.1115  0.0967 -0.0847
  385loPI   C6A 6156   2.760  16.753   7.538 -0.0943 -0.2083  0.1702
  385loPI   C1B 6157   3.935  16.878   9.154 -0.3546 -0.1765  0.2891
  385loPI   C2B 6158   3.845  16.953   8.708 -0.0991  0.0229 -0.3975
  385loPI   C3B 6159   3.872  17.126   8.332 -0.1434  0.1618  0.3575
  385loPI   C4B 6160   3.876  17.546   8.209  0.4208  0.2154 -0.0548
  386loPI    C1 6161   7.810   0.577  10.116 -0.0060 -0.1488  0.0104
  386loPI    C2 6162   7.536   0.508  10.399  0.2067  0.0981  0.2824
  386loPI    C3 6163   7.917   0.399  10.458  0.2302  0.0431  0.0394
  386loPI   PO4 6164   7.788   0.841  10.038 -0.1188 -0.1049 -0.2505
  386loPI   GL1 6165   7.824   0.893   9.563  0.2303  0.2780 -0.2213
  386loPI   GL2 6166   7.797   1.209   9.445  0.2975  0.1889  0.0908
  386loPI   C1A 6167   8.096   0.649   9.242  0.0201  0.3174  0.2598
  386loPI   C2A 6168   8.151   0.427   8.933 -0.0764  0.0668  0.4171
  386loPI   C3A 6169   8.279   0.560   8.531  0.2133 -0.3157  0.2216
  386loPI   C4A 6170   8.414   0.460   8.082  0.3215 -0.2974 -0.2989
  386loPI   C5A 6171   8.144   0.316   7.651  0.1635 -0.1744 -0.3294
  386loPI   C6A 6172   8.421   0.522   7.303 -0.1593 -0.3580 -0.2774
  386loPI   C1B 6173   7.948   1.455   9.210  0.1980 -0.2055  0.2467
  386loPI   C2B 6174   8.179   1.578   8.967 -0.1411  0.3553  0.1140
  386loPI   C3B 6175   8.182   1.847   8.825 -0.2514 -0.0280  0.0462
  386loPI   C4B 6176   8.108   2.033   8.519  0.1080  0.2102  0.0338
  387loPI    C1 6177   1.714  12.503   9.917 -0.2824 -0.4309 -0.1467
  387loPI    C2 6178   1.332  12.598   9.988 -0.1191 -0.0514  0.2709
  387loPI    C3 6179   1.551  12.423  10.274  0.0098 -0.3118  0.0173
  387loPI   PO4 6180   1.865  12.762   9.817 -0.1849 -0.1458  0.1468
  387loPI   GL1 6181   1.957  12.842   9.314  0.1804 -0.2077  0.2054
  387loPI   GL2 6182   1.809  13.217   9.212 -0.1081  0.1794 -0.2170
  387loPI   C1A 6183   2.276  12.712   8.905  0.0443 -0.2012 -0.3291
  387loPI   C2A 6184   2.242  12.912   8.482 -0.0481  0.0541 -0.1009
  387loPI   C3A 6185   2.234  12.877   8.005 -0.1004  0.0659 -0.0393
  387loPI   C4A 6186   2.341  12.774   7.512 -0.1582  0.1369 -0.1965
  387loPI   C5A 6187   2.161  12.375   7.465 -0.0619  0.0016  0.0359
  387loPI   C6A 6188   1.992  11.958   7.570 -0.2074 -0.2703 -0.2294
  387loPI   C1B 6189   1.834  13.133   8.773  0.0122  0.1059 -0.1935
  387loPI   C2B 6190   1.826  13.220   8.307  0.0148  0.0588  0.4021
  387loPI   C3B 6191   1.730  13.224   7.853  0.0019  0.2689 -0.4792
  387loPI   C4B 6192   2.103  13.181   7.588 -0.3062 -0.0670 -0.0473
  388loPI    C1 6193   0.455   0.997  10.120  0.1370 -0.1435 -0.1717
  388loPI    C2 6194   0.610   0.698  10.335  0.1263 -0.1362 -0.1538
  388loPI    C3 6195   0.660   1.076  10.454 -0.2366 -0.1522  0.0660
  388loPI   PO4 6196   0.409   0.917   9.858  0.2527 -0.1488  0.2604
  388loPI   GL1 6197   0.344   1.157   9.546 -0.0256  0.1151  0.0700
  388loPI   GL2 6198   0.585   1.165   9.325 -0.1181 -0.2900 -0.1145
  388loPI   C1A 6199   0.051   1.448   9.364  0.1335 -0.0244 -0.0678
  388loPI   C2A 6200  -0.002   1.715   8.996  0.3906  0.1998  0.2332
  388loPI   C3A 6201  -0.110   1.692   8.634 -0.0728 -0.1300 -0.1591
  388loPI   C4A 6202   0.136   2.002   8.463  0.1292 -0.1409  0.2403
  388loPI   C5A 6203   0.155   2.090   8.043 -0.1543 -0.2186  0.4524
  388loPI   C6A 6204  -0.157   2.507   7.823  0.3900 -0.0805  0.2409
  388loPI   C1B 6205   0.227   1.282   8.917  0.1059  0.0801 -0.2071
  388loPI   C2B 6206   0.164   1.299   8.471 -0.0666 -0.0680  0.3565
  388loPI   C3B 6207   0.063   1.426   7.941  0.2117 -0.2647  0.2361
  388loPI   C4B 6208  -0.186   1.612   7.661 -0.3844 -0.1392 -0.0037
  389loPI    C1 6209   7.321  18.742  10.051  0.2012  0.0548 -0.3547
  389loPI    C2 6210   7.402  18.365  10.154  0.0989  0.1240 -0.0087
  389loPI    C3 6211   7.517  18.666  10.391  0.3979  0.3290 -0.4033
  389loPI   PO4 6212   7.322  18.679   9.757 -0.0784 -0.0925  0.1467
  389loPI   GL1 6213   7.424  18.973   9.580 -0.0615 -0.3109  0.1423
  389loPI   GL2 6214   7.690  18.970   9.524  0.0016  0.1327 -0.1150
  389loPI   C1A 6215   7.291  19.122   9.253  0.0546  0.3333  0.1028
  389loPI   C2A 6216   7.553  19.061   8.856 -0.2451 -0.3220 -0.1285
  389loPI   C3A 6217   7.770  19.114   8.494  0.0235  0.0201  0.0284
  389loPI   C4A 6218   7.750  19.322   8.121  0.2485 -0.3302  0.0897
  389loPI   C5A 6219   7.551  19.711   7.849  0.4063 -0.0706 -0.1427
  389loPI   C6A 6220   7.405  20.062   7.615 -0.1468 -0.0192  0.2028
  389loPI   C1B 6221   7.959  18.986   9.155  0.3324  0.2149  0.0660
  389loPI   C2B 6222   8.220  18.953   8.790 -0.1634  0.0758 -0.1509
  389loPI   C3B 6223   8.286  18.937   8.271 -0.0428  0.2023 -0.0697
  389loPI   C4B 6224   8.644  19.012   7.930  0.3170  0.0339  0.2711
  390loPI    C1 6225   9.549   0.046   9.910  0.0659 -0.0897 -0.0573
  390loPI    C2 6226   9.592   0.002  10.306  0.2182 -0.0644 -0.0705
  390loPI    C3 6227   9.312  -0.207  10.110  0.0804 -0.0081  0.0645
  390loPI   PO4 6228   9.855   0.114   9.847  0.2639 -0.2670  0.2147
  390loPI   GL1 6229  10.228   0.192   9.504 -0.0176 -0.0563  0.0575
  390loPI   GL2 6230  10.564   0.091   9.593 -0.2379  0.0084  0.1156
  390loPI   C1A 6231  10.172   0.231   9.020  0.1198 -0.2585 -0.0555
  390loPI   C2A 6232  10.340   0.325   8.557 -0.0554  0.1596 -0.0147
  390loPI   C3A 6233  10.515   0.326   8.204  0.1166 -0.0329 -0.0227
  390loPI   C4A 6234  10.448   0.389   7.846 -0.0818 -0.0138  0.0249
  390loPI   C5A 6235  10.307   0.141   7.463 -0.2616 -0.0337 -0.3640
  390loPI   C6A 6236  10.358   0.244   7.106 -0.1745  0.1442  0.0129
  390loPI   C1B 6237  10.631   0.039   9.107  0.0654  0.2551 -0.3061
  390loPI   C2B 6238  10.754   0.092   8.621  0.2896 -0.0290 -0.3777
  390loPI   C3B 6239  10.951   0.125   8.385 -0.2830  0.1440  0.1118
  390loPI   C4B 6240  10.881   0.087   7.920  0.2021 -0.2402  0.2370
  391loPI    C1 6241  14.610   7.687   9.899 -0.0733 -0.0826 -0.0045
  391loPI    C2 6242  14.840   7.557  10.199 -0.0688 -0.1968 -0.0572
  391loPI    C3 6243  14.755   7.946  10.167 -0.1293 -0.1935  0.1339
  391loPI   PO4 6244  14.651   7.569   9.690 -0.0164  0.0646 -0.1884
  391loPI   GL1 6245  14.811   7.700   9.379  0.2743  0.1569  0.1445
  391loPI   GL2 6246  14.801   7.457   9.220  0.2541 -0.1819 -0.1224
  391loPI   C1A 6247  14.600   7.897   9.056 -0.3053  0.0852  0.2463
  391loPI   C2A 6248  14.511   7.851   8.583  0.3044  0.2534  0.1220
  391loPI   C3A 6249  14.388   7.749   8.223  0.0360  0.0683  0.4788
  391loPI   C4A 6250  14.152   7.650   7.887 -0.1192  0.0360 -0.5061
  391loPI   C5A 6251  13.838   7.613   7.553 -0.2620  0.0611  0.1018
  391loPI   C6A 6252  13.930   7.406   7.235  0.0572 -0.3199 -0.0795
  391loPI   C1B 6253  14.660   7.414   8.850 -0.2256 -0.2505 -0.0566
  391loPI   C2B 6254  14.709   7.413   8.405  0.2137  0.0050 -0.0530
  391loPI   C3B 6255  14.696   7.440   7.887  0.1418 -0.0804 -0.1390
  391loPI   C4B 6256  14.827   7.554   7.466 -0.1198 -0.1192 -0.1069
  392loPI    C1 6257  12.424  11.911  10.018  0.0865  0.1340 -0.0047
  392loPI    C2 6258  12.083  11.892  10.227  0.1122 -0.3966  0.0015
  392loPI    C3 6259  12.433  11.920  10.418  0.0895 -0.0797  0.0012
  392loPI   PO4 6260  12.361  11.764   9.796  0.1165 -0.0476  0.1254
  392loPI   GL1 6261  12.082  11.668   9.453  0.0698 -0.0226 -0.0949
  392loPI   GL2 6262  12.109  11.991   9.459  0.1899  0.0395  0.1020
  392loPI   C1A 6263  11.977  11.445   9.087 -0.0566 -0.0751 -0.0319
  392loPI   C2A 6264  12.165  11.381   8.694 -0.3145 -0.3487  0.3558
  392loPI   C3A 6265  12.283  11.139   8.434  0.0032  0.1436 -0.2861
  392loPI   C4A 6266  12.257  10.928   8.042 -0.1116 -0.2376 -0.1826
  392loPI   C5A 6267  12.106  10.689   7.758  0.1178 -0.2011  0.0136
  392loPI   C6A 6268  11.832  10.726   7.464  0.1073 -0.2437 -0.3239
  392loPI   C1B 6269  11.947  12.142   9.072  0.1000  0.0309  0.1268
  392loPI   C2B 6270  11.692  12.052   8.667 -0.3288 -0.1040  0.2163
  392loPI   C3B 6271  11.578  11.935   8.313 -0.1203  0.2289 -0.1506
  392loPI   C4B 6272  11.473  11.473   8.132 -0.1271  0.1339  0.1312
  393loPI    C1 6273   9.623   0.604  10.251 -0.1756 -0.0111  0.1916
  393loPI    C2 6274   9.895   0.375  10.435  0.1007  0.1235 -0.0428
  393loPI    C3 6275   9.984   0.753  10.338 -0.1745  0.1718 -0.1142
  393loPI   PO4 6276   9.490   0.514  10.023 -0.0589  0.2314  0.0619
  393loPI   GL1 6277   9.292   0.444   9.609 -0.2506 -0.0573 -0.0945
  393loPI   GL2 6278   9.693   0.345   9.459 -0.0872 -0.0753 -0.0857
  393loPI   C1A 6279   9.322   0.535   9.181 -0.0002  0.0643 -0.0013
  393loPI   C2A 6280   9.245   0.470   8.723  0.0086  0.1059  0.1812
  393loPI   C3A 6281   9.343   0.222   8.372 -0.2685  0.0511  0.1613
  393loPI   C4A 6282   9.489   0.162   7.985 -0.1346  0.0548 -0.2222
  393loPI   C5A 6283   9.303   0.014   7.634  0.1304 -0.1785  0.0311
  393loPI   C6A 6284   9.015  -0.218   7.518  0.0199 -0.1221  0.0779
  393loPI   C1B 6285   9.639   0.099   9.100 -0.3334 -0.1930  0.0547
  393loPI   C2B 6286   9.805   0.084   8.655  0.2066 -0.0291 -0.0198
  393loPI   C3B 6287   9.934   0.077   8.205  0.0239  0.1757 -0.0326
  393loPI   C4B 6288   9.995   0.080   7.862  0.1117 -0.3262  0.1371
  394loPI    C1 6289   7.161   6.113  10.014 -0.1823  0.1217 -0.2813
  394loPI    C2 6290   7.314   6.039  10.376 -0.2225 -0.0926 -0.3066
  394loPI    C3 6291   7.005   6.290  10.337  0.0326  0.2392 -0.2400
  394loPI   PO4 6292   7.329   6.110   9.901 -0.2535  0.2311 -0.1755
  394loPI   GL1 6293   7.419   6.085   9.528 -0.2417  0.3624  0.3448
  394loPI   GL2 6294   7.616   5.759   9.434 -0.2572 -0.2455  0.1834
  394loPI   C1A 6295   7.565   6.195   9.068  0.3702 -0.0095 -0.1959
  394loPI   C2A 6296   7.468   6.238   8.540  0.1009  0.3503 -0.1165
  394loPI   C3A 6297   7.448   6.183   8.120 -0.1872  0.1987 -0.0489
  394loPI   C4A 6298   7.288   6.383   7.753 -0.0113 -0.1039 -0.1067
  394loPI   C5A 6299   7.228   6.801   7.552 -0.0625 -0.0293 -0.0794
  394loPI   C6A 6300   6.891   6.955   7.239  0.0130 -0.5550  0.3253
  394loPI   C1B 6301   7.488   5.701   9.027  0.1369  0.4406  0.1395
  394loPI   C2B 6302   7.168   5.542   8.703 -0.0627  0.2895 -0.2296
  394loPI   C3B 6303   6.957   5.111   8.664 -0.0943 -0.1012  0.0849
  394loPI   C4B 6304   6.712   4.958   8.341 -0.2927 -0.0082 -0.0866
  395loPI    C1 6305   9.318   9.905  10.090 -0.1163 -0.0308 -0.1013
  395loPI    C2 6306   9.579   9.706  10.319 -0.0002  0.1414 -0.0823
  395loPI    C3 6307   9.187   9.673  10.389  0.0057 -0.2383 -0.2068
  395loPI   PO4 6308   9.417   9.897   9.891  0.3111  0.0160  0.0340
  395loPI   GL1 6309   9.280  10.133   9.453  0.1047 -0.2246  0.2831
  395loPI   GL2 6310   9.234  10.538   9.439  0.2406 -0.0895 -0.5024
  395loPI   C1A 6311   9.183  10.024   9.006 -0.1917 -0.1346  0.0568
  395loPI   C2A 6312   9.163  10.173   8.624  0.0021  0.0556 -0.0192
  395loPI   C3A 6313   9.445  10.157   8.278 -0.1712 -0.0356 -0.0671
  395loPI   C4A 6314   9.642  10.374   7.914 -0.0387 -0.0872  0.2704
  395loPI   C5A 6315   9.570  10.552   7.460  0.0942  0.0304 -0.1492
  395loPI   C6A 6316   9.941  10.549   7.132  0.1012  0.1029  0.1044
  395loPI   C1B 6317   9.260  10.655   9.065 -0.1851  0.2032  0.1185
  395loPI   C2B 6318   9.137  10.748   8.688 -0.0394  0.1113 -0.0874
  395loPI   C3B 6319   9.319  10.632   8.285 -0.0586  0.0189 -0.1088
  395loPI   C4B 6320   9.189  10.641   7.871 -0.1213 -0.1642  0.0330
  396loPI    C1 6321  16.951   0.867  10.443 -0.0337  0.0285 -0.1922
  396loPI    C2 6322  16.772   1.218  10.509 -0.0538 -0.0142 -0.0154
  396loPI    C3 6323  16.554   0.898  10.407 -0.0731 -0.0517  0.1409
  396loPI   PO4 6324  17.114   0.896  10.167 -0.2876 -0.1422 -0.0427
  396loPI   GL1 6325  17.252   1.042   9.751 -0.0040  0.1409 -0.0999
  396loPI   GL2 6326  16.977   1.192   9.597  0.3547  0.2637  0.0478
  396loPI   C1A 6327  17.543   0.855   9.394  0.3062  0.2238  0.1015
  396loPI   C2A 6328  17.735   0.840   9.063 -0.0124  0.5412 -0.1661
  396loPI   C3A 6329  17.890   0.644   8.594 -0.0607  0.4982 -0.1551
  396loPI   C4A 6330  17.870   0.765   8.330  0.0151  0.0715  0.2671
  396loPI   C5A 6331  17.632   0.691   7.985  0.0852  0.0787 -0.1735
  396loPI   C6A 6332  17.180   0.473   7.989 -0.0873  0.0086  0.1186
  396loPI   C1B 6333  17.062   0.933   9.315  0.0640  0.0022 -0.5497
  396loPI   C2B 6334  16.969   0.801   8.912 -0.2043 -0.1446 -0.0241
  396loPI   C3B 6335  16.831   0.688   8.528 -0.1093 -0.3400 -0.1872
  396loPI   C4B 6336  16.782   0.709   8.124 -0.2036  0.2088  0.0240
  397loPI    C1 6337   5.304   8.710  10.339  0.0191 -0.0057  0.1170
  397loPI    C2 6338   5.603   8.454  10.269 -0.0210 -0.0472  0.0973
  397loPI    C3 6339   5.451   8.488  10.638  0.0194 -0.0137  0.1109
  397loPI   PO4 6340   5.347   8.932  10.203 -0.0602  0.2478  0.2198
  397loPI   GL1 6341   5.416   8.876   9.789 -0.0953  0.3174 -0.1959
  397loPI   GL2 6342   5.097   8.616   9.674 -0.2760 -0.2780  0.1078
  397loPI   C1A 6343   5.462   8.927   9.362 -0.0697 -0.3491 -0.4049
  397loPI   C2A 6344   5.368   8.975   8.973  0.0309 -0.4671  0.2151
  397loPI   C3A 6345   5.251   8.985   8.552 -0.3310  0.1426  0.1353
  397loPI   C4A 6346   5.201   9.217   8.257 -0.0147  0.2906  0.1291
  397loPI   C5A 6347   5.528   9.330   8.076  0.0942 -0.0198 -0.2102
  397loPI   C6A 6348   5.825   9.671   8.018  0.2064  0.2877 -0.1468
  397loPI   C1B 6349   5.145   8.546   9.271  0.1541 -0.2542  0.0542
  397loPI   C2B 6350   5.013   8.489   8.708  0.4713 -0.2458 -0.0832
  397loPI   C3B 6351   4.928   8.699   8.274  0.6109 -0.0432  0.0631
  397loPI   C4B 6352   5.295   8.800   7.933 -0.3100 -0.1686 -0.0554
  398loPI    C1 6353   4.558  10.937  10.574  0.0953  0.0695 -0.1432
  398loPI    C2 6354   4.951  10.963  10.646  0.0814  0.3113 -0.1478
  398loPI    C3 6355   4.776  10.605  10.621  0.2394  0.2069  0.1928
  398loPI   PO4 6356   4.549  11.065  10.318  0.0984  0.1068  0.3247
  398loPI   GL1 6357   4.577  10.980   9.923 -0.1326 -0.1090  0.2075
  398loPI   GL2 6358   4.379  11.200   9.764  0.1780 -0.0447 -0.1109
  398loPI   C1A 6359   4.492  10.855   9.477 -0.0215  0.0872 -0.2149
  398loPI   C2A 6360   4.519  10.885   9.046  0.2677  0.3597  0.2221
  398loPI   C3A 6361   4.409  11.073   8.601  0.1292 -0.2103 -0.1073
  398loPI   C4A 6362   4.578  11.058   8.167 -0.0611  0.2162 -0.2389
  398loPI   C5A 6363   5.012  10.800   7.976 -0.0513 -0.1333  0.1289
  398loPI   C6A 6364   5.214  10.980   7.708 -0.1736 -0.1223 -0.1388
  398loPI   C1B 6365   4.387  11.372   9.435 -0.1554 -0.1524 -0.1818
  398loPI   C2B 6366   4.624  11.443   8.935  0.3408 -0.2585 -0.0076
  398loPI   C3B 6367   4.895  11.343   8.556 -0.0719  0.1520  0.0548
  398loPI   C4B 6368   5.019  11.411   8.207  0.1096  0.1421 -0.1066
  399loPI    C1 6369   9.007  14.807   9.872 -0.1617  0.0277 -0.2557
  399loPI    C2 6370   8.876  15.043  10.167 -0.2946  0.1236 -0.3901
  399loPI    C3 6371   8.655  14.732  10.047 -0.1090 -0.0861 -0.1975
  399loPI   PO4 6372   9.024  14.981   9.660 -0.2018  0.0754 -0.0859
  399loPI   GL1 6373   8.859  15.173   9.264 -0.0567 -0.0032 -0.0616
  399loPI   GL2 6374   8.598  15.343   9.230  0.2253  0.0368 -0.3447
  399loPI   C1A 6375   9.145  14.960   8.972  0.0059  0.1341 -0.1361
  399loPI   C2A 6376   9.335  14.785   8.655  0.1814  0.2108 -0.3721
  399loPI   C3A 6377   9.472  14.610   8.351  0.0808 -0.0774  0.2476
  399loPI   C4A 6378   9.828  14.578   8.064 -0.2623  0.0819  0.0323
  399loPI   C5A 6379   9.852  14.699   7.597  0.0924 -0.2658  0.3382
  399loPI   C6A 6380   9.675  14.351   7.204 -0.3346  0.1390  0.1192
  399loPI   C1B 6381   8.801  15.311   8.792  0.3842 -0.2869 -0.0156
  399loPI   C2B 6382   9.011  15.313   8.406  0.1350 -0.0562  0.1967
  399loPI   C3B 6383   9.109  15.394   8.026  0.1157  0.0221  0.2112
  399loPI   C4B 6384   9.202  15.193   7.658  0.0841  0.4786  0.1515
  400loPI    C1 6385  13.449   9.124   9.780  0.0416  0.0800  0.1632
  400loPI    C2 6386  13.125   9.259   9.971  0.0437  0.2207  0.0686
  400loPI    C3 6387  13.482   9.423  10.044  0.0592  0.2110  0.0138
  400loPI   PO4 6388  13.311   9.131   9.501 -0.0777 -0.0991 -0.1567
  400loPI   GL1 6389  13.205   8.935   9.143 -0.3919 -0.0318  0.2961
  400loPI   GL2 6390  12.891   9.043   8.970 -0.0844  0.0779 -0.2694
  400loPI   C1A 6391  13.537   8.848   8.842 -0.2051  0.1697 -0.0128
  400loPI   C2A 6392  13.765   8.833   8.457  0.2490  0.0298 -0.1801
  400loPI   C3A 6393  14.129   8.693   8.240  0.1905  0.0567  0.0897
  400loPI   C4A 6394  14.298   8.968   7.891  0.0883  0.1271  0.1351
  400loPI   C5A 6395  14.511   9.320   7.650 -0.2915  0.1404  0.0443
  400loPI   C6A 6396  14.430   9.666   7.907 -0.0064 -0.1903 -0.0222
  400loPI   C1B 6397  12.820   9.013   8.540 -0.0435 -0.1095  0.0276
  400loPI   C2B 6398  12.775   8.989   8.084  0.0896 -0.2121  0.0573
  400loPI   C3B 6399  12.928   8.885   7.602  0.1361 -0.0830 -0.1582
  400loPI   C4B 6400  13.212   9.170   7.362 -0.2307  0.2238  0.0988
  401loPI    C1 6401   1.818   5.249  10.352  0.0535 -0.0819  0.2083
  401loPI    C2 6402   1.429   5.335  10.391  0.0133 -0.0734 -0.1732
  401loPI    C3 6403   1.574   4.991  10.535 -0.1366 -0.0821 -0.0406
  401loPI   PO4 6404   1.844   5.282  10.066 -0.2221 -0.0086  0.2353
  401loPI   GL1 6405   1.670   5.507   9.604 -0.1929  0.0913  0.1288
  401loPI   GL2 6406   1.602   5.130   9.618 -0.0893  0.1202 -0.0510
  401loPI   C1A 6407   1.889   5.457   9.273 -0.0952 -0.5004 -0.0710
  401loPI   C2A 6408   1.799   5.295   8.870 -0.3861  0.2500  0.2498
  401loPI   C3A 6409   1.718   5.142   8.438  0.0760 -0.0726  0.3675
  401loPI   C4A 6410   1.347   4.920   8.198  0.2031  0.1647 -0.3288
  401loPI   C5A 6411   1.144   5.000   7.832  0.2732 -0.2042  0.0382
  401loPI   C6A 6412   0.637   5.234   7.679 -0.2107 -0.0036 -0.0879
  401loPI   C1B 6413   1.725   4.862   9.283  0.3324  0.0755  0.1303
  401loPI   C2B 6414   1.699   4.660   8.875 -0.1794 -0.4959 -0.1170
  401loPI   C3B 6415   1.895   4.287   8.626 -0.1314 -0.3079  0.1895
  401loPI   C4B 6416   1.998   3.942   8.494 -0.2465  0.2812  0.0146
  402loPI    C1 6417  10.570  12.938   9.836 -0.2061 -0.1455 -0.4117
  402loPI    C2 6418  10.409  12.575   9.886  0.0591 -0.1896  0.2184
  402loPI    C3 6419  10.243  12.893  10.063  0.0997 -0.0773  0.0566
  402loPI   PO4 6420  10.607  12.974   9.572 -0.2308  0.0260  0.2660
  402loPI   GL1 6421  10.570  12.574   9.290 -0.0228  0.3429 -0.1798
  402loPI   GL2 6422  10.404  12.350   9.428  0.1488 -0.0709  0.1401
  402loPI   C1A 6423  10.414  12.462   8.916  0.2502 -0.3574 -0.0484
  402loPI   C2A 6424  10.489  12.308   8.543 -0.4330 -0.2595 -0.4576
  402loPI   C3A 6425  10.656  12.005   8.248  0.2993  0.1049 -0.0452
  402loPI   C4A 6426  10.743  12.105   7.929 -0.1654  0.0977 -0.1930
  402loPI   C5A 6427  10.889  11.989   7.472  0.1159  0.1616  0.0022
  402loPI   C6A 6428  10.817  11.776   7.116  0.2019 -0.1322 -0.0430
  402loPI   C1B 6429  10.601  12.068   9.152 -0.1115  0.4491  0.0560
  402loPI   C2B 6430  10.623  11.817   8.752 -0.4434 -0.0531  0.2174
  402loPI   C3B 6431  10.733  11.418   8.508  0.0389 -0.1848  0.0720
  402loPI   C4B 6432  10.742  11.036   8.265 -0.0289  0.0156  0.2345
  403loPI    C1 6433  17.930   6.152  10.205  0.0831 -0.1226  0.1303
  403loPI    C2 6434  17.598   5.985  10.353 -0.0779  0.2629  0.2145
  403loPI    C3 6435  17.930   6.001  10.576 -0.0683  0.0805  0.2148
  403loPI   PO4 6436  17.918   6.161   9.892  0.0199 -0.0834 -0.1654
  403loPI   GL1 6437  17.579   6.238   9.580 -0.2095  0.0172  0.1503
  403loPI   GL2 6438  17.650   6.028   9.392  0.3345 -0.0984  0.1508
  403loPI   C1A 6439  17.268   6.327   9.176 -0.0972  0.1426  0.2875
  403loPI   C2A 6440  17.244   6.531   8.809 -0.0392  0.1884  0.2206
  403loPI   C3A 6441  17.245   6.521   8.415 -0.1408  0.1551 -0.0401
  403loPI   C4A 6442  17.391   6.674   7.922  0.1858  0.0965 -0.1104
  403loPI   C5A 6443  17.382   6.973   7.586 -0.0805 -0.1333 -0.1688
  403loPI   C6A 6444  17.174   7.039   7.213 -0.3293 -0.0415  0.1655
  403loPI   C1B 6445  17.771   6.115   9.070 -0.2358  0.0645 -0.1113
  403loPI   C2B 6446  17.559   6.066   8.652  0.0494  0.2921  0.2139
  403loPI   C3B 6447  17.531   6.084   8.281 -0.0235 -0.0779 -0.0393
  403loPI   C4B 6448  17.583   6.117   7.767  0.2830 -0.3239 -0.0334
  404loPI    C1 6449   8.566   8.181  10.248 -0.0435 -0.0859 -0.1998
  404loPI    C2 6450   8.513   7.785  10.266  0.0512 -0.0835  0.2370
  404loPI    C3 6451   8.196   8.029  10.257 -0.0073 -0.1616  0.1710
  404loPI   PO4 6452   8.883   8.197  10.017  0.2164 -0.0115 -0.0707
  404loPI   GL1 6453   9.013   8.571   9.673  0.0907  0.0638 -0.3167
  404loPI   GL2 6454   9.332   8.638   9.394  0.1847  0.2090  0.3912
  404loPI   C1A 6455   8.742   8.736   9.459  0.0962  0.3380 -0.0869
  404loPI   C2A 6456   8.494   9.073   9.229 -0.1806  0.0487  0.1649
  404loPI   C3A 6457   8.289   9.064   8.821  0.1555 -0.0174  0.0912
  404loPI   C4A 6458   8.224   8.782   8.488 -0.1320  0.2699  0.1531
  404loPI   C5A 6459   8.478   8.603   8.124  0.1752 -0.3308  0.1208
  404loPI   C6A 6460   8.351   8.730   7.728 -0.0261 -0.1161 -0.1860
  404loPI   C1B 6461   9.484   8.439   9.098  0.5190  0.0906 -0.1075
  404loPI   C2B 6462   9.502   8.612   8.733  0.0522 -0.2437 -0.1505
  404loPI   C3B 6463   9.657   8.648   8.297 -0.2023 -0.2254 -0.0788
  404loPI   C4B 6464   9.723   8.864   7.887 -0.1964  0.1303 -0.3215
  405loPI    C1 6465  15.106   9.261  10.007  0.0994  0.0758  0.0134
  405loPI    C2 6466  14.826   9.542  10.062 -0.0427 -0.0865  0.1333
  405loPI    C3 6467  14.739   9.210   9.856  0.0550 -0.1489  0.1915
  405loPI   PO4 6468  15.426   9.312   9.820 -0.2738  0.0943 -0.0193
  405loPI   GL1 6469  15.611   9.343   9.394  0.0223  0.1834  0.1854
  405loPI   GL2 6470  15.642   9.615   9.335 -0.0248  0.2149  0.1000
  405loPI   C1A 6471  15.777   9.134   8.997 -0.2525  0.1546  0.1351
  405loPI   C2A 6472  15.719   8.771   8.744  0.2305 -0.0119 -0.0182
  405loPI   C3A 6473  15.637   8.731   8.220  0.0765  0.2008 -0.0136
  405loPI   C4A 6474  15.779   8.840   7.855 -0.0449 -0.0501 -0.3282
  405loPI   C5A 6475  15.858   8.749   7.415 -0.3447  0.0934 -0.1654
  405loPI   C6A 6476  16.183   8.656   7.074  0.3800 -0.1374 -0.2239
  405loPI   C1B 6477  15.436   9.630   9.029  0.2797  0.0636  0.1204
  405loPI   C2B 6478  14.991   9.694   8.928  0.2311  0.0217  0.1099
  405loPI   C3B 6479  14.730   9.834   8.650  0.0864  0.5787  0.0873
  405loPI   C4B 6480  14.464  10.137   8.593  0.2078 -0.1668  0.0815
  406loPI    C1 6481  18.738   5.522  10.351 -0.1217  0.1239  0.0247
  406loPI    C2 6482  18.768   5.711  10.702  0.0277 -0.0221  0.0913
  406loPI    C3 6483  18.946   5.356  10.649  0.1000  0.0507 -0.1678
  406loPI   PO4 6484  18.525   5.499  10.274  0.0163 -0.4691  0.1622
  406loPI   GL1 6485  18.520   5.706   9.887  0.1885  0.1858 -0.3016
  406loPI   GL2 6486  18.302   5.885   9.632  0.0060 -0.0102  0.3180
  406loPI   C1A 6487  18.723   5.541   9.587 -0.0724 -0.0806 -0.1077
  406loPI   C2A 6488  18.911   5.667   9.186 -0.3966  0.1348 -0.4208
  406loPI   C3A 6489  19.095   5.870   8.865 -0.1306 -0.0634  0.0441
  406loPI   C4A 6490  19.124   5.864   8.392 -0.0781 -0.0391  0.0969
  406loPI   C5A 6491  19.208   6.168   8.061 -0.1958  0.3193  0.0570
  406loPI   C6A 6492  19.107   6.334   7.741  0.1376  0.2177 -0.0567
  406loPI   C1B 6493  18.080   5.816   9.289  0.0598 -0.2778  0.2894
  406loPI   C2B 6494  18.155   6.013   8.817 -0.0616  0.0519 -0.0764
  406loPI   C3B 6495  18.021   6.026   8.438 -0.1320  0.2080  0.0011
  406loPI   C4B 6496  18.283   6.091   7.992 -0.1525  0.0670  0.0175
  407loPI    C1 6497  11.420   4.055  10.086 -0.1343 -0.1506  0.0279
  407loPI    C2 6498  11.602   3.892  10.403  0.0051 -0.0741 -0.0119
  407loPI    C3 6499  11.307   4.157  10.456  0.0087 -0.0832  0.0534
  407loPI   PO4 6500  11.376   3.942   9.930 -0.1275 -0.4687  0.0989
  407loPI   GL1 6501  11.496   3.924   9.485 -0.0727 -0.1575 -0.0061
  407loPI   GL2 6502  11.327   4.102   9.429 -0.3051  0.3203  0.0575
  407loPI   C1A 6503  11.668   3.815   9.273  0.1453 -0.1782 -0.0214
  407loPI   C2A 6504  11.764   3.786   8.891  0.4041  0.1924  0.0993
  407loPI   C3A 6505  11.898   3.819   8.432  0.1114  0.0398  0.2880
  407loPI   C4A 6506  11.931   3.770   8.001  0.0670 -0.0003  0.1788
  407loPI   C5A 6507  11.916   3.692   7.533 -0.3984  0.2376 -0.1908
  407loPI   C6A 6508  11.725   3.839   7.134 -0.1655  0.3098  0.1478
  407loPI   C1B 6509  11.380   4.072   8.973 -0.0165  0.0355  0.0896
  407loPI   C2B 6510  11.426   3.970   8.524  0.0341  0.0723  0.0607
  407loPI   C3B 6511  11.494   4.111   8.073 -0.0680 -0.0368  0.2118
  407loPI   C4B 6512  11.463   4.103   7.642  0.1117 -0.0720  0.0286
  408loPI    C1 6513   4.967  16.670   9.877  0.1459  0.1010  0.0626
  408loPI    C2 6514   4.738  16.549  10.182  0.0257  0.0578 -0.0439
  408loPI    C3 6515   5.129  16.466  10.181 -0.0850 -0.5047 -0.2046
  408loPI   PO4 6516   4.880  16.921   9.828 -0.2503  0.0302 -0.0930
  408loPI   GL1 6517   4.933  17.198   9.586 -0.0408  0.2569  0.1045
  408loPI   GL2 6518   4.866  16.885   9.355 -0.0904 -0.2222  0.1640
  408loPI   C1A 6519   4.768  17.307   9.159 -0.1817 -0.0219 -0.0020
  408loPI   C2A 6520   4.771  17.155   8.747 -0.2883 -0.2263 -0.0192
  408loPI   C3A 6521   4.847  16.870   8.534 -0.2866  0.0097 -0.0025
  408loPI   C4A 6522   4.729  16.832   8.102  0.4492 -0.1399  0.0235
  408loPI   C5A 6523   4.636  17.068   7.766 -0.1264  0.0123  0.5150
  408loPI   C6A 6524   4.640  17.417   7.548  0.0238  0.0144  0.0312
  408loPI   C1B 6525   5.186  17.034   8.968  0.0824 -0.2660 -0.0539
  408loPI   C2B 6526   5.359  17.081   8.537 -0.1091  0.1697  0.1703
  408loPI   C3B 6527   5.356  17.109   8.100 -0.1539  0.1303  0.3209
  408loPI   C4B 6528   5.096  17.312   7.762 -0.1350 -0.0171 -0.1092
  409loPI    C1 6529  13.636  11.808  10.027 -0.2173 -0.2203  0.0342
  409loPI    C2 6530  13.391  12.081  10.187  0.0334 -0.0276  0.0951
  409loPI    C3 6531  13.544  11.790  10.415 -0.1882 -0.1879  0.0427
  409loPI   PO4 6532  13.566  11.762   9.802 -0.0674  0.3363  0.0280
  409loPI   GL1 6533  13.645  11.710   9.430  0.2226  0.2440 -0.1174
  409loPI   GL2 6534  13.498  11.728   9.177 -0.3345 -0.2541 -0.1229
  409loPI   C1A 6535  13.916  11.487   9.134  0.0815  0.2167 -0.1445
  409loPI   C2A 6536  14.079  11.533   8.724 -0.1019 -0.1925 -0.0106
  409loPI   C3A 6537  14.071  11.524   8.297  0.1700 -0.4845  0.1658
  409loPI   C4A 6538  14.013  11.417   7.808  0.0229  0.1584  0.1131
  409loPI   C5A 6539  13.906  11.325   7.465  0.0225 -0.2085 -0.2200
  409loPI   C6A 6540  13.815  11.013   7.259 -0.1042 -0.1990  0.0384
  409loPI   C1B 6541  13.618  11.999   8.832  0.0307  0.1366  0.0594
  409loPI   C2B 6542  13.684  12.291   8.458 -0.2278 -0.0649  0.1571
  409loPI   C3B 6543  13.955  12.509   8.180 -0.0092  0.0797  0.0882
  409loPI   C4B 6544  13.680  12.548   7.739  0.0428  0.0049 -0.0549
  410loPI    C1 6545   5.580   2.807  10.258  0.2622  0.1709  0.1087
  410loPI    C2 6546   5.666   2.498  10.497  0.1733 -0.1889 -0.3121
  410loPI    C3 6547   5.370   2.749  10.594  0.3128 -0.1717  0.0850
  410loPI   PO4 6548   5.527   2.729   9.940  0.1801 -0.2653 -0.2618
  410loPI   GL1 6549   5.404   2.445   9.651  0.0798 -0.0551  0.2624
  410loPI   GL2 6550   5.636   2.386   9.516  0.0269  0.0940 -0.2437
  410loPI   C1A 6551   5.256   2.432   9.185 -0.2590  0.1179  0.3197
  410loPI   C2A 6552   5.360   2.193   8.739  0.2200  0.0505  0.1951
  410loPI   C3A 6553   5.063   2.059   8.345 -0.3149 -0.2216 -0.0402
  410loPI   C4A 6554   5.173   2.310   7.963  0.4088 -0.0556 -0.1316
  410loPI   C5A 6555   5.084   2.603   7.643  0.2046 -0.1194  0.1639
  410loPI   C6A 6556   5.272   2.789   7.243 -0.6104  0.2184 -0.0941
  410loPI   C1B 6557   5.712   2.373   9.067  0.2473 -0.1127  0.1538
  410loPI   C2B 6558   5.888   2.508   8.703 -0.2611 -0.1418  0.2523
  410loPI   C3B 6559   5.895   2.247   8.382  0.1417 -0.0123 -0.2537
  410loPI   C4B 6560   5.611   2.056   8.281 -0.0365 -0.2163  0.2937
  411loPI    C1 6561   0.003   3.213  10.415 -0.0696 -0.2072 -0.0811
  411loPI    C2 6562   0.341   3.162  10.208  0.1053  0.1426  0.1096
  411loPI    C3 6563   0.344   3.132  10.607 -0.0964  0.1139  0.1100
  411loPI   PO4 6564  -0.164   3.017  10.214  0.2677  0.2834 -0.1941
  411loPI   GL1 6565  -0.542   2.750  10.067 -0.1206 -0.2227 -0.0709
  411loPI   GL2 6566  -0.536   2.429  10.033  0.5529 -0.0140 -0.1267
  411loPI   C1A 6567  -0.855   2.637   9.660 -0.0631 -0.3897 -0.2750
  411loPI   C2A 6568  -0.802   2.636   9.196  0.2448 -0.1880  0.0787
  411loPI   C3A 6569  -0.727   2.439   8.818 -0.0684 -0.0451  0.0675
  411loPI   C4A 6570  -0.895   2.327   8.433 -0.0953  0.1021  0.1241
  411loPI   C5A 6571  -1.021   2.442   8.088  0.4025  0.1380  0.0604
  411loPI   C6A 6572  -1.390   2.444   7.885  0.0638 -0.1705 -0.0392
  411loPI   C1B 6573  -0.346   2.555   9.647  0.3123 -0.1591 -0.4556
  411loPI   C2B 6574  -0.409   2.350   9.220 -0.0280 -0.3282 -0.0945
  411loPI   C3B 6575  -0.344   2.054   8.899  0.0948 -0.1982  0.2118
  411loPI   C4B 6576  -0.403   2.205   8.451  0.1473  0.0851  0.1076
  412loPI    C1 6577   8.608  11.031  10.421  0.0794 -0.0933  0.1847
  412loPI    C2 6578   8.289  10.790  10.433  0.0962 -0.1177  0.1438
  412loPI    C3 6579   8.254  11.174  10.540 -0.0390 -0.0179 -0.2392
  412loPI   PO4 6580   8.674  10.979  10.177  0.1902 -0.0730  0.0517
  412loPI   GL1 6581   8.567  11.140   9.677 -0.0841  0.1749  0.0859
  412loPI   GL2 6582   8.484  11.461   9.692 -0.1388  0.0866 -0.0860
  412loPI   C1A 6583   8.184  11.099   9.540 -0.2338 -0.0244  0.0086
  412loPI   C2A 6584   7.902  10.894   9.216 -0.1083  0.0585 -0.5016
  412loPI   C3A 6585   7.707  10.808   8.816  0.3223  0.0843  0.2481
  412loPI   C4A 6586   7.644  10.733   8.289 -0.0134 -0.0274  0.0534
  412loPI   C5A 6587   7.632  10.922   7.888 -0.0159  0.2489 -0.1845
  412loPI   C6A 6588   7.823  11.162   7.590  0.1002  0.1876  0.2330
  412loPI   C1B 6589   8.273  11.501   9.255  0.2030 -0.2114  0.0911
  412loPI   C2B 6590   8.052  11.255   8.956 -0.1427  0.3292  0.0633
  412loPI   C3B 6591   7.823  11.233   8.512 -0.1310 -0.0342  0.2624
  412loPI   C4B 6592   8.014  11.148   8.134  0.0955 -0.2083 -0.2015
  413loPI    C1 6593  17.050  17.056  10.199  0.2271 -0.1322  0.2554
  413loPI    C2 6594  16.676  16.975  10.315  0.1077  0.0226 -0.0122
  413loPI    C3 6595  16.914  16.681  10.186  0.1278 -0.0978  0.2899
  413loPI   PO4 6596  16.993  17.287  10.039 -0.0257 -0.0447 -0.1451
  413loPI   GL1 6597  16.918  17.313   9.680 -0.2373 -0.2062  0.3467
  413loPI   GL2 6598  17.272  17.372   9.677 -0.0538 -0.3894  0.1538
  413loPI   C1A 6599  17.061  17.510   9.255 -0.4557 -0.1661 -0.3429
  413loPI   C2A 6600  16.995  17.818   8.884 -0.2281  0.0621  0.1791
  413loPI   C3A 6601  17.032  17.926   8.408 -0.1658  0.4095 -0.0391
  413loPI   C4A 6602  17.084  17.802   8.007 -0.2197  0.0300  0.0275
  413loPI   C5A 6603  16.980  17.847   7.548 -0.3748  0.2455  0.0274
  413loPI   C6A 6604  17.024  17.836   7.163 -0.1098  0.3191 -0.3023
  413loPI   C1B 6605  17.196  17.054   9.324  0.0276 -0.0739 -0.0116
  413loPI   C2B 6606  17.078  17.102   8.852  0.0943 -0.1711  0.3444
  413loPI   C3B 6607  17.055  16.966   8.441 -0.2435 -0.0210  0.0188
  413loPI   C4B 6608  17.020  16.831   7.986  0.0644  0.1171 -0.0270
  414loPI    C1 6609   3.836  11.000  10.903  0.0833 -0.0089  0.1081
  414loPI    C2 6610   3.911  10.623  10.791 -0.1902 -0.0690  0.1198
  414loPI    C3 6611   4.198  10.842  10.962  0.1238 -0.1022 -0.3477
  414loPI   PO4 6612   3.731  11.076  10.628  0.1615  0.0759 -0.2171
  414loPI   GL1 6613   3.649  10.916  10.138  0.0170 -0.2660 -0.1200
  414loPI   GL2 6614   3.888  10.995   9.885 -0.0365 -0.1273  0.0876
  414loPI   C1A 6615   3.590  10.595   9.798 -0.2097  0.1285 -0.4923
  414loPI   C2A 6616   3.627  10.394   9.413 -0.1157 -0.0610 -0.1636
  414loPI   C3A 6617   3.599  10.411   9.010 -0.0580  0.1703  0.2712
  414loPI   C4A 6618   3.566  10.369   8.580  0.2478  0.1180 -0.1743
  414loPI   C5A 6619   3.698  10.460   8.258 -0.2071  0.1124 -0.1608
  414loPI   C6A 6620   3.707  10.369   7.729 -0.1364 -0.0192 -0.2418
  414loPI   C1B 6621   3.950  11.171   9.539  0.0155  0.0220  0.3342
  414loPI   C2B 6622   4.072  11.203   9.058 -0.3893  0.2627  0.2766
  414loPI   C3B 6623   3.955  11.250   8.550  0.1234  0.0768 -0.1883
  414loPI   C4B 6624   4.134  11.316   8.175 -0.1093  0.4270  0.1205
  415loPI    C1 6625   0.521   6.226   9.963  0.1842 -0.1981 -0.2105
  415loPI    C2 6626   0.726   6.434  10.236 -0.2770  0.0027 -0.0055
  415loPI    C3 6627   0.882   6.372   9.872 -0.0060  0.4516  0.0273
  415loPI   PO4 6628   0.339   6.093  10.041 -0.0628  0.1851 -0.1043
  415loPI   GL1 6629   0.121   5.767   9.805  0.2314  0.4303  0.1728
  415loPI   GL2 6630   0.335   5.908   9.541  0.1105  0.1851  0.4774
  415loPI   C1A 6631   0.286   5.405   9.464 -0.3629 -0.2985 -0.0053
  415loPI   C2A 6632   0.338   5.309   9.021 -0.0234 -0.0446 -0.0134
  415loPI   C3A 6633   0.262   5.420   8.566  0.2253  0.0495 -0.1174
  415loPI   C4A 6634   0.244   5.366   8.153  0.0969 -0.0013  0.1837
  415loPI   C5A 6635   0.301   5.023   7.928 -0.1426  0.3420 -0.0664
  415loPI   C6A 6636   0.246   4.870   7.542 -0.1930  0.0347  0.1215
  415loPI   C1B 6637   0.527   5.807   9.187 -0.2940 -0.1872  0.1125
  415loPI   C2B 6638   0.628   5.746   8.755 -0.4842 -0.0822  0.1062
  415loPI   C3B 6639   0.643   5.749   8.236 -0.2619  0.4500  0.1681
  415loPI   C4B 6640   0.722   5.769   7.790 -0.0233  0.0582  0.2522
  416loPI    C1 6641   5.677  16.361  10.013  0.0913  0.0452 -0.2938
  416loPI    C2 6642   5.790  16.057   9.778 -0.0137 -0.1269 -0.1247
  416loPI    C3 6643   5.730  15.996  10.168 -0.1142  0.0944 -0.1040
  416loPI   PO4 6644   5.523  16.493   9.802 -0.3271  0.0501 -0.1221
  416loPI   GL1 6645   5.482  16.480   9.451  0.2809 -0.2229 -0.0100
  416loPI   GL2 6646   5.215  16.524   9.298 -0.3592 -0.1221  0.3222
  416loPI   C1A 6647   5.700  16.671   9.084  0.1611  0.2419  0.3215
  416loPI   C2A 6648   5.845  16.709   8.627  0.0999  0.1321  0.1623
  416loPI   C3A 6649   5.809  16.610   8.140  0.1529 -0.1737  0.0528
  416loPI   C4A 6650   5.885  16.548   7.727  0.0896 -0.1043  0.2488
  416loPI   C5A 6651   5.945  16.922   7.381 -0.2507  0.1097  0.0504
  416loPI   C6A 6652   6.037  17.126   6.968  0.2286  0.1183  0.0568
  416loPI   C1B 6653   4.846  16.553   8.977  0.3421  0.0514 -0.1180
  416loPI   C2B 6654   4.511  16.480   8.644 -0.1414 -0.0721 -0.0492
  416loPI   C3B 6655   4.695  16.351   8.227  0.0874 -0.1839  0.0026
  416loPI   C4B 6656   4.926  16.122   7.886 -0.0034  0.0693  0.0787
  417loPI    C1 6657   6.231  10.296  10.484  0.0417 -0.1019 -0.1549
  417loPI    C2 6658   6.564  10.454  10.640 -0.0251 -0.0128 -0.1017
  417loPI    C3 6659   6.405  10.123  10.799 -0.1355  0.1200  0.0691
  417loPI   PO4 6660   6.239  10.295  10.300 -0.1875 -0.1704  0.2447
  417loPI   GL1 6661   6.049  10.258   9.979  0.0654  0.0196  0.3387
  417loPI   GL2 6662   5.679  10.215  10.042  0.2719  0.2862 -0.2080
  417loPI   C1A 6663   6.256  10.070   9.572 -0.0429  0.2149 -0.4678
  417loPI   C2A 6664   6.330  10.085   9.199 -0.2821 -0.0663 -0.2837
  417loPI   C3A 6665   6.382  10.054   8.806 -0.0194  0.0923 -0.1309
  417loPI   C4A 6666   6.416  10.136   8.321 -0.2529  0.0589  0.2486
  417loPI   C5A 6667   6.059  10.086   8.187  0.1909 -0.2174  0.0117
  417loPI   C6A 6668   6.044  10.019   7.738 -0.2735  0.0488 -0.1750
  417loPI   C1B 6669   5.705  10.309   9.573 -0.1007 -0.1801  0.0232
  417loPI   C2B 6670   5.416  10.531   9.288 -0.0686 -0.3141  0.0032
  417loPI   C3B 6671   5.392  10.425   8.868 -0.1181 -0.0112  0.1170
  417loPI   C4B 6672   5.207  10.479   8.429 -0.3659  0.1267  0.2555
  418loPI    C1 6673  14.992  12.036  10.103 -0.0456  0.1114  0.1184
  418loPI    C2 6674  15.123  11.827  10.417 -0.1064 -0.0278  0.0523
  418loPI    C3 6675  14.733  11.908  10.380 -0.0960  0.0100  0.0250
  418loPI   PO4 6676  15.100  11.850   9.843  0.3711 -0.1386 -0.1729
  418loPI   GL1 6677  15.139  11.798   9.432 -0.0867 -0.0056  0.1135
  418loPI   GL2 6678  15.140  12.063   9.285 -0.0573  0.0520  0.0231
  418loPI   C1A 6679  15.018  11.472   9.135  0.0413  0.2168 -0.2751
  418loPI   C2A 6680  14.998  11.389   8.690 -0.2628  0.0164  0.0852
  418loPI   C3A 6681  14.950  11.474   8.320 -0.1617 -0.0023 -0.0863
  418loPI   C4A 6682  14.886  11.637   7.916 -0.1214 -0.1686  0.2510
  418loPI   C5A 6683  14.680  11.701   7.559 -0.1056  0.0944 -0.1462
  418loPI   C6A 6684  14.348  11.552   7.330 -0.0255 -0.0179 -0.0217
  418loPI   C1B 6685  15.413  12.176   8.900 -0.2630  0.0610  0.2054
  418loPI   C2B 6686  15.711  12.098   8.520 -0.4357 -0.2037  0.1324
  418loPI   C3B 6687  15.685  12.116   8.142  0.3359 -0.1868 -0.1235
  418loPI   C4B 6688  16.141  12.181   7.908  0.2947  0.0167 -0.1794
  419loPI    C1 6689  10.185  10.943   9.933 -0.1375 -0.2715  0.0236
  419loPI    C2 6690   9.917  11.178  10.115  0.1147  0.0282  0.0157
  419loPI    C3 6691  10.305  11.207  10.209  0.1800 -0.2064 -0.1720
  419loPI   PO4 6692  10.119  10.939   9.663 -0.0360  0.2547 -0.3033
  419loPI   GL1 6693  10.098  10.676   9.328  0.0913  0.3356  0.1529
  419loPI   GL2 6694   9.725  10.839   9.358 -0.0051  0.2126 -0.0276
  419loPI   C1A 6695  10.024  10.901   8.925 -0.0760 -0.3445 -0.0651
  419loPI   C2A 6696   9.800  11.021   8.546  0.0547 -0.1508  0.4989
  419loPI   C3A 6697   9.522  11.099   8.250  0.1620  0.0130 -0.0091
  419loPI   C4A 6698   9.347  11.103   7.682 -0.1157 -0.0269  0.1235
  419loPI   C5A 6699   9.101  10.865   7.407 -0.0171  0.0491  0.2238
  419loPI   C6A 6700   8.933  10.383   7.560 -0.2416 -0.0999 -0.0367
  419loPI   C1B 6701   9.568  11.109   9.007  0.1433  0.1335  0.2880
  419loPI   C2B 6702   9.206  11.201   8.830 -0.1516 -0.3057 -0.1211
  419loPI   C3B 6703   9.131  11.393   8.515  0.2662  0.0060 -0.0591
  419loPI   C4B 6704   9.051  11.010   8.199  0.3900 -0.1868  0.0315
  420loPI    C1 6705   5.182   6.348   9.930  0.0375 -0.1125  0.1343
  420loPI    C2 6706   5.381   6.090   9.698  0.5009  0.1394  0.2391
  420loPI    C3 6707   5.403   6.059  10.096  0.2032  0.0809  0.2540
  420loPI   PO4 6708   4.959   6.332   9.907 -0.2754  0.1771  0.1613
  420loPI   GL1 6709   4.715   6.232   9.563  0.0334 -0.0722  0.0478
  420loPI   GL2 6710   5.013   6.090   9.418  0.3337 -0.1001 -0.0446
  420loPI   C1A 6711   4.586   6.562   9.180  0.0047 -0.2656  0.1278
  420loPI   C2A 6712   4.739   6.810   8.831 -0.0166 -0.1243 -0.1888
  420loPI   C3A 6713   4.635   7.058   8.513  0.0982 -0.3449  0.0051
  420loPI   C4A 6714   4.846   7.147   8.088  0.1090 -0.1223  0.1119
  420loPI   C5A 6715   5.058   7.034   7.702 -0.1971  0.0217 -0.0681
  420loPI   C6A 6716   5.104   7.082   7.214 -0.1485 -0.3150  0.2586
  420loPI   C1B 6717   4.784   6.135   9.075  0.1363  0.0584  0.0351
  420loPI   C2B 6718   4.483   6.224   8.751  0.1339  0.2862 -0.1692
  420loPI   C3B 6719   4.282   6.289   8.275 -0.0978  0.2269  0.0592
  420loPI   C4B 6720   4.329   6.324   7.875 -0.0411  0.0380  0.1487
  421loPI    C1 6721  17.432   0.071  10.469  0.2427 -0.0267  0.1290
  421loPI    C2 6722  17.494   0.466  10.469  0.1019 -0.0040  0.0440
  421loPI    C3 6723  17.178   0.313  10.277 -0.1049 -0.1171  0.4619
  421loPI   PO4 6724  17.592  -0.017  10.371  0.2363 -0.2597 -0.1645
  421loPI   GL1 6725  17.485  -0.027   9.953  0.1664  0.0982  0.1290
  421loPI   GL2 6726  17.556   0.269   9.935  0.4371  0.1043  0.0889
  421loPI   C1A 6727  17.436   0.005   9.470 -0.6414  0.0084 -0.0532
  421loPI   C2A 6728  17.227  -0.067   9.080 -0.3045  0.3369  0.1767
  421loPI   C3A 6729  17.279  -0.039   8.695 -0.4140  0.0431 -0.0596
  421loPI   C4A 6730  17.290  -0.179   8.369 -0.0394 -0.1267 -0.1332
  421loPI   C5A 6731  17.377  -0.545   8.207 -0.1447 -0.0342 -0.1261
  421loPI   C6A 6732  17.301  -0.720   7.842  0.0783  0.0729 -0.0487
  421loPI   C1B 6733  17.724   0.421   9.522 -0.0195  0.1515  0.0351
  421loPI   C2B 6734  17.699   0.251   9.069 -0.0970  0.0761  0.1069
  421loPI   C3B 6735  17.774   0.124   8.567 -0.0960 -0.0940  0.1599
  421loPI   C4B 6736  17.565   0.196   8.222 -0.1830 -0.1022 -0.1878
  422loPI    C1 6737   6.374  18.780  10.176  0.0679  0.1527 -0.0907
  422loPI    C2 6738   6.080  19.045  10.115  0.0338  0.1038 -0.1391
  422loPI    C3 6739   6.030  18.747  10.377  0.0384  0.0928 -0.1508
  422loPI   PO4 6740   6.461  18.805   9.958  0.1050 -0.1311  0.1255
  422loPI   GL1 6741   6.263  18.995   9.580 -0.1890 -0.0900 -0.0668
  422loPI   GL2 6742   6.527  18.824   9.462  0.2030 -0.4304  0.1817
  422loPI   C1A 6743   6.084  18.776   9.289  0.1314  0.0369 -0.0433
  422loPI   C2A 6744   6.061  18.652   9.016 -0.0731 -0.0322  0.1980
  422loPI   C3A 6745   6.183  18.598   8.643 -0.0625  0.0487  0.2741
  422loPI   C4A 6746   6.091  18.640   8.169  0.0923  0.0151  0.2279
  422loPI   C5A 6747   5.951  18.487   7.775  0.2491  0.3208  0.3389
  422loPI   C6A 6748   5.907  18.761   7.436  0.0329 -0.1629  0.1558
  422loPI   C1B 6749   6.510  18.787   8.921  0.2159  0.0516  0.0456
  422loPI   C2B 6750   6.728  18.743   8.534 -0.2613 -0.6465  0.1558
  422loPI   C3B 6751   6.595  18.692   8.187 -0.0885  0.1403 -0.0757
  422loPI   C4B 6752   6.676  18.746   7.736 -0.2843  0.0660 -0.2237
  423loPI    C1 6753   7.809  10.182  10.157 -0.0241  0.0312  0.0478
  423loPI    C2 6754   7.826  10.165  10.556  0.2719  0.1464  0.0430
  423loPI    C3 6755   8.123  10.338  10.351  0.0870  0.1527 -0.2240
  423loPI   PO4 6756   7.632   9.981   9.989  0.0881 -0.0938 -0.0216
  423loPI   GL1 6757   7.501   9.958   9.598  0.1121 -0.1709 -0.0318
  423loPI   GL2 6758   7.401  10.198   9.352  0.0303 -0.1312  0.2966
  423loPI   C1A 6759   7.810   9.862   9.172 -0.2378  0.1517 -0.1419
  423loPI   C2A 6760   7.840   9.852   8.733  0.0570 -0.2217 -0.0846
  423loPI   C3A 6761   7.885   9.700   8.317 -0.3816  0.0522 -0.1197
  423loPI   C4A 6762   8.049   9.514   7.914 -0.3785  0.1294 -0.0836
  423loPI   C5A 6763   8.371   9.204   7.846 -0.0743  0.0375 -0.2462
  423loPI   C6A 6764   8.784   9.024   8.037  0.1344  0.0073 -0.1381
  423loPI   C1B 6765   7.326  10.356   8.940  0.0920 -0.0679  0.0310
  423loPI   C2B 6766   7.308  10.467   8.555 -0.2235 -0.0624  0.1341
  423loPI   C3B 6767   7.237  10.446   8.179 -0.0192  0.0593 -0.3468
  423loPI   C4B 6768   7.432  10.446   7.840  0.1937  0.2226  0.1637
  424loPI    C1 6769   9.721   8.101  10.004  0.0198 -0.1275 -0.1640
  424loPI    C2 6770   9.831   7.746  10.151 -0.0881 -0.0851  0.0233
  424loPI    C3 6771  10.050   8.071  10.229  0.1594 -0.1500 -0.3678
  424loPI   PO4 6772   9.345   8.016   9.947  0.1339  0.0683 -0.1015
  424loPI   GL1 6773   9.278   8.125   9.542 -0.0945 -0.0743  0.2366
  424loPI   GL2 6774   8.976   8.058   9.597  0.3951  0.2384  0.3036
  424loPI   C1A 6775   9.278   7.875   9.254 -0.3806  0.2608  0.3312
  424loPI   C2A 6776   9.224   7.832   8.819 -0.1676  0.3287 -0.0231
  424loPI   C3A 6777   9.250   7.645   8.463 -0.3003 -0.2399  0.4310
  424loPI   C4A 6778   8.975   7.649   8.087  0.0363  0.1585  0.2748
  424loPI   C5A 6779   8.989   7.424   7.656  0.0816 -0.0129  0.0752
  424loPI   C6A 6780   9.352   7.426   7.442 -0.1092  0.2249 -0.1003
  424loPI   C1B 6781   9.016   8.277   9.140 -0.2954  0.0401  0.1021
  424loPI   C2B 6782   9.073   8.299   8.666  0.2962 -0.3111 -0.0112
  424loPI   C3B 6783   8.787   8.431   8.549  0.2887 -0.1017 -0.1901
  424loPI   C4B 6784   8.729   8.847   8.584  0.2239  0.2053 -0.0208
  425loPI    C1 6785  13.654   2.123  10.175  0.0420 -0.1309  0.2654
  425loPI    C2 6786  13.961   2.306  10.355  0.1103 -0.0212  0.0410
  425loPI    C3 6787  13.921   1.909  10.382  0.2593 -0.0333  0.0904
  425loPI   PO4 6788  13.633   2.208   9.884 -0.3372 -0.0012  0.2017
  425loPI   GL1 6789  13.688   2.322   9.568  0.2048 -0.1651 -0.1422
  425loPI   GL2 6790  13.606   2.693   9.513 -0.0151  0.0490  0.1087
  425loPI   C1A 6791  13.524   2.208   9.194  0.1838  0.2109  0.0261
  425loPI   C2A 6792  13.439   2.158   8.769  0.0488 -0.0052 -0.1946
  425loPI   C3A 6793  13.535   2.158   8.297 -0.1515 -0.0991 -0.1166
  425loPI   C4A 6794  13.592   1.983   7.878 -0.3980  0.1776  0.1213
  425loPI   C5A 6795  13.580   1.694   7.534 -0.1769  0.2386  0.1025
  425loPI   C6A 6796  13.489   1.813   7.083 -0.0100 -0.1258 -0.2934
  425loPI   C1B 6797  13.518   2.779   8.997 -0.3255 -0.0455 -0.3436
  425loPI   C2B 6798  13.606   2.736   8.631 -0.2894 -0.1913 -0.0591
  425loPI   C3B 6799  13.503   2.619   8.123  0.0522  0.1525  0.0409
  425loPI   C4B 6800  13.684   2.554   7.675  0.1629  0.0676  0.0516
  426loPI    C1 6801   1.979  18.382  10.081 -0.1327  0.0008 -0.0693
  426loPI    C2 6802   1.907  18.011  10.212  0.2735 -0.0956 -0.1046
  426loPI    C3 6803   2.127  18.261  10.432  0.2372  0.0306 -0.2103
  426loPI   PO4 6804   2.023  18.422   9.891 -0.1499 -0.0699 -0.0271
  426loPI   GL1 6805   2.225  18.350   9.585  0.1097 -0.1157 -0.0428
  426loPI   GL2 6806   2.226  17.949   9.656 -0.0135 -0.1603  0.1330
  426loPI   C1A 6807   2.390  18.218   9.205 -0.0189 -0.1994 -0.0454
  426loPI   C2A 6808   2.648  18.163   8.844  0.0826 -0.0598  0.0622
  426loPI   C3A 6809   2.654  18.170   8.363 -0.3409  0.0243 -0.2090
  426loPI   C4A 6810   2.706  18.392   7.983 -0.2484 -0.1777  0.2676
  426loPI   C5A 6811   2.811  18.315   7.488 -0.0692 -0.1840  0.0627
  426loPI   C6A 6812   2.936  18.044   7.123 -0.0199  0.2576  0.2042
  426loPI   C1B 6813   2.221  17.754   9.281 -0.3139 -0.3340 -0.0059
  426loPI   C2B 6814   2.204  17.937   8.839  0.1942 -0.0808 -0.2918
  426loPI   C3B 6815   2.318  17.742   8.445 -0.3264  0.1623 -0.2721
  426loPI   C4B 6816   2.835  17.669   8.342 -0.2450 -0.2421  0.0256
  427loPI    C1 6817   7.050   2.530  10.060 -0.0749  0.1844 -0.2438
  427loPI    C2 6818   6.881   2.747  10.350 -0.1013  0.1530 -0.2355
  427loPI    C3 6819   7.233   2.567  10.414 -0.0741  0.2020 -0.2461
  427loPI   PO4 6820   6.852   2.352   9.961 -0.0717 -0.0464 -0.3512
  427loPI   GL1 6821   6.708   2.194   9.605 -0.2331 -0.1930  0.1384
  427loPI   GL2 6822   6.499   2.401   9.634  0.2319 -0.0559 -0.2590
  427loPI   C1A 6823   6.790   2.101   9.135  0.0436 -0.0651  0.1116
  427loPI   C2A 6824   6.927   2.176   8.724  0.0892  0.0148  0.2129
  427loPI   C3A 6825   7.221   2.099   8.308  0.2068 -0.2213  0.0727
  427loPI   C4A 6826   7.344   1.778   7.978  0.2809  0.1107  0.1057
  427loPI   C5A 6827   7.543   1.559   7.635  0.2070 -0.0845  0.0663
  427loPI   C6A 6828   7.970   1.436   7.540 -0.1718  0.2103  0.0059
  427loPI   C1B 6829   6.662   2.597   9.250  0.2202 -0.3150  0.0292
  427loPI   C2B 6830   6.708   2.687   8.846  0.0405  0.2228  0.0181
  427loPI   C3B 6831   6.726   2.842   8.475 -0.2025 -0.1858 -0.0042
  427loPI   C4B 6832   6.685   3.111   8.065 -0.0445  0.1492 -0.0047
  428loPI    C1 6833   9.815  14.298   9.850 -0.0152  0.2829 -0.0763
  428loPI    C2 6834   9.786  14.579  10.134 -0.2076  0.2108 -0.0224
  428loPI    C3 6835   9.738  14.193  10.228  0.1176  0.1513 -0.0849
  428loPI   PO4 6836   9.694  14.252   9.663 -0.0355 -0.1851 -0.0307
  428loPI   GL1 6837   9.796  14.100   9.286 -0.0707  0.3302 -0.0119
  428loPI   GL2 6838   9.786  13.836   9.087 -0.0527 -0.1499  0.1677
  428loPI   C1A 6839   9.983  14.280   8.991 -0.0329  0.4741 -0.3018
  428loPI   C2A 6840  10.007  14.266   8.562 -0.0937  0.1057  0.3728
  428loPI   C3A 6841   9.977  14.088   8.138  0.2371  0.1170 -0.3737
  428loPI   C4A 6842   9.886  14.036   7.663  0.1484 -0.1977 -0.1504
  428loPI   C5A 6843  10.167  14.329   7.396  0.0898  0.0631  0.1585
  428loPI   C6A 6844  10.559  14.287   7.200  0.2149 -0.2718  0.1151
  428loPI   C1B 6845   9.509  13.777   8.756  0.0389  0.1969 -0.1528
  428loPI   C2B 6846   9.424  13.639   8.357  0.1449 -0.0820  0.1467
  428loPI   C3B 6847   9.525  13.207   8.114  0.3060  0.0565  0.1310
  428loPI   C4B 6848   9.615  12.979   7.718 -0.1009 -0.1671  0.0326
  429loPI    C1 6849  15.101  10.064  10.208 -0.3735  0.1922  0.1837
  429loPI    C2 6850  14.768   9.906  10.363 -0.2524  0.1097  0.3650
  429loPI    C3 6851  15.097   9.937  10.588 -0.0236 -0.1624  0.0760
  429loPI   PO4 6852  15.029   9.990   9.951  0.1085 -0.1725  0.2924
  429loPI   GL1 6853  15.172   9.729   9.741 -0.2762  0.2630 -0.0807
  429loPI   GL2 6854  15.025   9.545   9.550 -0.4966 -0.2319 -0.2337
  429loPI   C1A 6855  15.339  10.006   9.376  0.4099  0.2901  0.3985
  429loPI   C2A 6856  15.366  10.209   9.053 -0.2182  0.0829 -0.2422
  429loPI   C3A 6857  15.439  10.408   8.807  0.1318 -0.0075  0.0470
  429loPI   C4A 6858  15.537  10.690   8.432  0.0604 -0.0510 -0.0267
  429loPI   C5A 6859  15.429  10.789   7.944  0.4945 -0.4360 -0.1772
  429loPI   C6A 6860  15.351  10.846   7.470  0.0447  0.0639  0.3264
  429loPI   C1B 6861  14.787   9.400   9.220 -0.0133  0.1561  0.0726
  429loPI   C2B 6862  14.758   9.240   8.787  0.1363  0.0517  0.0335
  429loPI   C3B 6863  15.026   9.481   8.515  0.0657  0.1389  0.2862
  429loPI   C4B 6864  15.403   9.713   8.524 -0.3165 -0.1768  0.0594
  430loPI    C1 6865   8.307  14.110  10.174  0.1059 -0.1514 -0.0417
  430loPI    C2 6866   8.392  14.463  10.341 -0.3007 -0.0631 -0.0117
  430loPI    C3 6867   8.297  14.151  10.572 -0.4494 -0.0530 -0.0584
  430loPI   PO4 6868   8.085  14.157   9.974 -0.1489  0.1088 -0.2116
  430loPI   GL1 6869   7.876  14.184   9.568  0.2047  0.1386  0.0327
  430loPI   GL2 6870   7.585  14.167   9.237 -0.0187 -0.1456 -0.1261
  430loPI   C1A 6871   7.926  14.511   9.239  0.0029  0.0234  0.0184
  430loPI   C2A 6872   8.092  14.659   8.825 -0.3252  0.0740 -0.2642
  430loPI   C3A 6873   8.138  14.756   8.425  0.1068  0.0244  0.0043
  430loPI   C4A 6874   8.274  14.746   8.018 -0.2027  0.0701  0.1662
  430loPI   C5A 6875   8.254  14.922   7.673 -0.1614 -0.0587  0.0688
  430loPI   C6A 6876   8.426  14.806   7.370  0.0661 -0.4235  0.3110
  430loPI   C1B 6877   7.302  14.211   8.907  0.2412  0.4185 -0.1745
  430loPI   C2B 6878   7.387  14.148   8.447 -0.0472 -0.1039 -0.4670
  430loPI   C3B 6879   7.300  13.848   8.153 -0.1719 -0.0073  0.1976
  430loPI   C4B 6880   7.223  13.468   8.040 -0.0480  0.2708 -0.2520
  431loPI    C1 6881  18.757   2.086  10.489 -0.0417  0.0236  0.0827
  431loPI    C2 6882  18.361   2.110  10.433 -0.0761 -0.2072  0.2159
  431loPI    C3 6883  18.507   1.919  10.753  0.1412  0.0167  0.2533
  431loPI   PO4 6884  18.859   2.336  10.308  0.0088 -0.0591 -0.1545
  431loPI   GL1 6885  19.046   2.141   9.916 -0.2559 -0.0729 -0.3104
  431loPI   GL2 6886  19.012   1.749   9.796  0.0562  0.1603 -0.0220
  431loPI   C1A 6887  19.068   2.145   9.504 -0.3201 -0.1571 -0.1824
  431loPI   C2A 6888  19.139   2.197   9.078 -0.0278  0.1383 -0.0626
  431loPI   C3A 6889  19.450   2.228   8.738  0.0034  0.0776 -0.1348
  431loPI   C4A 6890  19.442   2.378   8.323  0.2379  0.1656  0.1261
  431loPI   C5A 6891  19.502   2.482   7.805  0.0883  0.1202 -0.2050
  431loPI   C6A 6892  19.599   2.626   7.394 -0.1877 -0.3871  0.0443
  431loPI   C1B 6893  18.680   1.791   9.459 -0.4963  0.1675 -0.1567
  431loPI   C2B 6894  18.471   1.483   9.069  0.1879 -0.1714  0.0573
  431loPI   C3B 6895  18.362   1.357   8.656  0.0571 -0.2679 -0.1622
  431loPI   C4B 6896  18.188   1.106   8.369 -0.4855  0.0655 -0.1777
  432loPI    C1 6897  10.315   6.512   9.721  0.3120  0.0782 -0.0377
  432loPI    C2 6898  10.663   6.509   9.917  0.2078  0.1242  0.1507
  432loPI    C3 6899  10.531   6.847   9.750  0.2940  0.0863  0.0033
  432loPI   PO4 6900  10.146   6.352   9.731  0.1148 -0.2058 -0.0689
  432loPI   GL1 6901   9.906   6.108   9.363  0.0387 -0.0296  0.2843
  432loPI   GL2 6902   9.709   6.259   9.249  0.0866 -0.0357 -0.1629
  432loPI   C1A 6903  10.172   6.030   8.936  0.0667  0.3693  0.1616
  432loPI   C2A 6904  10.085   5.974   8.523 -0.1083 -0.4846  0.0289
  432loPI   C3A 6905  10.256   6.055   8.106  0.2217 -0.2141 -0.0456
  432loPI   C4A 6906  10.101   5.932   7.639  0.3147 -0.0818 -0.1757
  432loPI   C5A 6907  10.126   5.580   7.340 -0.3265  0.1861 -0.5358
  432loPI   C6A 6908  10.424   5.683   7.048 -0.3392  0.0819 -0.0428
  432loPI   C1B 6909   9.727   6.230   8.890  0.3996  0.2374 -0.3322
  432loPI   C2B 6910   9.678   6.268   8.520 -0.1372 -0.1646 -0.2457
  432loPI   C3B 6911   9.776   6.274   8.126 -0.0571 -0.1698  0.0818
  432loPI   C4B 6912   9.733   6.232   7.697  0.1522  0.1393 -0.2177
  433loPI    C1 6913  16.210   3.596  10.091  0.1268  0.1720  0.0176
  433loPI    C2 6914  16.323   3.802  10.415  0.0837  0.0634  0.1024
  433loPI    C3 6915  16.265   3.407  10.439  0.0299  0.0629 -0.0258
  433loPI   PO4 6916  16.310   3.566   9.922  0.3021 -0.0567 -0.0195
  433loPI   GL1 6917  16.502   3.382   9.606 -0.4425 -0.3175  0.3409
  433loPI   GL2 6918  16.792   3.576   9.547 -0.0878  0.0921 -0.0056
  433loPI   C1A 6919  16.545   3.461   9.032 -0.3997  0.1820  0.0061
  433loPI   C2A 6920  16.292   3.750   8.796 -0.1092 -0.0730  0.0927
  433loPI   C3A 6921  16.455   3.870   8.416  0.0761 -0.0928 -0.2936
  433loPI   C4A 6922  16.678   3.870   8.047  0.1170 -0.2417 -0.0888
  433loPI   C5A 6923  16.850   3.538   7.629  0.3769 -0.0332  0.1544
  433loPI   C6A 6924  16.876   3.241   7.338  0.4361  0.3889 -0.0078
  433loPI   C1B 6925  16.993   3.530   9.111  0.2488 -0.0392 -0.2087
  433loPI   C2B 6926  17.226   3.563   8.629 -0.0608  0.0979 -0.3039
  433loPI   C3B 6927  17.215   3.482   8.202  0.1280 -0.1029  0.4430
  433loPI   C4B 6928  17.417   3.288   7.775  0.1006  0.0492  0.4662
  434loPI    C1 6929   7.188   0.148  10.243  0.1297  0.2332 -0.0954
  434loPI    C2 6930   6.976   0.332  10.528  0.0480  0.0652 -0.0460
  434loPI    C3 6931   7.285   0.098  10.628 -0.0077 -0.0289 -0.0922
  434loPI   PO4 6932   7.156   0.351  10.097 -0.0982  0.0349 -0.0944
  434loPI   GL1 6933   7.380   0.547   9.884  0.0133  0.4002 -0.3695
  434loPI   GL2 6934   7.110   0.487   9.555  0.0623  0.3092  0.1008
  434loPI   C1A 6935   7.596   0.474   9.518  0.0211 -0.0136  0.1100
  434loPI   C2A 6936   7.687   0.428   9.123  0.1411  0.2008  0.0639
  434loPI   C3A 6937   7.669   0.582   8.721  0.0166  0.0106  0.0955
  434loPI   C4A 6938   7.810   0.811   8.372 -0.0519 -0.0608 -0.2358
  434loPI   C5A 6939   8.039   0.835   7.884 -0.0473 -0.1113  0.1085
  434loPI   C6A 6940   7.822   0.947   7.443 -0.0255  0.0757 -0.0655
  434loPI   C1B 6941   7.116   0.562   9.127 -0.1978 -0.1246  0.1110
  434loPI   C2B 6942   7.219   0.694   8.663  0.0361 -0.2215  0.1017
  434loPI   C3B 6943   7.204   0.484   8.263 -0.2666 -0.2230 -0.2220
  434loPI   C4B 6944   7.033   0.666   7.831  0.0334  0.2933 -0.2817
  435loPI    C1 6945   6.091   9.798  10.355  0.1029  0.0335 -0.1351
  435loPI    C2 6946   5.983   9.569  10.665 -0.0829 -0.0601 -0.2664
  435loPI    C3 6947   6.368   9.662  10.609 -0.0413 -0.0910 -0.0420
  435loPI   PO4 6948   5.944   9.760  10.211 -0.0564  0.0091  0.1822
  435loPI   GL1 6949   5.871   9.771   9.840  0.1170 -0.1370 -0.1941
  435loPI   GL2 6950   5.499   9.842   9.764 -0.1096  0.0626 -0.2051
  435loPI   C1A 6951   5.866   9.843   9.367 -0.1497 -0.2182 -0.4706
  435loPI   C2A 6952   5.848  10.224   9.096 -0.2436  0.0034  0.2781
  435loPI   C3A 6953   5.785  10.254   8.649  0.1657 -0.0977 -0.0745
  435loPI   C4A 6954   5.487  10.011   8.372 -0.1382 -0.0439  0.0726
  435loPI   C5A 6955   5.207   9.751   8.041  0.0581  0.1107 -0.2727
  435loPI   C6A 6956   4.749   9.655   7.968 -0.3027 -0.2922  0.1503
  435loPI   C1B 6957   5.512   9.546   9.456  0.0889  0.0027 -0.1037
  435loPI   C2B 6958   5.516   9.557   9.125  0.1355  0.0360  0.1712
  435loPI   C3B 6959   5.850   9.750   8.865 -0.2086  0.3058  0.2779
  435loPI   C4B 6960   5.983   9.753   8.476  0.0599  0.0476  0.2147
  436loPI    C1 6961   9.043   4.644  10.507  0.0959  0.0470  0.1612
  436loPI    C2 6962   9.006   4.426  10.840 -0.1385  0.2347  0.2611
  436loPI    C3 6963   8.956   4.822  10.854 -0.1971  0.2385 -0.0063
  436loPI   PO4 6964   8.884   4.544  10.327  0.0082  0.2263  0.0934
  436loPI   GL1 6965   8.789   4.552   9.902  0.1649  0.1261 -0.3068
  436loPI   GL2 6966   8.526   4.753   9.794 -0.2869  0.1293  0.0806
  436loPI   C1A 6967   8.707   4.298   9.498 -0.3912 -0.0373  0.0895
  436loPI   C2A 6968   8.736   4.309   9.182  0.2498 -0.0944  0.0703
  436loPI   C3A 6969   8.635   4.237   8.712 -0.3592  0.4216  0.0889
  436loPI   C4A 6970   8.746   4.267   8.245 -0.0253  0.1325 -0.0268
  436loPI   C5A 6971   8.869   4.404   7.825 -0.4316  0.1249 -0.2995
  436loPI   C6A 6972   9.140   4.702   7.764  0.4069 -0.0377  0.2334
  436loPI   C1B 6973   8.614   4.786   9.317 -0.0664  0.0587  0.0115
  436loPI   C2B 6974   8.694   4.756   8.936 -0.1565 -0.1319 -0.1914
  436loPI   C3B 6975   8.783   4.712   8.474 -0.1005 -0.1622 -0.1961
  436loPI   C4B 6976   8.787   4.911   8.043 -0.0062  0.1625 -0.1557
  437loPI    C1 6977  10.230   7.991   9.653 -0.0114  0.1384 -0.1295
  437loPI    C2 6978   9.987   7.679   9.714  0.0253  0.1438  0.0512
  437loPI    C3 6979  10.330   7.708   9.917  0.2816  0.0282 -0.3541
  437loPI   PO4 6980  10.102   8.226   9.757 -0.2441  0.4595  0.4865
  437loPI   GL1 6981   9.859   8.358   9.489  0.1039  0.0408 -0.0014
  437loPI   GL2 6982   9.952   8.669   9.514 -0.0801 -0.1352  0.0469
  437loPI   C1A 6983  10.026   8.311   9.111  0.1220 -0.1520 -0.0141
  437loPI   C2A 6984   9.989   8.412   8.715 -0.1490  0.2492 -0.2060
  437loPI   C3A 6985   9.976   8.281   8.225  0.0545  0.1762  0.0749
  437loPI   C4A 6986   9.710   8.360   7.839 -0.0420  0.1534 -0.2725
  437loPI   C5A 6987   9.460   8.472   7.512  0.4942 -0.0383 -0.5604
  437loPI   C6A 6988   9.114   8.259   7.375  0.2536 -0.0161  0.5099
  437loPI   C1B 6989   9.714   8.819   9.158  0.1071  0.0806  0.1082
  437loPI   C2B 6990   9.427   9.135   8.844 -0.0378  0.0662  0.0420
  437loPI   C3B 6991   9.248   9.110   8.423  0.3089 -0.2651 -0.1741
  437loPI   C4B 6992   9.098   8.684   8.234 -0.0405  0.0946 -0.0904
  438loPI    C1 6993  15.879  10.244   9.957  0.1001  0.1820 -0.1115
  438loPI    C2 6994  15.606  10.075  10.195  0.3959  0.0027  0.1064
  438loPI    C3 6995  15.512  10.168   9.818  0.0763 -0.1820  0.1370
  438loPI   PO4 6996  16.107  10.060   9.985  0.1679 -0.0341 -0.1585
  438loPI   GL1 6997  16.390   9.979   9.610  0.0218  0.0378  0.0670
  438loPI   GL2 6998  16.061   9.755   9.519  0.2729 -0.3642 -0.0376
  438loPI   C1A 6999  16.358   9.899   9.125 -0.0599  0.2814 -0.1023
  438loPI   C2A 7000  16.285   9.958   8.689 -0.2263 -0.3624 -0.1486
  438loPI   C3A 7001  16.338  10.284   8.304  0.0303  0.1539 -0.1564
  438loPI   C4A 7002  16.572  10.571   8.081 -0.0348 -0.1911  0.0733
  438loPI   C5A 7003  16.445  10.912   7.813  0.1430 -0.0195 -0.1189
  438loPI   C6A 7004  16.469  11.355   7.742  0.2750 -0.2239  0.1029
  438loPI   C1B 7005  16.003   9.663   9.003  0.0051  0.1281  0.3757
  438loPI   C2B 7006  15.933   9.618   8.579  0.0866  0.1337  0.2016
  438loPI   C3B 7007  16.187   9.776   8.220  0.3322 -0.2702 -0.1233
  438loPI   C4B 7008  16.408   9.668   7.801 -0.2073 -0.2933 -0.2382
  439loPI    C1 7009  12.896   8.734   9.963 -0.0631 -0.0681  0.2050
  439loPI    C2 7010  12.559   8.948   9.928  0.0939  0.1275 -0.1635
  439loPI    C3 7011  12.742   8.919  10.283 -0.4122 -0.1454  0.0865
  439loPI   PO4 7012  12.863   8.504   9.830 -0.0833  0.1370 -0.2224
  439loPI   GL1 7013  13.044   8.459   9.377  0.1547  0.2738  0.1414
  439loPI   GL2 7014  12.893   8.529   9.200  0.0290 -0.0849 -0.2012
  439loPI   C1A 7015  13.345   8.396   9.063  0.0230 -0.1313 -0.3456
  439loPI   C2A 7016  13.356   8.007   8.766  0.0424  0.0325 -0.1046
  439loPI   C3A 7017  13.358   7.992   8.332 -0.0764  0.0014 -0.0672
  439loPI   C4A 7018  13.243   8.212   7.957 -0.2063 -0.0812  0.1037
  439loPI   C5A 7019  13.334   8.588   7.774 -0.0370  0.3267 -0.1709
  439loPI   C6A 7020  13.647   8.951   7.988  0.0489  0.2669 -0.1462
  439loPI   C1B 7021  12.760   8.494   8.733  0.1838  0.4431 -0.2023
  439loPI   C2B 7022  12.798   8.499   8.338 -0.0500 -0.2863 -0.2606
  439loPI   C3B 7023  12.814   8.456   7.834  0.1385 -0.0231 -0.2921
  439loPI   C4B 7024  13.043   8.226   7.463 -0.0916 -0.0194  0.1221
  440loPI    C1 7025   3.093  14.363   9.782 -0.0367  0.1605 -0.0179
  440loPI    C2 7026   3.163  14.170  10.125  0.3967  0.0460 -0.1640
  440loPI    C3 7027   3.042  14.551  10.131 -0.0349 -0.0882  0.1182
  440loPI   PO4 7028   2.922  14.266   9.670 -0.3359  0.2022  0.3218
  440loPI   GL1 7029   2.766  14.084   9.302 -0.0638 -0.0236  0.0277
  440loPI   GL2 7030   2.671  13.800   9.427 -0.0316  0.1163 -0.1279
  440loPI   C1A 7031   2.782  14.165   8.942  0.1213 -0.3499  0.0151
  440loPI   C2A 7032   2.859  14.279   8.648 -0.0247 -0.0846  0.0657
  440loPI   C3A 7033   2.733  14.245   8.309  0.1463 -0.1832  0.0386
  440loPI   C4A 7034   2.907  14.474   7.972  0.1123  0.2509 -0.1189
  440loPI   C5A 7035   3.284  14.595   7.744  0.0077  0.1835  0.0047
  440loPI   C6A 7036   3.647  14.987   7.709  0.1142 -0.2183  0.3119
  440loPI   C1B 7037   2.489  13.762   9.035 -0.0522 -0.3114  0.0371
  440loPI   C2B 7038   2.597  13.821   8.624 -0.1628 -0.0744 -0.0588
  440loPI   C3B 7039   2.566  13.811   8.268 -0.0003 -0.1150  0.0504
  440loPI   C4B 7040   2.853  14.000   7.866  0.1923 -0.2240  0.2799
  441loPI    C1 7041   2.565   1.955   9.781 -0.2789  0.0304  0.0209
  441loPI    C2 7042   2.572   1.995  10.179  0.2728 -0.0267  0.0239
  441loPI    C3 7043   2.535   2.318   9.945  0.0863  0.0206  0.1172
  441loPI   PO4 7044   2.819   1.795   9.702 -0.2042 -0.0488  0.1033
  441loPI   GL1 7045   3.071   1.697   9.486  0.1173 -0.0274  0.0818
  441loPI   GL2 7046   3.035   2.065   9.341  0.0506 -0.0429 -0.0648
  441loPI   C1A 7047   3.475   1.379   9.489 -0.0109  0.1708  0.0875
  441loPI   C2A 7048   3.859   1.490   9.352  0.3975  0.0382  0.1687
  441loPI   C3A 7049   4.005   1.570   8.994 -0.4374  0.0269  0.0508
  441loPI   C4A 7050   4.212   1.457   8.657 -0.0264 -0.0368 -0.2688
  441loPI   C5A 7051   4.612   1.490   8.645 -0.0146 -0.2534  0.2974
  441loPI   C6A 7052   5.093   1.615   8.808 -0.0036  0.1019  0.1748
  441loPI   C1B 7053   2.872   1.960   8.971  0.0913  0.0082  0.3245
  441loPI   C2B 7054   2.628   1.516   8.887 -0.0492 -0.0586  0.3283
  441loPI   C3B 7055   2.288   1.236   9.004 -0.1392  0.1471  0.4150
  441loPI   C4B 7056   2.011   1.238   9.241  0.3059  0.0371  0.0792
  442loPI    C1 7057   6.113   8.503  10.339  0.1006 -0.2296  0.0360
  442loPI    C2 7058   5.906   8.254  10.573 -0.2638 -0.1244 -0.1669
  442loPI    C3 7059   5.858   8.649  10.610  0.2928 -0.0753  0.1361
  442loPI   PO4 7060   6.084   8.378  10.153  0.0207  0.1540  0.3648
  442loPI   GL1 7061   6.289   8.243   9.783 -0.1707  0.0227  0.0823
  442loPI   GL2 7062   6.621   8.163   9.685  0.0278  0.1900  0.1474
  442loPI   C1A 7063   6.059   8.256   9.467 -0.1536 -0.4141  0.4602
  442loPI   C2A 7064   6.162   8.201   8.966 -0.1606 -0.1090 -0.0402
  442loPI   C3A 7065   6.330   8.271   8.529  0.1187 -0.1983  0.2930
  442loPI   C4A 7066   6.218   8.311   8.115 -0.0277 -0.1328  0.4435
  442loPI   C5A 7067   6.302   8.213   7.729  0.0097  0.1923 -0.2908
  442loPI   C6A 7068   6.321   7.948   7.477  0.1566  0.0417  0.0363
  442loPI   C1B 7069   6.554   8.164   9.309  0.1496  0.1495 -0.2711
  442loPI   C2B 7070   6.717   8.379   9.070 -0.1077  0.1200  0.0282
  442loPI   C3B 7071   6.694   8.608   8.740 -0.2064 -0.0452  0.2038
  442loPI   C4B 7072   6.714   8.742   8.329 -0.0814 -0.3263 -0.2871
  443loPI    C1 7073   0.397  12.765  10.091 -0.0116 -0.1112  0.0834
  443loPI    C2 7074   0.251  12.986  10.391  0.0590  0.0540 -0.0027
  443loPI    C3 7075   0.527  12.706  10.465  0.0266  0.0477  0.0956
  443loPI   PO4 7076   0.509  12.967   9.939  0.0723  0.0354 -0.1278
  443loPI   GL1 7077   0.455  12.832   9.459 -0.2478  0.1522  0.2174
  443loPI   GL2 7078   0.607  12.600   9.293  0.0563 -0.0696  0.2396
  443loPI   C1A 7079   0.330  12.909   8.983  0.1347  0.1785 -0.2979
  443loPI   C2A 7080   0.178  13.000   8.515 -0.0132 -0.1962 -0.0707
  443loPI   C3A 7081  -0.058  13.205   8.248  0.0832 -0.0556  0.1782
  443loPI   C4A 7082  -0.564  13.145   8.132  0.1749 -0.0270 -0.2624
  443loPI   C5A 7083  -0.914  12.909   7.784  0.1053 -0.0345 -0.1385
  443loPI   C6A 7084  -1.149  12.643   7.664  0.0711  0.0427  0.4932
  443loPI   C1B 7085   0.590  12.278   8.962  0.2000  0.0255 -0.2921
  443loPI   C2B 7086   0.590  12.269   8.562  0.0506 -0.1834 -0.0674
  443loPI   C3B 7087   0.822  12.428   8.126  0.1928 -0.0592 -0.0889
  443loPI   C4B 7088   0.833  12.278   7.692 -0.2217  0.1094  0.1102
  444loPI    C1 7089   6.422  16.204   9.851  0.2214 -0.2258  0.0058
  444loPI    C2 7090   6.234  16.083  10.182  0.1900 -0.2788 -0.0312
  444loPI    C3 7091   6.625  16.165  10.193  0.1324 -0.0078  0.0857
  444loPI   PO4 7092   6.358  16.068   9.618  0.0575 -0.0547 -0.0990
  444loPI   GL1 7093   6.316  15.949   9.235 -0.0822  0.1593 -0.3431
  444loPI   GL2 7094   5.979  15.764   9.380  0.0694 -0.1694 -0.0228
  444loPI   C1A 7095   6.322  15.786   8.838 -0.0750  0.3832  0.0747
  444loPI   C2A 7096   6.436  15.820   8.477 -0.1304 -0.2431 -0.0603
  444loPI   C3A 7097   6.491  15.878   8.085  0.0334  0.1868  0.0416
  444loPI   C4A 7098   6.310  15.550   7.767 -0.1163 -0.4978 -0.2040
  444loPI   C5A 7099   6.449  15.757   7.301 -0.0120  0.0173  0.1956
  444loPI   C6A 7100   6.440  16.237   7.089 -0.0492  0.1580  0.0476
  444loPI   C1B 7101   5.836  15.783   9.021  0.1873 -0.4678  0.1384
  444loPI   C2B 7102   5.943  15.635   8.525 -0.1981  0.3080  0.4363
  444loPI   C3B 7103   5.907  15.503   8.115  0.0249  0.1913  0.0493
  444loPI   C4B 7104   5.587  15.387   7.789 -0.0875  0.0384  0.2050
  445loPI    C1 7105  11.035   8.340  10.096 -0.1044 -0.3308  0.3102
  445loPI    C2 7106  11.176   8.654  10.300 -0.2587 -0.0175 -0.0544
  445loPI    C3 7107  10.803   8.525  10.364 -0.2133 -0.0956  0.0571
  445loPI   PO4 7108  11.153   8.346   9.836 -0.1180  0.1945  0.2103
  445loPI   GL1 7109  11.210   8.057   9.437 -0.0772  0.1151 -0.2430
  445loPI   GL2 7110  11.519   8.132   9.453  0.0825 -0.2481 -0.2154
  445loPI   C1A 7111  10.977   8.154   9.044  0.2534  0.0212 -0.0240
  445loPI   C2A 7112  10.910   8.047   8.563  0.0877 -0.1512  0.0868
  445loPI   C3A 7113  10.689   7.765   8.142 -0.1248  0.0342 -0.1815
  445loPI   C4A 7114  10.512   7.475   7.771  0.0214  0.1363  0.1747
  445loPI   C5A 7115  10.330   7.127   7.652 -0.0537 -0.0075  0.1078
  445loPI   C6A 7116  10.447   6.857   7.306  0.1652 -0.2697  0.0072
  445loPI   C1B 7117  11.485   8.257   9.054  0.2226 -0.1981 -0.0468
  445loPI   C2B 7118  11.398   8.225   8.594  0.3566 -0.2647  0.0579
  445loPI   C3B 7119  11.270   8.128   8.162  0.4979  0.3361 -0.0781
  445loPI   C4B 7120  11.258   8.331   7.736  0.3473  0.3345 -0.3020
  446loPI    C1 7121   6.192  17.112  10.065 -0.1427  0.3622 -0.0460
  446loPI    C2 7122   6.565  17.044  10.192 -0.2385 -0.1134  0.0011
  446loPI    C3 7123   6.366  17.367  10.319  0.1287  0.1087  0.0283
  446loPI   PO4 7124   6.186  17.045   9.843 -0.0357  0.0804 -0.3783
  446loPI   GL1 7125   6.341  17.199   9.488 -0.1348 -0.1714 -0.1383
  446loPI   GL2 7126   6.489  17.466   9.353 -0.3525  0.0968 -0.3082
  446loPI   C1A 7127   6.184  17.059   9.086  0.2805 -0.1426  0.0752
  446loPI   C2A 7128   6.268  16.966   8.762 -0.0254 -0.1693  0.2187
  446loPI   C3A 7129   6.329  16.724   8.483 -0.0254 -0.0725  0.1146
  446loPI   C4A 7130   6.299  16.695   8.080  0.4620  0.0675  0.0989
  446loPI   C5A 7131   6.325  16.272   7.832 -0.0049 -0.0070 -0.2819
  446loPI   C6A 7132   6.690  16.136   7.704 -0.0893  0.0517 -0.0445
  446loPI   C1B 7133   6.611  17.313   9.006 -0.0337 -0.2044 -0.0790
  446loPI   C2B 7134   6.693  17.274   8.495  0.2112 -0.1085  0.0510
  446loPI   C3B 7135   6.477  17.186   8.034 -0.1875 -0.2496 -0.2785
  446loPI   C4B 7136   6.443  17.125   7.483 -0.0190 -0.0812 -0.0850
  447loPI    C1 7137   0.492   2.514   9.988  0.0498 -0.0463 -0.0710
  447loPI    C2 7138   0.309   2.665  10.310  0.0769 -0.1849  0.0103
  447loPI    C3 7139   0.145   2.709   9.948 -0.0957 -0.2691  0.0770
  447loPI   PO4 7140   0.752   2.489  10.079 -0.2205  0.5525 -0.1879
  447loPI   GL1 7141   0.979   2.697   9.955 -0.0769  0.0747  0.3600
  447loPI   GL2 7142   1.328   2.677   9.819  0.0365  0.1093 -0.1894
  447loPI   C1A 7143   0.905   2.817   9.541 -0.0123 -0.1241  0.0036
  447loPI   C2A 7144   1.066   3.017   9.084 -0.0636 -0.2245 -0.0080
  447loPI   C3A 7145   1.143   3.214   8.719  0.3041  0.1182  0.0725
  447loPI   C4A 7146   1.400   3.345   8.326  0.1655 -0.3558 -0.0186
  447loPI   C5A 7147   1.832   3.358   8.404 -0.0148 -0.1219  0.3240
  447loPI   C6A 7148   2.227   3.322   8.398  0.4018 -0.0742 -0.2750
  447loPI   C1B 7149   1.394   2.997   9.514  0.3592  0.1873 -0.0624
  447loPI   C2B 7150   1.367   3.356   9.558 -0.4504  0.2818  0.0484
  447loPI   C3B 7151   1.625   3.713   9.449  0.0947 -0.0588 -0.2512
  447loPI   C4B 7152   2.038   3.734   9.523 -0.1850 -0.0334 -0.2002
  448loPI    C1 7153   4.681   2.232  10.043  0.1006 -0.2041 -0.1600
  448loPI    C2 7154   5.061   2.118   9.997  0.0997 -0.3408  0.1427
  448loPI    C3 7155   4.894   2.112  10.360 -0.2147 -0.3534  0.0009
  448loPI   PO4 7156   4.623   2.479   9.948 -0.1664  0.2045  0.0682
  448loPI   GL1 7157   4.470   2.647   9.565 -0.3209  0.3445  0.0701
  448loPI   GL2 7158   4.417   2.351   9.508 -0.0838 -0.1560 -0.0388
  448loPI   C1A 7159   4.379   2.866   9.261 -0.1201  0.0968  0.1478
  448loPI   C2A 7160   4.274   2.790   8.780  0.0639 -0.0758 -0.0928
  448loPI   C3A 7161   4.220   2.928   8.384  0.1363  0.0125  0.3526
  448loPI   C4A 7162   4.411   2.873   7.978  0.0431 -0.0008 -0.3703
  448loPI   C5A 7163   4.379   2.711   7.533  0.4549  0.1966 -0.4314
  448loPI   C6A 7164   4.175   2.283   7.485  0.0725 -0.0238  0.1237
  448loPI   C1B 7165   4.544   2.426   9.127  0.0598 -0.1441 -0.1352
  448loPI   C2B 7166   4.430   2.323   8.670 -0.1496  0.0708  0.2569
  448loPI   C3B 7167   4.272   2.314   8.289  0.0429 -0.0110 -0.1490
  448loPI   C4B 7168   4.061   2.546   7.925 -0.2163  0.0324 -0.1840
  449loPI    C1 7169   6.617  13.515  10.219 -0.0384  0.0586  0.0986
  449loPI    C2 7170   6.818  13.713  10.502 -0.0361 -0.2242  0.2995
  449loPI    C3 7171   6.418  13.727  10.495 -0.0367 -0.2266  0.3240
  449loPI   PO4 7172   6.704  13.479  10.069  0.0902 -0.0981 -0.0927
  449loPI   GL1 7173   6.485  13.377   9.736 -0.0846  0.0006  0.2401
  449loPI   GL2 7174   6.302  13.598   9.500  0.0490 -0.1823  0.2642
  449loPI   C1A 7175   6.522  12.986   9.512  0.1489  0.2492 -0.1729
  449loPI   C2A 7176   6.335  12.981   8.994 -0.0441 -0.0144  0.3686
  449loPI   C3A 7177   6.174  12.932   8.608 -0.2577 -0.0268 -0.1881
  449loPI   C4A 7178   6.227  12.958   8.116 -0.1523 -0.0138 -0.0741
  449loPI   C5A 7179   6.386  13.171   7.870  0.0432 -0.1822 -0.1098
  449loPI   C6A 7180   6.587  13.221   7.506 -0.2602 -0.2328 -0.2359
  449loPI   C1B 7181   6.195  13.570   9.075  0.3177  0.0283 -0.5106
  449loPI   C2B 7182   6.391  13.418   8.755 -0.2105  0.1038 -0.0136
  449loPI   C3B 7183   6.726  13.344   8.479 -0.0227 -0.1424 -0.2829
  449loPI   C4B 7184   6.841  13.120   8.137 -0.0703  0.0302  0.3502
  450loPI    C1 7185   8.199  18.229   9.759  0.1500 -0.2731 -0.0623
  450loPI    C2 7186   8.398  18.487   9.991 -0.1778  0.0231 -0.1013
  450loPI    C3 7187   8.110  18.258  10.148 -0.3043  0.1231 -0.1848
  450loPI   PO4 7188   8.194  18.315   9.576 -0.0401 -0.0828  0.1180
  450loPI   GL1 7189   8.077  18.157   9.222 -0.2022  0.1583 -0.1520
  450loPI   GL2 7190   8.221  17.834   9.060  0.1502 -0.2123 -0.3865
  450loPI   C1A 7191   7.870  18.071   8.777  0.1798  0.0521 -0.0695
  450loPI   C2A 7192   7.898  18.020   8.365  0.0977  0.0198 -0.1168
  450loPI   C3A 7193   7.808  17.863   7.937 -0.0854 -0.1775 -0.0804
  450loPI   C4A 7194   7.840  17.747   7.549 -0.2728 -0.1878 -0.1600
  450loPI   C5A 7195   7.731  17.983   7.168  0.2249  0.2325  0.1607
  450loPI   C6A 7196   7.523  17.818   6.792  0.0777  0.2078 -0.0936
  450loPI   C1B 7197   8.374  17.741   8.554  0.0420 -0.1323  0.1978
  450loPI   C2B 7198   8.171  17.603   8.234  0.2746  0.0087  0.0957
  450loPI   C3B 7199   8.032  17.373   7.777  0.3076  0.0527  0.1874
  450loPI   C4B 7200   7.854  17.056   7.455 -0.0710  0.1775  0.0845
  451loPI    C1 7201  18.462   1.427  10.581 -0.1038 -0.4267 -0.2118
  451loPI    C2 7202  18.782   1.257  10.752 -0.0861 -0.1385  0.0500
  451loPI    C3 7203  18.425   1.240  10.932 -0.1325 -0.1001 -0.0370
  451loPI   PO4 7204  18.567   1.341  10.271 -0.1937 -0.0168  0.4065
  451loPI   GL1 7205  18.544   1.398   9.834  0.0420 -0.0218 -0.0185
  451loPI   GL2 7206  18.195   1.553   9.784 -0.2204  0.2140 -0.0148
  451loPI   C1A 7207  18.578   1.221   9.464  0.1623 -0.0463  0.1140
  451loPI   C2A 7208  18.733   0.992   9.057  0.4059 -0.0298 -0.1273
  451loPI   C3A 7209  18.695   1.006   8.561  0.0068  0.3170  0.0652
  451loPI   C4A 7210  18.659   1.346   8.256  0.3468 -0.1349 -0.0884
  451loPI   C5A 7211  18.745   1.786   8.123  0.2253  0.3607 -0.0792
  451loPI   C6A 7212  18.335   2.102   7.949 -0.0351  0.1340 -0.1967
  451loPI   C1B 7213  18.039   1.451   9.378 -0.0243 -0.3949 -0.1069
  451loPI   C2B 7214  17.921   1.364   8.881  0.3858 -0.1387  0.0767
  451loPI   C3B 7215  17.755   1.406   8.463 -0.2260  0.0666  0.1468
  451loPI   C4B 7216  17.777   1.216   8.075  0.2867  0.0420 -0.5213
  452loPI    C1 7217  18.070   8.935   9.926  0.2201 -0.0004  0.2355
  452loPI    C2 7218  17.767   8.973  10.184 -0.1006 -0.2941 -0.0881
  452loPI    C3 7219  18.113   8.812  10.305 -0.0979 -0.0364  0.2621
  452loPI   PO4 7220  17.999   8.764   9.747 -0.0634 -0.3673  0.1227
  452loPI   GL1 7221  18.117   8.765   9.386  0.0675  0.1952 -0.1091
  452loPI   GL2 7222  17.994   9.078   9.283 -0.0953 -0.0952  0.3900
  452loPI   C1A 7223  18.279   8.742   9.048 -0.0758 -0.0649 -0.0410
  452loPI   C2A 7224  18.569   8.895   8.729 -0.3846 -0.0904 -0.0744
  452loPI   C3A 7225  18.890   8.800   8.427 -0.2912  0.2450 -0.0225
  452loPI   C4A 7226  19.176   8.820   8.183 -0.1593  0.1513  0.1504
  452loPI   C5A 7227  19.528   8.972   8.088 -0.2266  0.1291 -0.4776
  452loPI   C6A 7228  19.861   9.173   7.802 -0.1276 -0.0514  0.1918
  452loPI   C1B 7229  18.059   9.116   8.806  0.0693 -0.1065 -0.0398
  452loPI   C2B 7230  17.929   8.983   8.343  0.1817 -0.0794  0.1058
  452loPI   C3B 7231  18.005   8.771   7.915 -0.0305  0.0736 -0.1776
  452loPI   C4B 7232  18.073   8.548   7.542  0.0503 -0.0561  0.2307
  453loPI    C1 7233   8.526   2.868  10.642 -0.2151  0.0232  0.1874
  453loPI    C2 7234   8.517   2.471  10.687 -0.3193  0.0265  0.1987
  453loPI    C3 7235   8.659   2.702  10.981 -0.0316 -0.0168  0.0969
  453loPI   PO4 7236   8.612   2.963  10.335 -0.2385  0.1932  0.1604
  453loPI   GL1 7237   8.722   3.043   9.900  0.0154 -0.1688 -0.0073
  453loPI   GL2 7238   8.968   2.803   9.911 -0.5159 -0.4957 -0.0819
  453loPI   C1A 7239   8.535   3.283   9.538  0.0526 -0.0681  0.6065
  453loPI   C2A 7240   8.604   3.204   9.082  0.2114 -0.2438 -0.0116
  453loPI   C3A 7241   8.686   3.147   8.656  0.1171  0.1369 -0.3946
  453loPI   C4A 7242   8.571   2.844   8.533 -0.1395  0.0500 -0.0560
  453loPI   C5A 7243   8.619   2.806   8.138  0.1866 -0.1241  0.0079
  453loPI   C6A 7244   8.449   2.639   7.697 -0.2162  0.2121 -0.0202
  453loPI   C1B 7245   9.002   3.028   9.460  0.4379 -0.0507 -0.1174
  453loPI   C2B 7246   9.005   2.917   8.944  0.3189  0.1495 -0.0521
  453loPI   C3B 7247   9.063   2.900   8.460 -0.0193  0.0167 -0.0990
  453loPI   C4B 7248   9.127   3.052   8.045  0.0462 -0.1351  0.2205
  454loPI    C1 7249   2.628   4.921  10.320  0.0430  0.2353  0.1851
  454loPI    C2 7250   2.568   4.719  10.660 -0.1534  0.1632  0.1092
  454loPI    C3 7251   2.663   4.522  10.325 -0.0695  0.2237  0.0972
  454loPI   PO4 7252   2.432   5.029  10.254 -0.0047  0.0624 -0.2961
  454loPI   GL1 7253   2.650   5.241   9.958 -0.2756  0.0793 -0.0388
  454loPI   GL2 7254   2.421   5.194   9.761 -0.2150 -0.1174 -0.0304
  454loPI   C1A 7255   2.874   4.901   9.676  0.4251 -0.1989 -0.0656
  454loPI   C2A 7256   3.096   4.912   9.343  0.0418 -0.1106  0.2896
  454loPI   C3A 7257   3.165   4.819   8.918 -0.2200  0.0006 -0.1016
  454loPI   C4A 7258   3.121   4.885   8.436  0.0466 -0.1913  0.0622
  454loPI   C5A 7259   2.908   4.996   8.079  0.1620  0.0353  0.3630
  454loPI   C6A 7260   2.408   5.005   7.977 -0.0478  0.1038 -0.1317
  454loPI   C1B 7261   2.216   5.104   9.389 -0.2196 -0.1117 -0.1513
  454loPI   C2B 7262   2.126   4.942   8.984  0.1797  0.0384  0.1377
  454loPI   C3B 7263   2.282   4.571   8.791  0.1740 -0.1974  0.0615
  454loPI   C4B 7264   2.296   4.254   8.966  0.2135  0.1937  0.0744
  455loPI    C1 7265  11.660   8.433   9.845 -0.1461 -0.2421 -0.0707
  455loPI    C2 7266  11.939   8.355  10.121  0.1717  0.0781 -0.2927
  455loPI    C3 7267  11.554   8.277  10.198  0.2588  0.1220  0.2214
  455loPI   PO4 7268  11.862   8.451   9.654 -0.3124  0.0557 -0.1227
  455loPI   GL1 7269  11.970   8.355   9.439 -0.2275 -0.0106  0.3251
  455loPI   GL2 7270  11.853   8.583   9.194 -0.3061  0.1708  0.1334
  455loPI   C1A 7271  11.948   8.066   9.199 -0.1211 -0.2266 -0.0594
  455loPI   C2A 7272  11.804   8.013   8.772 -0.0860 -0.0319  0.3451
  455loPI   C3A 7273  11.801   8.014   8.327  0.0228  0.3418 -0.1787
  455loPI   C4A 7274  11.676   8.180   7.966 -0.1865 -0.1106 -0.1643
  455loPI   C5A 7275  11.641   8.382   7.491  0.1741  0.3615 -0.1178
  455loPI   C6A 7276  11.704   8.711   7.149  0.1485  0.2070 -0.1263
  455loPI   C1B 7277  11.905   8.495   8.842 -0.3598 -0.1442  0.0601
  455loPI   C2B 7278  11.921   8.509   8.421  0.1675 -0.1591  0.3938
  455loPI   C3B 7279  11.909   8.613   7.993  0.1388  0.2377 -0.0797
  455loPI   C4B 7280  12.035   8.600   7.474 -0.2375 -0.0752 -0.4288
  456loPI    C1 7281  16.359  12.994  10.313  0.4023  0.2475 -0.1985
  456loPI    C2 7282  16.290  13.382  10.242 -0.2415  0.1410 -0.2146
  456loPI    C3 7283  16.018  13.163  10.438  0.0044 -0.3608 -0.4155
  456loPI   PO4 7284  16.605  13.008  10.393  0.0993 -0.0590  0.3175
  456loPI   GL1 7285  16.815  13.140   9.993 -0.3045  0.0177 -0.0390
  456loPI   GL2 7286  16.661  13.160   9.799 -0.2823 -0.2500 -0.1115
  456loPI   C1A 7287  17.223  13.123   9.779 -0.2116 -0.1838  0.0188
  456loPI   C2A 7288  17.464  13.123   9.441  0.0555 -0.2824 -0.2780
  456loPI   C3A 7289  17.690  13.032   9.060 -0.2372 -0.0439  0.2528
  456loPI   C4A 7290  17.561  12.802   8.687  0.0143 -0.3802  0.2838
  456loPI   C5A 7291  17.484  12.689   8.330 -0.1954 -0.0561  0.0842
  456loPI   C6A 7292  17.247  12.774   7.978 -0.2119  0.1212  0.1578
  456loPI   C1B 7293  16.435  13.089   9.408  0.2991 -0.3305 -0.0774
  456loPI   C2B 7294  16.290  13.086   8.937  0.1439 -0.3646  0.2542
  456loPI   C3B 7295  16.292  13.338   8.622 -0.1866  0.0894 -0.2285
  456loPI   C4B 7296  16.066  13.475   8.346 -0.1070  0.3433 -0.0416
  457loPI    C1 7297  15.093   3.679  10.047  0.0839 -0.1784  0.1700
  457loPI    C2 7298  15.288   3.991   9.890 -0.1688 -0.0294  0.1468
  457loPI    C3 7299  15.292   3.931  10.285 -0.1782  0.0445  0.1582
  457loPI   PO4 7300  14.881   3.721   9.791 -0.4104  0.0449 -0.1081
  457loPI   GL1 7301  14.512   3.651   9.425 -0.1682 -0.0141  0.0233
  457loPI   GL2 7302  14.637   3.348   9.159  0.3571  0.1520  0.1269
  457loPI   C1A 7303  14.214   3.630   9.188 -0.1340  0.3212 -0.2897
  457loPI   C2A 7304  14.030   3.480   8.796  0.1099 -0.0747 -0.1068
  457loPI   C3A 7305  13.965   3.440   8.421  0.3389 -0.1971  0.1751
  457loPI   C4A 7306  13.684   3.603   8.059  0.0115  0.1583 -0.3330
  457loPI   C5A 7307  13.778   3.579   7.607  0.3042 -0.2456 -0.0341
  457loPI   C6A 7308  13.696   3.405   7.176 -0.0685 -0.2803  0.3995
  457loPI   C1B 7309  14.442   3.254   8.802  0.1616  0.2493 -0.1132
  457loPI   C2B 7310  14.413   3.201   8.351 -0.0218 -0.2923  0.1457
  457loPI   C3B 7311  14.196   3.420   7.933  0.2960  0.0838  0.0065
  457loPI   C4B 7312  14.204   3.468   7.446 -0.0562 -0.1544  0.1683
  458loPI    C1 7313  16.263   5.738  10.322 -0.1962 -0.1018  0.3285
  458loPI    C2 7314  16.289   5.403  10.540 -0.0245 -0.0089  0.4532
  458loPI    C3 7315  16.210   5.753  10.718 -0.3342 -0.0008  0.3069
  458loPI   PO4 7316  16.300   5.555   9.982 -0.0547 -0.4040  0.1824
  458loPI   GL1 7317  16.263   5.687   9.520  0.0682 -0.0602 -0.0307
  458loPI   GL2 7318  15.956   5.475   9.533 -0.2489  0.1007  0.2271
  458loPI   C1A 7319  16.482   5.521   9.161 -0.3645 -0.0869 -0.0368
  458loPI   C2A 7320  16.536   5.529   8.756 -0.1575 -0.0090 -0.2053
  458loPI   C3A 7321  16.851   5.590   8.509 -0.1989 -0.2284 -0.0092
  458loPI   C4A 7322  17.123   5.625   8.177  0.1479  0.1389  0.1224
  458loPI   C5A 7323  17.279   5.724   7.794 -0.0781  0.2069  0.1430
  458loPI   C6A 7324  17.228   6.061   7.421 -0.1068 -0.1370  0.0953
  458loPI   C1B 7325  16.054   5.234   9.139 -0.2924  0.1141  0.2115
  458loPI   C2B 7326  16.144   5.219   8.713  0.1367 -0.1988 -0.2175
  458loPI   C3B 7327  16.293   5.256   8.318  0.4993  0.5334  0.1693
  458loPI   C4B 7328  16.400   4.966   7.993 -0.1542  0.0088 -0.2372
  459loPI    C1 7329  12.510   7.712   9.785 -0.1639  0.2289  0.1524
  459loPI    C2 7330  12.276   7.490  10.023 -0.2329  0.1002 -0.0327
  459loPI    C3 7331  12.595   7.679  10.175 -0.2905  0.0403  0.1655
  459loPI   PO4 7332  12.513   7.656   9.504 -0.3998  0.2578 -0.1426
  459loPI   GL1 7333  12.334   7.616   9.186 -0.0056 -0.1671  0.1126
  459loPI   GL2 7334  12.050   7.547   8.970  0.2236 -0.0924 -0.1321
  459loPI   C1A 7335  12.619   7.568   8.828 -0.0573 -0.2774  0.0475
  459loPI   C2A 7336  12.591   7.581   8.335 -0.3543  0.0489 -0.0880
  459loPI   C3A 7337  12.478   7.504   7.860 -0.0586  0.3246  0.5062
  459loPI   C4A 7338  12.322   7.773   7.490 -0.1147 -0.2478  0.0582
  459loPI   C5A 7339  12.096   8.016   7.136 -0.0654  0.1490  0.1484
  459loPI   C6A 7340  11.647   8.205   7.028  0.2539 -0.0069  0.6185
  459loPI   C1B 7341  11.757   7.444   8.820 -0.0906  0.2178 -0.2718
  459loPI   C2B 7342  11.681   7.213   8.350  0.3523  0.1948  0.2170
  459loPI   C3B 7343  11.805   7.110   7.898  0.0118  0.0936 -0.1101
  459loPI   C4B 7344  12.052   7.357   7.482 -0.1359  0.0162  0.1417
  460loPI    C1 7345   5.662   0.490  10.131  0.2138 -0.1971  0.2344
  460loPI    C2 7346   6.050   0.560  10.197  0.2214 -0.0164  0.0121
  460loPI    C3 7347   5.773   0.725  10.434  0.2783 -0.1351  0.1630
  460loPI   PO4 7348   5.650   0.273  10.044 -0.3661 -0.0056 -0.3125
  460loPI   GL1 7349   5.681   0.031   9.663  0.2794 -0.0741 -0.2259
  460loPI   GL2 7350   5.400  -0.199   9.782  0.2222 -0.1695 -0.3493
  460loPI   C1A 7351   5.767   0.228   9.359 -0.4851  0.0045  0.3261
  460loPI   C2A 7352   5.748   0.402   8.867 -0.0252  0.4750  0.1428
  460loPI   C3A 7353   5.763   0.447   8.432 -0.2388  0.2584 -0.0316
  460loPI   C4A 7354   5.756   0.463   8.017  0.1054  0.4452  0.0460
  460loPI   C5A 7355   5.872   0.288   7.636 -0.0686  0.0033 -0.0790
  460loPI   C6A 7356   6.068   0.242   7.315  0.0506  0.0025  0.1711
  460loPI   C1B 7357   5.300  -0.340   9.459 -0.3696 -0.0226  0.0631
  460loPI   C2B 7358   5.241  -0.557   9.122  0.1273  0.3023 -0.1507
  460loPI   C3B 7359   5.490  -0.678   8.861  0.3779  0.1833  0.1353
  460loPI   C4B 7360   5.711  -0.532   8.498 -0.0419 -0.0267  0.3911
  461loPI    C1 7361   9.511   6.736  10.226  0.1141 -0.0284 -0.1070
  461loPI    C2 7362   9.345   6.373  10.202 -0.0229  0.0333 -0.0979
  461loPI    C3 7363   9.267   6.609  10.516 -0.0506  0.1277 -0.1752
  461loPI   PO4 7364   9.498   6.957  10.071  0.2603 -0.2076 -0.3884
  461loPI   GL1 7365   9.501   7.024   9.656  0.2439  0.1687  0.0294
  461loPI   GL2 7366   9.743   7.263   9.463  0.1733 -0.2607  0.0870
  461loPI   C1A 7367   9.211   7.029   9.277 -0.1163 -0.1859  0.0282
  461loPI   C2A 7368   9.088   7.376   9.032  0.2779  0.1439  0.2414
  461loPI   C3A 7369   9.027   7.279   8.625 -0.3966  0.1152 -0.0814
  461loPI   C4A 7370   9.254   7.172   8.294  0.1518 -0.1259 -0.1124
  461loPI   C5A 7371   9.580   7.331   7.884  0.0392 -0.2822  0.0287
  461loPI   C6A 7372   9.989   7.380   8.023 -0.0306 -0.0775  0.1250
  461loPI   C1B 7373   9.860   7.642   9.209 -0.0335 -0.1604  0.1490
  461loPI   C2B 7374   9.726   7.966   8.955 -0.0592 -0.3189  0.0535
  461loPI   C3B 7375   9.545   8.176   8.605  0.1724 -0.0344  0.2314
  461loPI   C4B 7376   9.318   8.242   8.202  0.3216  0.0375  0.2245
  462loPI    C1 7377  16.156  14.096   9.978  0.0380  0.0545  0.0436
  462loPI    C2 7378  16.166  14.056  10.375 -0.0260 -0.1309  0.0273
  462loPI    C3 7379  16.423  13.851  10.147 -0.0640 -0.1117 -0.0328
  462loPI   PO4 7380  15.836  14.161   9.975 -0.1270  0.4657  0.0217
  462loPI   GL1 7381  15.695  14.358   9.699  0.2582  0.1378  0.2812
  462loPI   GL2 7382  15.844  14.605   9.752  0.0445 -0.3633  0.1945
  462loPI   C1A 7383  15.709  14.458   9.284 -0.3630  0.0914  0.0990
  462loPI   C2A 7384  15.569  14.559   8.913 -0.3271 -0.3614 -0.1085
  462loPI   C3A 7385  15.222  14.321   8.703  0.1052 -0.0406  0.4591
  462loPI   C4A 7386  15.183  14.141   8.201  0.1588 -0.2169  0.1182
  462loPI   C5A 7387  15.343  14.306   7.856 -0.2369 -0.0077  0.0054
  462loPI   C6A 7388  15.808  14.411   7.588  0.0095  0.0702  0.0825
  462loPI   C1B 7389  16.213  14.886   9.537 -0.3275 -0.4761  0.1488
  462loPI   C2B 7390  16.410  14.797   9.137 -0.1152  0.1504  0.1210
  462loPI   C3B 7391  16.421  14.868   8.606 -0.5621 -0.0264  0.2422
  462loPI   C4B 7392  16.530  14.798   8.203 -0.0249 -0.3120  0.1178
  463loPI    C1 7393   3.868  15.707  10.169 -0.0971  0.0944 -0.1293
  463loPI    C2 7394   3.557  15.818  10.394  0.1064  0.1143  0.1487
  463loPI    C3 7395   3.858  15.612  10.558  0.2641  0.1388 -0.1050
  463loPI   PO4 7396   3.769  15.698   9.894 -0.1827  0.0600 -0.0633
  463loPI   GL1 7397   3.876  15.869   9.520  0.1636  0.1771  0.0051
  463loPI   GL2 7398   3.640  16.053   9.509 -0.3345  0.0725 -0.1094
  463loPI   C1A 7399   3.972  15.703   9.117  0.0707 -0.1399  0.0543
  463loPI   C2A 7400   4.148  15.889   8.673 -0.1363  0.0052 -0.1911
  463loPI   C3A 7401   4.325  16.012   8.189 -0.4382 -0.0622 -0.0797
  463loPI   C4A 7402   4.404  16.169   7.852 -0.2692 -0.2461  0.1503
  463loPI   C5A 7403   4.703  16.518   7.723 -0.2752  0.0848  0.1009
  463loPI   C6A 7404   4.991  16.854   7.548 -0.1428  0.3624 -0.1955
  463loPI   C1B 7405   3.571  16.008   9.092  0.1313 -0.0783 -0.2478
  463loPI   C2B 7406   3.640  16.083   8.675 -0.0762  0.1930 -0.2184
  463loPI   C3B 7407   3.702  16.174   8.258  0.1886 -0.1986  0.0187
  463loPI   C4B 7408   3.768  16.537   8.083 -0.0861  0.1121  0.1985
  464loPI    C1 7409  12.925  15.382  10.196 -0.0362  0.0375  0.2840
  464loPI    C2 7410  13.118  15.322  10.541  0.1754  0.2818  0.2108
  464loPI    C3 7411  12.905  15.656  10.487 -0.0131  0.1569  0.1741
  464loPI   PO4 7412  13.077  15.387  10.052  0.2473  0.0326  0.3395
  464loPI   GL1 7413  13.319  15.518   9.734 -0.0114  0.0171  0.0344
  464loPI   GL2 7414  13.196  15.853   9.699 -0.1348 -0.0340  0.2586
  464loPI   C1A 7415  13.306  15.398   9.419 -0.1433 -0.2171 -0.3620
  464loPI   C2A 7416  13.348  15.355   8.936  0.0526  0.0860 -0.2429
  464loPI   C3A 7417  13.529  15.155   8.528 -0.1138 -0.1610 -0.1723
  464loPI   C4A 7418  13.554  15.053   8.107 -0.0611  0.1895  0.2958
  464loPI   C5A 7419  13.265  15.038   7.693 -0.2995  0.2828  0.1690
  464loPI   C6A 7420  12.944  15.120   7.576  0.1288  0.2450  0.1371
  464loPI   C1B 7421  12.921  15.722   9.290 -0.0498  0.1886 -0.2299
  464loPI   C2B 7422  12.966  15.611   8.778 -0.2352  0.0782  0.1531
  464loPI   C3B 7423  13.033  15.407   8.422  0.1636  0.2755  0.0565
  464loPI   C4B 7424  13.183  15.361   7.992  0.0645 -0.0683 -0.1482
  465loPI    C1 7425  12.264  17.047  10.013 -0.0582  0.1804  0.0563
  465loPI    C2 7426  12.323  16.786  10.311 -0.1518 -0.0634 -0.1351
  465loPI    C3 7427  12.148  17.138  10.385  0.0733 -0.0069  0.1451
  465loPI   PO4 7428  12.136  16.888   9.850 -0.0643 -0.1479  0.0325
  465loPI   GL1 7429  11.872  16.812   9.437 -0.2670  0.0448 -0.0910
  465loPI   GL2 7430  12.228  16.781   9.376 -0.1321  0.2389 -0.1134
  465loPI   C1A 7431  11.867  16.836   9.040 -0.1875  0.2149  0.1834
  465loPI   C2A 7432  11.815  16.929   8.675 -0.0273 -0.3605 -0.2511
  465loPI   C3A 7433  11.753  16.987   8.231 -0.0196 -0.1447  0.1049
  465loPI   C4A 7434  11.786  16.848   7.866 -0.0487  0.0019  0.2909
  465loPI   C5A 7435  12.092  16.952   7.541  0.1623  0.1047 -0.1651
  465loPI   C6A 7436  12.309  17.119   7.185 -0.3876 -0.1950 -0.0112
  465loPI   C1B 7437  12.476  16.683   8.941  0.0414 -0.0041  0.2835
  465loPI   C2B 7438  12.920  16.572   8.890 -0.1291  0.2395 -0.2097
  465loPI   C3B 7439  13.130  16.630   8.495  0.0606 -0.0972 -0.0044
  465loPI   C4B 7440  13.069  16.803   8.123  0.0848  0.0307 -0.0126
  466loPI    C1 7441   2.720  11.231  10.351  0.3059 -0.1629 -0.0080
  466loPI    C2 7442   3.010  11.449  10.519  0.1132  0.0355  0.0719
  466loPI    C3 7443   2.628  11.567  10.548  0.0085 -0.2990  0.0925
  466loPI   PO4 7444   2.940  11.168  10.123 -0.1776 -0.0844  0.1266
  466loPI   GL1 7445   2.904  11.220   9.741  0.1568  0.2172 -0.0549
  466loPI   GL2 7446   3.014  10.927   9.669 -0.0013 -0.1996  0.1020
  466loPI   C1A 7447   3.072  11.342   9.342 -0.1926  0.2216 -0.1626
  466loPI   C2A 7448   3.034  11.269   8.847 -0.0273  0.1873 -0.0018
  466loPI   C3A 7449   3.011  11.016   8.435 -0.2545  0.2000  0.0570
  466loPI   C4A 7450   3.134  11.110   8.000 -0.2304 -0.0760  0.1326
  466loPI   C5A 7451   3.294  10.836   7.763 -0.3126 -0.1062 -0.0135
  466loPI   C6A 7452   3.279  10.605   7.420  0.1338 -0.0928  0.0636
  466loPI   C1B 7453   3.048  10.830   9.190  0.3902  0.1691  0.3832
  466loPI   C2B 7454   3.213  10.632   8.759  0.2897  0.0318  0.0959
  466loPI   C3B 7455   3.091  10.348   8.468  0.0755  0.1573 -0.0820
  466loPI   C4B 7456   3.295  10.245   8.060  0.0945 -0.1091 -0.2722
  467loPI    C1 7457   5.428  18.324  10.204 -0.2782 -0.2635 -0.0372
  467loPI    C2 7458   5.786  18.157  10.265 -0.3025 -0.2994  0.0078
  467loPI    C3 7459   5.619  18.383  10.550  0.0208  0.3451 -0.2911
  467loPI   PO4 7460   5.235  18.086  10.138  0.2041 -0.1665  0.0625
  467loPI   GL1 7461   5.004  18.116   9.721  0.1624 -0.1231 -0.0151
  467loPI   GL2 7462   5.024  18.349   9.761 -0.0754 -0.0328 -0.1225
  467loPI   C1A 7463   4.954  18.084   9.336  0.1309  0.3304 -0.2804
  467loPI   C2A 7464   4.980  18.012   8.937 -0.0648  0.1859 -0.2219
  467loPI   C3A 7465   5.010  17.982   8.511 -0.0295 -0.1150 -0.0092
  467loPI   C4A 7466   4.782  18.031   8.130 -0.0813 -0.0079  0.1197
  467loPI   C5A 7467   4.672  17.663   8.029  0.4911  0.0117 -0.0595
  467loPI   C6A 7468   4.883  17.279   8.216  0.0306  0.0864 -0.0922
  467loPI   C1B 7469   4.821  18.588   9.414 -0.3256 -0.3278  0.1841
  467loPI   C2B 7470   4.689  18.788   9.035 -0.0753  0.3018  0.0636
  467loPI   C3B 7471   4.857  18.609   8.686 -0.2338 -0.0189  0.1488
  467loPI   C4B 7472   5.170  18.467   8.505 -0.2327 -0.0687  0.1627
  468loPI    C1 7473   2.248   7.829   9.922  0.0044 -0.0874 -0.1357
  468loPI    C2 7474   2.301   7.589  10.238 -0.0680 -0.0691 -0.1094
  468loPI    C3 7475   2.042   7.894  10.259 -0.1034 -0.0923 -0.2000
  468loPI   PO4 7476   2.142   7.648   9.631 -0.0966 -0.1434 -0.0865
  468loPI   GL1 7477   2.080   7.451   9.289 -0.1505  0.0911  0.0392
  468loPI   GL2 7478   2.431   7.307   9.397  0.0406 -0.0484 -0.2644
  468loPI   C1A 7479   1.931   7.302   8.924  0.0502  0.1540 -0.2033
  468loPI   C2A 7480   1.837   7.455   8.457  0.0679 -0.1295 -0.3173
  468loPI   C3A 7481   1.606   7.496   8.017  0.1141 -0.3309 -0.2021
  468loPI   C4A 7482   1.594   7.417   7.568 -0.1460 -0.0821  0.1898
  468loPI   C5A 7483   1.623   7.622   7.123  0.0589 -0.0213  0.0550
  468loPI   C6A 7484   1.794   7.627   6.752  0.2058  0.1006  0.1078
  468loPI   C1B 7485   2.538   7.492   9.033  0.0021  0.3138  0.0700
  468loPI   C2B 7486   2.400   7.408   8.579  0.1570  0.0556  0.0438
  468loPI   C3B 7487   2.203   7.334   8.142  0.1010 -0.0117 -0.1029
  468loPI   C4B 7488   2.105   7.605   7.850  0.2368 -0.0152  0.1620
  469loPI    C1 7489  12.155   5.636  10.240  0.0445 -0.3303  0.1340
  469loPI    C2 7490  12.465   5.736  10.472  0.0198 -0.1612  0.0953
  469loPI    C3 7491  12.092   5.806  10.597  0.0053 -0.1104  0.0242
  469loPI   PO4 7492  12.336   5.560  10.034 -0.2947 -0.1865  0.1784
  469loPI   GL1 7493  12.543   5.583   9.530  0.3085 -0.1805 -0.3057
  469loPI   GL2 7494  12.252   5.461   9.515  0.1322 -0.0006 -0.0778
  469loPI   C1A 7495  12.446   5.650   9.107  0.1312  0.0036 -0.0684
  469loPI   C2A 7496  12.358   5.596   8.587 -0.2000  0.0003 -0.1025
  469loPI   C3A 7497  12.364   5.682   8.109 -0.2885  0.1510 -0.0422
  469loPI   C4A 7498  12.446   5.673   7.736  0.2942 -0.0390 -0.0410
  469loPI   C5A 7499  12.341   5.371   7.345 -0.1111 -0.1723  0.0107
  469loPI   C6A 7500  12.273   5.086   7.034  0.0142 -0.0646 -0.2376
  469loPI   C1B 7501  12.158   5.121   9.243  0.2107  0.1519  0.0672
  469loPI   C2B 7502  12.290   5.118   8.857 -0.1599 -0.1105 -0.1106
  469loPI   C3B 7503  12.443   5.029   8.439 -0.2595 -0.1635  0.0600
  469loPI   C4B 7504  12.601   5.125   7.958 -0.0710 -0.3803 -0.1353
  470loPI    C1 7505  12.398  18.405  10.076 -0.1451 -0.2001  0.3286
  470loPI    C2 7506  12.586  18.732  10.206 -0.0747 -0.1040 -0.0051
  470loPI    C3 7507  12.641  18.383  10.392  0.2996 -0.0423  0.0084
  470loPI   PO4 7508  12.456  18.421   9.826 -0.0791 -0.3896  0.1793
  470loPI   GL1 7509  12.389  18.277   9.439 -0.2740 -0.1696 -0.0774
  470loPI   GL2 7510  12.814  18.213   9.466 -0.0260  0.0649  0.3021
  470loPI   C1A 7511  12.132  18.366   9.122  0.2433  0.1039  0.0257
  470loPI   C2A 7512  12.055  18.375   8.714  0.2084 -0.0797  0.4569
  470loPI   C3A 7513  12.061  18.238   8.429  0.1043  0.1530  0.1190
  470loPI   C4A 7514  12.333  18.183   8.139  0.0058 -0.2556 -0.1663
  470loPI   C5A 7515  12.555  18.289   7.848  0.1714  0.0633 -0.2539
  470loPI   C6A 7516  12.929  18.422   7.703 -0.0422 -0.0880  0.0149
  470loPI   C1B 7517  12.573  17.951   8.965 -0.1085 -0.0822 -0.1419
  470loPI   C2B 7518  12.593  18.102   8.613  0.0462 -0.2186 -0.0037
  470loPI   C3B 7519  12.839  18.133   8.237  0.0565 -0.0806 -0.1446
  470loPI   C4B 7520  13.170  18.133   8.000 -0.0612  0.1524 -0.0155
  471loPI    C1 7521   5.233  14.611   9.997 -0.0129  0.2210 -0.1853
  471loPI    C2 7522   5.364  14.674  10.370  0.0018  0.1681 -0.1816
  471loPI    C3 7523   5.006  14.812  10.258  0.0611  0.3147 -0.1925
  471loPI   PO4 7524   5.285  14.301   9.930  0.1441 -0.0767  0.1414
  471loPI   GL1 7525   5.301  13.949   9.629  0.1664  0.1251  0.3310
  471loPI   GL2 7526   5.253  13.639   9.571  0.1310  0.1607  0.0930
  471loPI   C1A 7527   5.358  14.070   9.213  0.3239  0.0397  0.0693
  471loPI   C2A 7528   5.452  13.929   8.893 -0.5180  0.0991 -0.1198
  471loPI   C3A 7529   5.430  13.893   8.527  0.1177 -0.1478 -0.2135
  471loPI   C4A 7530   5.642  13.722   8.146 -0.2920 -0.2875 -0.0268
  471loPI   C5A 7531   5.473  13.901   7.813  0.0668 -0.0626  0.2048
  471loPI   C6A 7532   5.459  14.165   7.372 -0.1259 -0.0544 -0.1926
  471loPI   C1B 7533   5.124  13.609   9.139 -0.2051  0.3524 -0.0562
  471loPI   C2B 7534   5.175  13.471   8.653 -0.0050 -0.1532  0.0379
  471loPI   C3B 7535   5.168  13.530   8.150 -0.2788  0.1391 -0.0776
  471loPI   C4B 7536   4.973  13.642   7.768 -0.2537 -0.1338 -0.1786
  472loPI    C1 7537  12.048  12.237   9.863 -0.1245  0.2220  0.0410
  472loPI    C2 7538  12.225  12.594   9.903  0.1010  0.1255 -0.0749
  472loPI    C3 7539  12.152  12.370  10.226 -0.1516  0.3265  0.0111
  472loPI   PO4 7540  11.817  12.320   9.702 -0.1782  0.3142 -0.2323
  472loPI   GL1 7541  11.613  12.359   9.377  0.0346  0.1278 -0.0768
  472loPI   GL2 7542  11.552  12.649   9.269  0.4754  0.1916 -0.0205
  472loPI   C1A 7543  11.364  12.195   8.999 -0.3086 -0.1212  0.0119
  472loPI   C2A 7544  11.271  12.281   8.631  0.1165 -0.0372 -0.0078
  472loPI   C3A 7545  11.245  12.332   8.230  0.0110  0.1628  0.3803
  472loPI   C4A 7546  11.115  12.456   7.787 -0.1851 -0.3672 -0.3023
  472loPI   C5A 7547  11.293  12.289   7.360 -0.4096 -0.0143  0.2336
  472loPI   C6A 7548  11.285  12.451   6.966  0.3260  0.4322 -0.0577
  472loPI   C1B 7549  11.797  12.602   8.944  0.1224 -0.1126 -0.1226
  472loPI   C2B 7550  11.703  12.594   8.557 -0.3352  0.1786  0.0242
  472loPI   C3B 7551  11.641  12.614   8.088 -0.1319 -0.0929 -0.1801
  472loPI   C4B 7552  11.689  13.009   7.916 -0.0549  0.1664  0.0342
  473loPI    C1 7553  10.761  15.290   9.656 -0.0301 -0.0433 -0.0080
  473loPI    C2 7554  10.454  15.191   9.893 -0.0246 -0.0150  0.0109
  473loPI    C3 7555  10.829  15.107  10.005 -0.0238 -0.0260 -0.0001
  473loPI   PO4 7556  10.656  15.349   9.449 -0.2459  0.0952  0.0738
  473loPI   GL1 7557  10.559  15.228   9.087  0.1482 -0.0477  0.1047
  473loPI   GL2 7558  10.493  15.610   9.012 -0.2510 -0.3862 -0.0844
  473loPI   C1A 7559  10.811  15.078   8.913 -0.0054 -0.0816 -0.1422
  473loPI   C2A 7560  10.825  14.969   8.510 -0.1444  0.0971 -0.2237
  473loPI   C3A 7561  10.664  14.928   8.033 -0.3310 -0.1635  0.1510
  473loPI   C4A 7562  10.660  15.097   7.579  0.0104 -0.0928 -0.1113
  473loPI   C5A 7563  10.898  15.355   7.328 -0.3487 -0.1566 -0.2181
  473loPI   C6A 7564  11.108  15.791   7.115 -0.1016  0.0887 -0.0495
  473loPI   C1B 7565  10.435  15.746   8.646  0.4257  0.1355  0.1314
  473loPI   C2B 7566  10.478  15.899   8.183  0.1989 -0.1036  0.0010
  473loPI   C3B 7567  10.467  16.032   7.656 -0.0163 -0.1795  0.3032
  473loPI   C4B 7568  10.631  16.276   7.424 -0.0207 -0.1494  0.0624
  474loPI    C1 7569   1.548  11.670   9.921  0.2797  0.1365 -0.0591
  474loPI    C2 7570   1.458  12.060   9.929  0.0816  0.0940 -0.1524
  474loPI    C3 7571   1.549  11.869  10.268  0.0647  0.1951 -0.0905
  474loPI   PO4 7572   1.717  11.687   9.760 -0.0267 -0.0849 -0.0770
  474loPI   GL1 7573   1.550  11.851   9.318 -0.1757 -0.0659  0.0247
  474loPI   GL2 7574   1.407  12.121   9.408 -0.1594  0.3545 -0.0912
  474loPI   C1A 7575   1.658  11.974   8.889  0.0843  0.3345 -0.1431
  474loPI   C2A 7576   1.525  11.979   8.471  0.0785 -0.0260 -0.1496
  474loPI   C3A 7577   1.344  11.919   8.087  0.1867 -0.0155 -0.1206
  474loPI   C4A 7578   1.315  11.833   7.713 -0.2059 -0.1514 -0.1566
  474loPI   C5A 7579   1.517  11.770   7.400 -0.1504  0.1233  0.0705
  474loPI   C6A 7580   1.885  11.722   7.083  0.0013  0.2530  0.0034
  474loPI   C1B 7581   1.657  12.439   9.233 -0.0731  0.1232 -0.0831
  474loPI   C2B 7582   1.639  12.654   8.818  0.5232 -0.0672 -0.0119
  474loPI   C3B 7583   1.811  12.684   8.385 -0.1778  0.1655  0.3803
  474loPI   C4B 7584   1.749  12.725   7.856 -0.0541 -0.2979 -0.2860
  475loPI    C1 7585   5.842  14.613   9.943  0.0355 -0.1276 -0.4003
  475loPI    C2 7586   6.107  14.435  10.184 -0.1910  0.1000  0.0303
  475loPI    C3 7587   5.726  14.316  10.185 -0.1798  0.0518 -0.2798
  475loPI   PO4 7588   6.039  14.743   9.793  0.1140 -0.0026 -0.1967
  475loPI   GL1 7589   5.975  14.983   9.416 -0.0083 -0.0090  0.4116
  475loPI   GL2 7590   5.896  15.287   9.614 -0.1772  0.1312 -0.1864
  475loPI   C1A 7591   5.842  14.779   9.002  0.3420 -0.3010 -0.1898
  475loPI   C2A 7592   5.726  14.502   9.050 -0.0647 -0.2040  0.1280
  475loPI   C3A 7593   5.716  14.369   8.667 -0.0084 -0.3261 -0.2030
  475loPI   C4A 7594   5.814  14.119   8.332 -0.0879  0.2588  0.1894
  475loPI   C5A 7595   5.922  14.182   7.914  0.0181 -0.0076 -0.1139
  475loPI   C6A 7596   6.236  14.353   7.558  0.2192  0.1003  0.1639
  475loPI   C1B 7597   5.735  15.290   9.109 -0.0866  0.1913 -0.0001
  475loPI   C2B 7598   5.527  15.387   8.687  0.0570 -0.0387 -0.1048
  475loPI   C3B 7599   5.330  15.510   8.261 -0.0387 -0.0141  0.1667
  475loPI   C4B 7600   5.295  15.748   7.836  0.0188 -0.2714 -0.1108
  476loPI    C1 7601  14.804   4.988  10.309  0.3294 -0.0011 -0.0033
  476loPI    C2 7602  14.516   5.261  10.357  0.1317 -0.2124  0.0254
  476loPI    C3 7603  14.799   5.219  10.636  0.0056 -0.2228  0.1535
  476loPI   PO4 7604  14.789   5.000  10.062  0.0931  0.0188  0.3180
  476loPI   GL1 7605  14.901   4.813   9.601  0.0369 -0.1636 -0.0305
  476loPI   GL2 7606  14.602   4.894   9.539 -0.1305 -0.0930  0.3574
  476loPI   C1A 7607  14.905   4.632   9.206  0.2656  0.2073 -0.1717
  476loPI   C2A 7608  14.874   4.605   8.782  0.0377 -0.1006 -0.0764
  476loPI   C3A 7609  14.944   4.642   8.355 -0.1572  0.1143 -0.3272
  476loPI   C4A 7610  15.031   4.380   8.185 -0.1430 -0.1591  0.1175
  476loPI   C5A 7611  15.016   3.943   8.217  0.2268 -0.1902  0.0551
  476loPI   C6A 7612  15.099   3.649   7.805 -0.0149 -0.1390 -0.0352
  476loPI   C1B 7613  14.578   4.968   9.115  0.0919  0.0271  0.2700
  476loPI   C2B 7614  14.587   5.029   8.701  0.0047 -0.0442 -0.1248
  476loPI   C3B 7615  14.469   5.101   8.335 -0.0475 -0.1086  0.0637
  476loPI   C4B 7616  14.820   5.043   8.063 -0.0423  0.1889  0.0937
  477loPI    C1 7617   5.211  16.985  10.136 -0.0209 -0.0677 -0.0656
  477loPI    C2 7618   5.259  17.120  10.509 -0.1308  0.0196 -0.0823
  477loPI    C3 7619   4.950  16.882  10.421 -0.2236  0.1687 -0.1627
  477loPI   PO4 7620   5.350  17.234  10.023  0.1101  0.1408  0.0101
  477loPI   GL1 7621   5.345  17.512   9.710  0.0216  0.1766  0.2880
  477loPI   GL2 7622   5.051  17.634   9.761 -0.2244 -0.2205 -0.1426
  477loPI   C1A 7623   5.176  17.557   9.227 -0.0527 -0.2704  0.3937
  477loPI   C2A 7624   5.268  17.528   8.768 -0.4109  0.1476 -0.2461
  477loPI   C3A 7625   5.315  17.561   8.296  0.0101 -0.1406  0.0662
  477loPI   C4A 7626   5.208  17.794   7.971 -0.0583  0.1652  0.0670
  477loPI   C5A 7627   5.203  18.207   7.874  0.1470  0.1987  0.1819
  477loPI   C6A 7628   5.461  18.554   8.042 -0.2468 -0.0045 -0.1558
  477loPI   C1B 7629   4.636  17.713   9.519  0.1488 -0.1748 -0.1066
  477loPI   C2B 7630   4.561  17.760   9.061 -0.1246  0.0753 -0.0869
  477loPI   C3B 7631   4.685  17.632   8.597  0.2177 -0.3236  0.1344
  477loPI   C4B 7632   4.351  17.605   8.417  0.1512 -0.3010  0.0642
  478loPI    C1 7633  15.080   8.394   9.994  0.1909 -0.0530  0.0701
  478loPI    C2 7634  15.093   8.296  10.381 -0.0555  0.0347  0.1025
  478loPI    C3 7635  15.116   8.680  10.272 -0.0387  0.0140  0.0331
  478loPI   PO4 7636  15.346   8.229   9.942  0.3341 -0.0412  0.4198
  478loPI   GL1 7637  15.259   8.241   9.414  0.0320  0.1218 -0.2774
  478loPI   GL2 7638  15.239   8.584   9.344 -0.2812 -0.0270 -0.1292
  478loPI   C1A 7639  14.897   8.257   9.194 -0.0581  0.1084 -0.2470
  478loPI   C2A 7640  14.752   8.258   8.772 -0.1676 -0.3952 -0.1199
  478loPI   C3A 7641  14.690   8.262   8.378 -0.1598  0.0581  0.0620
  478loPI   C4A 7642  14.658   8.420   7.803  0.1410  0.1237  0.1096
  478loPI   C5A 7643  14.342   8.607   7.506  0.1767  0.0769 -0.0549
  478loPI   C6A 7644  14.103   9.104   7.430  0.1948 -0.0881  0.2561
  478loPI   C1B 7645  15.184   8.688   8.932 -0.0908 -0.0398  0.1155
  478loPI   C2B 7646  15.036   8.954   8.488  0.4938  0.3642 -0.0826
  478loPI   C3B 7647  15.234   9.025   8.068  0.2136  0.2844 -0.2035
  478loPI   C4B 7648  15.384   9.043   7.681 -0.1511 -0.0109 -0.2281
  479loPI    C1 7649   6.064   2.720  10.480 -0.0440  0.1447 -0.1446
  479loPI    C2 7650   6.456   2.754  10.553 -0.0625  0.1009 -0.0216
  479loPI    C3 7651   6.220   2.563  10.813 -0.1492  0.0388 -0.1447
  479loPI   PO4 7652   6.114   2.562  10.158 -0.1719  0.0888 -0.0840
  479loPI   GL1 7653   6.076   2.674   9.719 -0.1468  0.0857  0.0724
  479loPI   GL2 7654   5.772   2.858   9.550  0.2325 -0.3364 -0.0672
  479loPI   C1A 7655   6.159   2.541   9.214  0.1173  0.1441  0.1145
  479loPI   C2A 7656   6.251   2.835   8.674  0.0408  0.2042 -0.3126
  479loPI   C3A 7657   6.159   2.740   8.274 -0.0486  0.0526  0.0617
  479loPI   C4A 7658   6.268   2.870   7.849 -0.0091  0.1162  0.0146
  479loPI   C5A 7659   6.566   3.029   7.560  0.2810 -0.1346  0.1046
  479loPI   C6A 7660   6.693   3.411   7.274 -0.3661 -0.2505  0.0063
  479loPI   C1B 7661   5.938   2.970   9.039  0.0584 -0.1179 -0.0544
  479loPI   C2B 7662   5.810   3.047   8.633 -0.1099 -0.1489 -0.1659
  479loPI   C3B 7663   5.566   3.014   8.319  0.0307  0.1851  0.1262
  479loPI   C4B 7664   5.240   2.871   8.062  0.0396 -0.0231  0.0457
  480loPI    C1 7665  14.102   9.521  10.190 -0.0003  0.0756 -0.2865
  480loPI    C2 7666  13.872   9.656   9.892 -0.0210  0.0692 -0.2734
  480loPI    C3 7667  13.845   9.820  10.255 -0.1461 -0.0624 -0.2221
  480loPI   PO4 7668  14.334   9.528  10.043 -0.0753  0.0449 -0.2476
  480loPI   GL1 7669  14.340   9.565   9.662  0.1534 -0.3992  0.3337
  480loPI   GL2 7670  14.154   9.853   9.508 -0.0095  0.1261  0.2317
  480loPI   C1A 7671  14.566   9.815   9.336  0.2024  0.1361 -0.3764
  480loPI   C2A 7672  14.726  10.116   9.067 -0.1108 -0.1288 -0.4580
  480loPI   C3A 7673  14.995  10.258   8.615 -0.1162  0.0703 -0.0437
  480loPI   C4A 7674  14.960  10.355   8.101 -0.0074  0.0881  0.0166
  480loPI   C5A 7675  14.873  10.621   7.822  0.2217  0.0581  0.2150
  480loPI   C6A 7676  14.799  10.715   7.404 -0.2742 -0.3432 -0.2353
  480loPI   C1B 7677  14.187  10.032   9.151  0.0240 -0.1340 -0.0893
  480loPI   C2B 7678  14.013   9.938   8.627 -0.1425 -0.0787 -0.1526
  480loPI   C3B 7679  13.890   9.957   8.231  0.0168  0.0549  0.0472
  480loPI   C4B 7680  13.884  10.030   7.775 -0.0694  0.1269  0.0965
  481loPI    C1 7681   9.912   3.665  10.140  0.0327  0.1530  0.1053
  481loPI    C2 7682   9.910   4.064  10.170 -0.3486  0.1847 -0.2477
  481loPI    C3 7683   9.647   3.846  10.379 -0.0872  0.1072  0.0080
  481loPI   PO4 7684   9.979   3.539   9.919  0.1049 -0.1225  0.3344
  481loPI   GL1 7685  10.000   3.498   9.492  0.1227  0.0700 -0.2342
  481loPI   GL2 7686   9.978   3.800   9.369  0.3195  0.2693 -0.0639
  481loPI   C1A 7687   9.922   3.282   9.119 -0.1002  0.0768  0.0110
  481loPI   C2A 7688   9.962   3.313   8.688  0.1537 -0.0151 -0.0152
  481loPI   C3A 7689  10.109   3.327   8.314 -0.2263  0.2454  0.0295
  481loPI   C4A 7690   9.925   3.388   7.876 -0.1276 -0.0806 -0.0744
  481loPI   C5A 7691   9.755   3.580   7.477  0.0375  0.1246  0.0516
  481loPI   C6A 7692   9.728   3.927   7.240  0.0127  0.2006  0.1636
  481loPI   C1B 7693  10.036   3.786   9.024 -0.1916 -0.3409  0.1169
  481loPI   C2B 7694  10.060   3.781   8.616 -0.0989  0.2024  0.0012
  481loPI   C3B 7695  10.095   3.865   8.145  0.2707  0.0769 -0.2539
  481loPI   C4B 7696   9.948   3.959   7.779  0.2562 -0.0476 -0.0898
  482loPI    C1 7697   3.179  16.557  10.444 -0.2814 -0.2146 -0.1529
  482loPI    C2 7698   3.452  16.323  10.269 -0.1924 -0.0467 -0.2421
  482loPI    C3 7699   3.152  16.160  10.477  0.1893 -0.2268  0.1828
  482loPI   PO4 7700   3.128  16.730  10.219  0.0419 -0.0970  0.1091
  482loPI   GL1 7701   3.106  16.883   9.728  0.1163 -0.3533 -0.2458
  482loPI   GL2 7702   3.123  16.701   9.514  0.0835 -0.1407  0.0879
  482loPI   C1A 7703   3.441  17.088   9.406 -0.3404  0.2340  0.3021
  482loPI   C2A 7704   3.359  16.982   8.965 -0.1749  0.2695  0.2260
  482loPI   C3A 7705   3.383  16.843   8.478  0.2254 -0.0521  0.0093
  482loPI   C4A 7706   3.458  17.029   8.083 -0.0754  0.2280 -0.0420
  482loPI   C5A 7707   3.762  17.309   7.793  0.0252 -0.5317 -0.0778
  482loPI   C6A 7708   3.824  17.147   7.238 -0.0740 -0.5329  0.0459
  482loPI   C1B 7709   3.007  16.622   9.222 -0.3760  0.0084 -0.0795
  482loPI   C2B 7710   3.003  16.636   8.777  0.0743  0.0045 -0.0203
  482loPI   C3B 7711   2.867  16.727   8.360  0.1222 -0.2236 -0.1541
  482loPI   C4B 7712   2.999  17.141   8.174  0.3423  0.0535 -0.0316
  483loPI    C1 7713  14.437   3.987   9.919  0.0015 -0.0403 -0.0654
  483loPI    C2 7714  14.130   3.784  10.077  0.0603  0.0656  0.1908
  483loPI    C3 7715  14.506   3.686  10.174  0.1024  0.0527  0.0182
  483loPI   PO4 7716  14.288   4.133   9.674 -0.1328  0.0736 -0.1030
  483loPI   GL1 7717  14.416   4.350   9.334  0.2271  0.2372 -0.1641
  483loPI   GL2 7718  14.186   4.604   9.272  0.0891  0.0585 -0.1425
  483loPI   C1A 7719  14.551   4.049   8.984 -0.0684  0.2488 -0.2879
  483loPI   C2A 7720  14.534   3.709   8.680 -0.1365 -0.1355  0.1933
  483loPI   C3A 7721  14.545   3.725   8.230 -0.1299 -0.1613  0.0294
  483loPI   C4A 7722  14.578   3.673   7.788  0.1252  0.0010 -0.2103
  483loPI   C5A 7723  14.635   3.766   7.420  0.1680  0.3480  0.0873
  483loPI   C6A 7724  14.783   4.132   7.186  0.3986 -0.1869  0.0684
  483loPI   C1B 7725  14.347   4.612   8.857  0.4141  0.0520 -0.2409
  483loPI   C2B 7726  14.341   4.565   8.334  0.1596 -0.0521 -0.2832
  483loPI   C3B 7727  14.513   4.660   8.006 -0.2113 -0.2694 -0.0592
  483loPI   C4B 7728  14.648   4.669   7.563  0.2148  0.0360  0.1521
  484loPI    C1 7729   8.307   1.296  10.060  0.0965 -0.4489  0.2481
  484loPI    C2 7730   8.361   1.661  10.215  0.0451 -0.2601 -0.1646
  484loPI    C3 7731   8.050   1.439  10.331 -0.0010 -0.1176 -0.0113
  484loPI   PO4 7732   8.322   1.359   9.780 -0.1610 -0.1024 -0.3775
  484loPI   GL1 7733   8.457   1.279   9.298 -0.1000  0.2070  0.1405
  484loPI   GL2 7734   8.261   1.074   9.364 -0.2108 -0.3862  0.2352
  484loPI   C1A 7735   8.611   1.444   8.957  0.2557  0.0166 -0.3434
  484loPI   C2A 7736   8.608   1.502   8.524  0.0834 -0.0542  0.0021
  484loPI   C3A 7737   8.590   1.614   8.083 -0.2679  0.0057  0.1489
  484loPI   C4A 7738   8.473   1.738   7.705 -0.1187  0.2530 -0.2542
  484loPI   C5A 7739   8.458   1.829   7.279 -0.0845 -0.0353 -0.2332
  484loPI   C6A 7740   8.538   1.597   6.916  0.0608  0.0297  0.0895
  484loPI   C1B 7741   8.294   1.026   8.903 -0.0071 -0.0482 -0.3383
  484loPI   C2B 7742   8.388   1.052   8.406 -0.1679  0.0648 -0.1953
  484loPI   C3B 7743   8.356   1.229   7.926  0.0706  0.1837  0.0697
  484loPI   C4B 7744   8.678   1.266   7.672 -0.3391  0.0347  0.0614
  485loPI    C1 7745   7.717  18.052   9.885  0.2496 -0.2518 -0.0479
  485loPI    C2 7746   7.423  17.834  10.045 -0.0552  0.2739  0.1337
  485loPI    C3 7747   7.713  17.979  10.278  0.0096  0.2718  0.0550
  485loPI   PO4 7748   7.692  18.136   9.568 -0.1353  0.2196 -0.0303
  485loPI   GL1 7749   7.747  18.474   9.282 -0.1643 -0.0594 -0.1536
  485loPI   GL2 7750   7.386  18.491   9.308 -0.2635  0.0232 -0.2303
  485loPI   C1A 7751   8.023  18.538   8.908  0.2676  0.0216 -0.0546
  485loPI   C2A 7752   7.871  18.662   8.487  0.1446  0.5796  0.0033
  485loPI   C3A 7753   7.847  18.734   8.026  0.3948 -0.1440  0.3573
  485loPI   C4A 7754   8.242  18.789   7.677  0.0250  0.0864  0.1644
  485loPI   C5A 7755   8.594  18.595   7.346 -0.0646 -0.0678 -0.3387
  485loPI   C6A 7756   8.976  18.312   7.467 -0.6087 -0.1304 -0.1121
  485loPI   C1B 7757   7.523  18.495   8.834 -0.0354  0.2061 -0.1802
  485loPI   C2B 7758   7.478  18.263   8.480 -0.1360 -0.0209 -0.2852
  485loPI   C3B 7759   7.477  18.255   8.057 -0.0487  0.0251  0.0882
  485loPI   C4B 7760   7.405  18.154   7.651  0.2751  0.0479  0.0283
  486loPI    C1 7761   6.613   8.551  10.249  0.1237 -0.2432 -0.1966
  486loPI    C2 7762   6.769   8.903  10.355 -0.1458 -0.0575 -0.3998
  486loPI    C3 7763   6.830   8.580  10.583 -0.0150  0.1496 -0.1351
  486loPI   PO4 7764   6.497   8.583  10.031 -0.1107 -0.2351 -0.2152
  486loPI   GL1 7765   6.608   8.643   9.572  0.2164 -0.0063  0.0908
  486loPI   GL2 7766   6.927   8.476   9.494 -0.0719  0.2152  0.4345
  486loPI   C1A 7767   6.311   8.736   9.276 -0.1351 -0.0703  0.2048
  486loPI   C2A 7768   6.224   8.679   8.834  0.4289  0.0994 -0.1558
  486loPI   C3A 7769   6.064   8.687   8.428  0.1314 -0.2642 -0.1082
  486loPI   C4A 7770   6.219   8.760   8.033  0.0662  0.0314 -0.1094
  486loPI   C5A 7771   6.469   8.938   7.696  0.4391 -0.0213  0.2849
  486loPI   C6A 7772   6.959   8.994   7.793  0.1412  0.0394 -0.1416
  486loPI   C1B 7773   7.206   8.602   9.027 -0.0965  0.1338  0.1193
  486loPI   C2B 7774   7.223   8.456   8.625 -0.4249 -0.0700  0.1629
  486loPI   C3B 7775   7.200   8.444   8.188  0.1942  0.0854 -0.0270
  486loPI   C4B 7776   7.285   8.352   7.780  0.2058  0.0188 -0.1482
  487loPI    C1 7777   9.578   2.134   9.958 -0.0003 -0.2798  0.1551
  487loPI    C2 7778   9.369   2.353  10.219  0.1471 -0.0187  0.0574
  487loPI    C3 7779   9.763   2.308  10.267  0.1922  0.1164 -0.1747
  487loPI   PO4 7780   9.539   2.253   9.767  0.5086  0.0180 -0.0818
  487loPI   GL1 7781   9.776   2.330   9.463 -0.0885 -0.1722 -0.1951
  487loPI   GL2 7782   9.585   2.143   9.314 -0.0214  0.1407  0.0560
  487loPI   C1A 7783   9.821   2.764   9.304  0.4455  0.1382  0.0672
  487loPI   C2A 7784   9.872   2.794   8.951 -0.0064  0.3077  0.1140
  487loPI   C3A 7785   9.961   2.844   8.375  0.4293  0.1612  0.0222
  487loPI   C4A 7786  10.040   2.925   8.014  0.0028  0.1134 -0.3159
  487loPI   C5A 7787   9.832   2.933   7.587  0.2747 -0.1994  0.0802
  487loPI   C6A 7788   9.900   3.001   7.119 -0.1436  0.1948  0.1457
  487loPI   C1B 7789   9.873   2.214   8.946  0.0901 -0.0767 -0.3014
  487loPI   C2B 7790   9.932   2.152   8.561  0.3735 -0.0959 -0.0322
  487loPI   C3B 7791   9.923   2.336   8.159 -0.0229  0.0092 -0.0777
  487loPI   C4B 7792   9.814   2.445   7.741 -0.0374 -0.0158  0.2104
  488loPI    C1 7793   2.702  10.716  10.179  0.1880 -0.0320 -0.1292
  488loPI    C2 7794   2.427  10.493  10.365  0.0318  0.0164 -0.2984
  488loPI    C3 7795   2.564  10.828  10.537 -0.0855  0.0427 -0.2551
  488loPI   PO4 7796   2.563  10.755   9.865 -0.5676 -0.2797 -0.0391
  488loPI   GL1 7797   2.525  10.909   9.451  0.0327 -0.1877 -0.3419
  488loPI   GL2 7798   2.291  11.096   9.519 -0.0493 -0.0513 -0.0084
  488loPI   C1A 7799   2.624  11.177   9.153  0.3120 -0.0389 -0.1221
  488loPI   C2A 7800   2.534  11.361   8.747  0.3341  0.2538  0.2069
  488loPI   C3A 7801   2.532  11.531   8.422  0.0251 -0.0954 -0.1112
  488loPI   C4A 7802   2.371  11.644   8.062 -0.0846 -0.3103  0.0727
  488loPI   C5A 7803   2.243  11.437   7.609 -0.0232  0.3426  0.2567
  488loPI   C6A 7804   2.304  11.525   7.239 -0.1888  0.1135 -0.0571
  488loPI   C1B 7805   2.142  10.968   9.144 -0.1303  0.2775  0.3156
  488loPI   C2B 7806   2.137  11.065   8.813 -0.0468  0.4116 -0.1553
  488loPI   C3B 7807   1.986  11.164   8.495  0.4053 -0.2612 -0.0253
  488loPI   C4B 7808   2.124  11.242   8.095  0.2822  0.0156  0.0097
  489loPI    C1 7809  13.957  13.909  10.081 -0.0293 -0.0744 -0.1391
  489loPI    C2 7810  14.219  14.092  10.323 -0.0162 -0.1307 -0.1106
  489loPI    C3 7811  13.868  14.265  10.241  0.0151 -0.0717 -0.1200
  489loPI   PO4 7812  14.035  13.930   9.815 -0.1424  0.1736 -0.1942
  489loPI   GL1 7813  13.782  13.848   9.478 -0.0433 -0.2363 -0.2642
  489loPI   GL2 7814  13.960  14.194   9.406 -0.3133  0.0803 -0.2034
  489loPI   C1A 7815  13.716  13.681   9.089  0.4072  0.2263  0.0836
  489loPI   C2A 7816  13.794  13.711   8.663 -0.1536 -0.1470 -0.0133
  489loPI   C3A 7817  14.015  13.830   8.275  0.2348 -0.3622 -0.0297
  489loPI   C4A 7818  14.285  13.939   7.985  0.1133 -0.0454  0.0309
  489loPI   C5A 7819  14.509  13.793   7.618 -0.0267 -0.0981  0.0397
  489loPI   C6A 7820  14.654  13.633   7.182  0.0556 -0.3642 -0.1959
  489loPI   C1B 7821  14.107  14.146   8.863  0.1113  0.3860 -0.0179
  489loPI   C2B 7822  14.366  14.116   8.478  0.1843  0.4234  0.1052
  489loPI   C3B 7823  14.681  14.123   8.213 -0.4329 -0.0761  0.2303
  489loPI   C4B 7824  14.746  14.232   7.818  0.1046 -0.0186  0.0055
  490loPI    C1 7825  17.244  11.808  10.470  0.3656  0.4103  0.0926
  490loPI    C2 7826  17.150  11.677  10.836 -0.1723  0.1977 -0.1119
  490loPI    C3 7827  17.450  11.937  10.788  0.3406 -0.2705  0.4021
  490loPI   PO4 7828  17.041  11.681  10.312 -0.0000  0.2325  0.1769
  490loPI   GL1 7829  16.713  11.715  10.120 -0.1293 -0.1560 -0.0064
  490loPI   GL2 7830  16.482  11.515  10.017  0.3981 -0.4381 -0.1008
  490loPI   C1A 7831  16.785  11.779   9.643  0.1709  0.0490 -0.0175
  490loPI   C2A 7832  16.971  11.853   9.151 -0.0287 -0.0559  0.1259
  490loPI   C3A 7833  16.850  11.777   8.777 -0.0640 -0.3051 -0.1912
  490loPI   C4A 7834  17.046  11.814   8.435  0.0495  0.1759 -0.5023
  490loPI   C5A 7835  17.204  11.896   8.043  0.0548  0.0508  0.3343
  490loPI   C6A 7836  16.996  12.195   7.809  0.0534  0.4618 -0.0867
  490loPI   C1B 7837  16.543  11.255   9.658 -0.0445  0.1630  0.4855
  490loPI   C2B 7838  16.368  11.036   9.270  0.2767 -0.0772  0.1549
  490loPI   C3B 7839  16.316  10.983   8.876 -0.1990  0.0392 -0.2828
  490loPI   C4B 7840  16.393  10.780   8.481 -0.1421 -0.0737 -0.0267
  491loPI    C1 7841  13.554  10.709  10.090  0.0685 -0.1780  0.1697
  491loPI    C2 7842  13.278  10.947  10.255  0.1167  0.0152 -0.0242
  491loPI    C3 7843  13.180  10.576  10.142 -0.0401  0.0509 -0.0077
  491loPI   PO4 7844  13.637  10.850   9.924  0.0810  0.6297 -0.0017
  491loPI   GL1 7845  13.741  10.765   9.478  0.0735  0.1443  0.0548
  491loPI   GL2 7846  13.529  10.776   9.258 -0.0304  0.0751  0.1142
  491loPI   C1A 7847  13.925  10.994   9.189 -0.3818  0.1063 -0.0393
  491loPI   C2A 7848  14.200  10.845   8.837 -0.3528  0.0377 -0.0194
  491loPI   C3A 7849  14.147  10.966   8.450 -0.2107 -0.3285 -0.0053
  491loPI   C4A 7850  13.971  10.876   8.066 -0.2885  0.1508 -0.2364
  491loPI   C5A 7851  13.654  11.030   7.776  0.0982  0.1154 -0.0896
  491loPI   C6A 7852  13.330  11.041   7.455 -0.1939  0.1934 -0.2878
  491loPI   C1B 7853  13.631  10.751   8.809  0.1195  0.0496  0.2823
  491loPI   C2B 7854  13.549  10.845   8.432  0.0305  0.0544  0.1048
  491loPI   C3B 7855  13.639  11.237   8.278 -0.1827  0.5286  0.1176
  491loPI   C4B 7856  13.585  11.531   7.963  0.0370  0.1291  0.1063
  492loPI    C1 7857  11.438  18.413  10.130 -0.0287  0.0685  0.1903
  492loPI    C2 7858  11.364  18.203  10.462 -0.2052  0.1220  0.1858
  492loPI    C3 7859  11.596  18.529  10.479  0.0625 -0.0656  0.1942
  492loPI   PO4 7860  11.424  18.287   9.974  0.0227  0.1173  0.2209
  492loPI   GL1 7861  11.610  18.223   9.578 -0.0348  0.1953  0.0866
  492loPI   GL2 7862  11.893  18.074   9.497  0.1549 -0.1335  0.0125
  492loPI   C1A 7863  11.636  18.458   9.285  0.0644 -0.1765 -0.0666
  492loPI   C2A 7864  11.601  18.474   8.813  0.2372 -0.0870 -0.3280
  492loPI   C3A 7865  11.654  18.617   8.379 -0.0774 -0.2836 -0.0431
  492loPI   C4A 7866  11.938  18.591   8.101 -0.1313 -0.0182 -0.2895
  492loPI   C5A 7867  12.213  18.611   7.700  0.0106 -0.0863 -0.0842
  492loPI   C6A 7868  12.206  18.242   7.487 -0.1355  0.0400  0.0121
  492loPI   C1B 7869  11.775  18.023   9.016 -0.1184 -0.0723 -0.0811
  492loPI   C2B 7870  11.601  18.014   8.623 -0.2367  0.0980 -0.0647
  492loPI   C3B 7871  11.657  18.100   8.152 -0.1904  0.5665  0.3061
  492loPI   C4B 7872  11.919  18.135   7.886  0.0636  0.2417 -0.1028
  493loPI    C1 7873   4.250  12.616   9.777 -0.1084 -0.2684  0.1010
  493loPI    C2 7874   4.396  12.644  10.148  0.2403  0.1148 -0.0572
  493loPI    C3 7875   4.465  12.316   9.930  0.2195 -0.0207  0.1372
  493loPI   PO4 7876   4.221  12.932   9.721  0.0702  0.0541 -0.0620
  493loPI   GL1 7877   4.252  13.006   9.363  0.1471 -0.0917  0.2755
  493loPI   GL2 7878   4.453  12.641   9.307 -0.1281 -0.4052 -0.0885
  493loPI   C1A 7879   4.283  13.144   8.910 -0.1769 -0.2583  0.0411
  493loPI   C2A 7880   4.364  13.126   8.499 -0.0435 -0.0967  0.2957
  493loPI   C3A 7881   4.329  13.042   8.097  0.4075 -0.0040 -0.2484
  493loPI   C4A 7882   4.333  12.859   7.720  0.1034 -0.5736 -0.0539
  493loPI   C5A 7883   3.919  12.849   7.555  0.0268 -0.0561 -0.1055
  493loPI   C6A 7884   3.494  12.755   7.382 -0.1470 -0.4710 -0.2552
  493loPI   C1B 7885   4.218  12.653   8.924  0.0926 -0.0296 -0.1746
  493loPI   C2B 7886   4.045  12.725   8.580 -0.0066 -0.2164  0.1488
  493loPI   C3B 7887   3.894  12.929   8.296  0.2432  0.0590  0.0386
  493loPI   C4B 7888   3.627  12.955   8.044  0.0660  0.1540 -0.2035
  494loPI    C1 7889  18.941  16.894   9.624  0.1034 -0.1592 -0.1437
  494loPI    C2 7890  18.872  17.203   9.870  0.4512 -0.1930  0.0024
  494loPI    C3 7891  18.587  17.081   9.616  0.1709 -0.0075  0.2220
  494loPI   PO4 7892  19.240  17.019   9.608 -0.1153 -0.2751  0.1757
  494loPI   GL1 7893  19.234  17.333   9.264 -0.1893 -0.1351  0.1469
  494loPI   GL2 7894  18.937  17.130   9.160 -0.1921  0.0075 -0.0025
  494loPI   C1A 7895  19.483  17.485   9.007 -0.3320 -0.3300 -0.0274
  494loPI   C2A 7896  19.593  17.378   8.636 -0.3485 -0.1551 -0.0620
  494loPI   C3A 7897  19.766  17.229   8.256 -0.0438 -0.2367 -0.1093
  494loPI   C4A 7898  19.645  16.962   7.996  0.2914  0.2861 -0.1809
  494loPI   C5A 7899  19.462  16.591   7.955  0.1082 -0.0598  0.1463
  494loPI   C6A 7900  19.620  16.214   7.680  0.0259 -0.0921 -0.1407
  494loPI   C1B 7901  18.898  17.182   8.656  0.1897 -0.0243 -0.1086
  494loPI   C2B 7902  18.800  17.259   8.165  0.0142 -0.0063  0.0482
  494loPI   C3B 7903  18.500  17.406   8.027  0.2166  0.0833  0.1448
  494loPI   C4B 7904  18.226  17.326   7.683 -0.1925 -0.0034 -0.2348
  495loPI    C1 7905  14.137   1.150   9.921 -0.0625  0.0561  0.0394
  495loPI    C2 7906  14.067   1.420   9.635 -0.0610 -0.0055 -0.0194
  495loPI    C3 7907  14.015   1.518  10.019 -0.0258  0.0892 -0.0385
  495loPI   PO4 7908  13.925   0.968   9.857  0.0879  0.3928  0.1957
  495loPI   GL1 7909  13.729   1.108   9.496  0.0041 -0.0520  0.1327
  495loPI   GL2 7910  13.936   1.284   9.181  0.0789  0.0350 -0.0557
  495loPI   C1A 7911  13.447   0.992   9.131  0.0225 -0.1687 -0.1569
  495loPI   C2A 7912  13.328   0.781   8.842 -0.1251  0.3174 -0.0500
  495loPI   C3A 7913  13.319   0.808   8.463 -0.0607  0.0024 -0.0795
  495loPI   C4A 7914  12.947   0.821   8.244 -0.1314 -0.2432  0.0687
  495loPI   C5A 7915  12.908   0.555   7.785 -0.1677 -0.1518 -0.2715
  495loPI   C6A 7916  12.665   0.525   7.306  0.1028 -0.1143  0.1782
  495loPI   C1B 7917  13.674   1.272   8.778 -0.0433  0.0470  0.3292
  495loPI   C2B 7918  13.742   1.027   8.440 -0.0106  0.2620 -0.0647
  495loPI   C3B 7919  13.769   0.879   8.147 -0.3288 -0.0834 -0.1629
  495loPI   C4B 7920  13.754   0.589   7.884 -0.0128  0.1084 -0.0863
  496loPI    C1 7921  16.916  13.986  10.422 -0.1628 -0.1415 -0.1346
  496loPI    C2 7922  16.931  13.799  10.775  0.0155  0.0036 -0.0638
  496loPI    C3 7923  16.709  14.129  10.733 -0.0386 -0.0372 -0.0987
  496loPI   PO4 7924  17.165  13.811  10.287  0.2004  0.3890 -0.2153
  496loPI   GL1 7925  17.139  13.602   9.897 -0.0187  0.0775 -0.1395
  496loPI   GL2 7926  16.850  13.851   9.885 -0.3946  0.4486 -0.0142
  496loPI   C1A 7927  17.235  13.615   9.510 -0.3169 -0.0682 -0.2797
  496loPI   C2A 7928  17.286  13.451   9.109  0.3125 -0.0366 -0.2202
  496loPI   C3A 7929  17.258  13.152   8.801  0.2903  0.0557 -0.1961
  496loPI   C4A 7930  17.148  13.090   8.327  0.0251  0.0844 -0.2351
  496loPI   C5A 7931  17.471  13.216   7.963  0.1486  0.0449  0.0719
  496loPI   C6A 7932  17.710  13.259   7.632  0.0735  0.1609  0.1335
  496loPI   C1B 7933  16.737  13.595   9.569  0.1577  0.0546  0.0095
  496loPI   C2B 7934  16.753  13.519   9.173 -0.1143 -0.3053  0.0003
  496loPI   C3B 7935  16.759  13.478   8.656 -0.1728 -0.3408 -0.0834
  496loPI   C4B 7936  16.575  13.434   8.231  0.0655  0.2041 -0.1036
  497loPI    C1 7937   2.658  14.200  10.177  0.1391  0.0162 -0.0090
  497loPI    C2 7938   2.427  14.073  10.479  0.0135 -0.2229 -0.2019
  497loPI    C3 7939   2.826  14.051  10.509  0.0009 -0.2765 -0.0675
  497loPI   PO4 7940   2.482  14.032   9.918 -0.1252 -0.1789 -0.0993
  497loPI   GL1 7941   2.285  14.153   9.549 -0.0238 -0.1900 -0.0601
  497loPI   GL2 7942   1.876  14.140   9.552 -0.3351  0.0257  0.2092
  497loPI   C1A 7943   2.242  14.135   9.110  0.0280  0.0394 -0.0091
  497loPI   C2A 7944   2.200  14.132   8.709  0.1384  0.2625 -0.0352
  497loPI   C3A 7945   2.184  14.099   8.322  0.2179 -0.0831 -0.0722
  497loPI   C4A 7946   2.338  14.185   7.968  0.2996  0.0263 -0.0201
  497loPI   C5A 7947   2.570  14.298   7.561 -0.1170 -0.3694 -0.2835
  497loPI   C6A 7948   2.850  14.516   7.362  0.1894 -0.0486  0.0961
  497loPI   C1B 7949   1.716  14.042   9.080  0.0463  0.2533  0.0745
  497loPI   C2B 7950   1.719  13.995   8.650  0.0462 -0.4417 -0.0080
  497loPI   C3B 7951   1.646  14.101   8.224  0.0347 -0.6043  0.3401
  497loPI   C4B 7952   1.693  14.207   7.802  0.2877  0.0332 -0.0289
  498loPI    C1 7953   3.401   5.051  10.215 -0.1699 -0.2430 -0.2143
  498loPI    C2 7954   3.052   5.248  10.214  0.0006  0.0685 -0.0080
  498loPI    C3 7955   3.310   5.299  10.516  0.2291 -0.1544 -0.1619
  498loPI   PO4 7956   3.422   5.068   9.899  0.1029  0.1480  0.1449
  498loPI   GL1 7957   3.594   4.893   9.556  0.1493 -0.0136  0.0867
  498loPI   GL2 7958   3.716   4.666   9.423  0.0488  0.0150 -0.0172
  498loPI   C1A 7959   3.614   5.029   9.034  0.1062  0.0019  0.3373
  498loPI   C2A 7960   3.719   5.036   8.640  0.1281 -0.3589  0.1178
  498loPI   C3A 7961   3.431   5.206   8.233  0.0776  0.2112 -0.3703
  498loPI   C4A 7962   3.200   5.370   7.870  0.1461 -0.0852  0.2923
  498loPI   C5A 7963   2.837   5.385   7.686  0.2065  0.0316  0.0553
  498loPI   C6A 7964   2.714   4.919   7.591  0.1109  0.1312 -0.1801
  498loPI   C1B 7965   4.065   4.685   9.213 -0.2220  0.2995 -0.0102
  498loPI   C2B 7966   4.124   4.700   8.797 -0.3579 -0.1659 -0.2134
  498loPI   C3B 7967   4.047   4.789   8.365 -0.0444 -0.0762  0.3359
  498loPI   C4B 7968   4.057   4.991   8.020 -0.1707 -0.6164 -0.1135
  499loPI    C1 7969  18.796  18.388  10.268 -0.0377  0.0436 -0.0026
  499loPI    C2 7970  18.425  18.253  10.326 -0.0506  0.1769  0.2372
  499loPI    C3 7971  18.738  18.012  10.391 -0.0943  0.0502 -0.0092
  499loPI   PO4 7972  18.867  18.488   9.958 -0.0860  0.2724 -0.2817
  499loPI   GL1 7973  18.702  18.351   9.499 -0.1213  0.3464  0.1890
  499loPI   GL2 7974  18.827  18.720   9.450  0.1824  0.1768 -0.5030
  499loPI   C1A 7975  18.522  18.470   9.127  0.0453 -0.1079  0.0828
  499loPI   C2A 7976  18.461  18.368   8.757 -0.1269  0.0974 -0.2572
  499loPI   C3A 7977  18.530  18.124   8.404  0.0102  0.0176  0.1327
  499loPI   C4A 7978  18.222  17.823   8.159 -0.1335  0.2606  0.2304
  499loPI   C5A 7979  17.871  17.768   7.820 -0.0407  0.0393  0.0556
  499loPI   C6A 7980  17.443  17.699   7.680  0.1421 -0.3809 -0.0129
  499loPI   C1B 7981  19.025  18.573   9.095  0.0907 -0.2762 -0.2095
  499loPI   C2B 7982  19.014  18.658   8.704  0.3826 -0.4884 -0.0738
  499loPI   C3B 7983  18.853  18.607   8.230  0.0033  0.0763  0.0678
  499loPI   C4B 7984  18.783  18.161   7.991  0.1347 -0.0007 -0.0135
  500loPI    C1 7985  11.816  11.320  10.071  0.2134  0.1419  0.1809
  500loPI    C2 7986  11.919  10.966  10.226  0.1696  0.1280  0.1785
  500loPI    C3 7987  11.760  11.248  10.460 -0.1853 -0.0033  0.1019
  500loPI   PO4 7988  12.045  11.375   9.883 -0.0099  0.0952  0.0469
  500loPI   GL1 7989  12.251  11.233   9.526  0.1291 -0.0192  0.2962
  500loPI   GL2 7990  12.471  11.381   9.252  0.3765 -0.0409  0.0081
  500loPI   C1A 7991  12.218  10.965   9.064  0.2057 -0.0437  0.3309
  500loPI   C2A 7992  12.092  10.697   8.699 -0.1443 -0.0883 -0.2725
  500loPI   C3A 7993  12.145  10.514   8.280  0.1191 -0.1904 -0.2667
  500loPI   C4A 7994  12.365  10.181   8.101  0.1268 -0.2902  0.1738
  500loPI   C5A 7995  12.396  10.133   7.637 -0.0318 -0.2394  0.1427
  500loPI   C6A 7996  12.582  10.343   7.289  0.2234  0.0668 -0.1826
  500loPI   C1B 7997  12.603  11.237   8.893 -0.0695 -0.2661  0.2940
  500loPI   C2B 7998  12.753  11.299   8.518  0.0556 -0.2748 -0.0749
  500loPI   C3B 7999  12.585  11.341   8.136 -0.2535 -0.0922 -0.1124
  500loPI   C4B 8000  12.323  11.511   7.829  0.0450  0.0141  0.0151
  501loPI    C1 8001   5.900   6.239  10.588  0.0307  0.0382 -0.0478
  501loPI    C2 8002   5.798   6.616  10.671 -0.1238 -0.0199  0.0297
  501loPI    C3 8003   6.160   6.481  10.772 -0.0048  0.1570 -0.1525
  501loPI   PO4 8004   5.797   6.217  10.324  0.2615 -0.0354 -0.0172
  501loPI   GL1 8005   5.822   6.306   9.739 -0.3659  0.1294 -0.2654
  501loPI   GL2 8006   5.654   6.500   9.847 -0.1482 -0.1376 -0.0668
  501loPI   C1A 8007   6.006   6.248   9.296 -0.1100  0.1734  0.0683
  501loPI   C2A 8008   6.073   6.349   8.814 -0.1313 -0.2205  0.0141
  501loPI   C3A 8009   5.884   6.328   8.382  0.1176  0.0949 -0.1510
  501loPI   C4A 8010   5.645   6.332   7.956 -0.1648  0.0148 -0.0832
  501loPI   C5A 8011   5.644   6.277   7.502 -0.1348 -0.0896 -0.1476
  501loPI   C6A 8012   5.480   6.472   7.104 -0.3121 -0.0134 -0.1781
  501loPI   C1B 8013   5.455   6.494   9.478  0.0464  0.0232 -0.2615
  501loPI   C2B 8014   5.429   6.201   9.102 -0.1704  0.0161 -0.0731
  501loPI   C3B 8015   5.552   6.038   8.700 -0.1164 -0.0433 -0.0373
  501loPI   C4B 8016   5.746   5.908   8.206  0.3404 -0.0384 -0.0045
  502loPI    C1 8017  14.051  12.528  10.299 -0.0462  0.0233 -0.4789
  502loPI    C2 8018  13.838  12.190  10.330  0.1193 -0.0556 -0.1550
  502loPI    C3 8019  14.233  12.184  10.391  0.1000  0.2248  0.0166
  502loPI   PO4 8020  14.041  12.551  10.011  0.0162 -0.0477 -0.2394
  502loPI   GL1 8021  14.128  12.510   9.560  0.1726 -0.1919 -0.5013
  502loPI   GL2 8022  13.791  12.228   9.387 -0.3175  0.2153  0.1353
  502loPI   C1A 8023  14.279  12.503   9.047  0.2303  0.0727 -0.1773
  502loPI   C2A 8024  14.336  12.386   8.669  0.3077 -0.0523 -0.1904
  502loPI   C3A 8025  14.414  12.287   8.192  0.1248  0.4268 -0.0837
  502loPI   C4A 8026  14.260  12.236   7.818  0.0979 -0.0121 -0.1017
  502loPI   C5A 8027  14.395  12.138   7.419  0.2535  0.2264  0.3378
  502loPI   C6A 8028  14.347  11.954   6.947  0.0947  0.1260 -0.0122
  502loPI   C1B 8029  13.698  12.579   9.132  0.3026  0.2343  0.0743
  502loPI   C2B 8030  13.490  12.605   8.838 -0.0595 -0.1220 -0.0843
  502loPI   C3B 8031  13.288  12.851   8.485 -0.5407  0.0470  0.0476
  502loPI   C4B 8032  13.342  13.261   8.383  0.4443  0.1831  0.1551
  503loPI    C1 8033   3.661   2.678  10.116 -0.2102 -0.0109  0.1577
  503loPI    C2 8034   3.388   2.411  10.235  0.1298 -0.3067  0.2911
  503loPI    C3 8035   3.593   2.623  10.506 -0.2845  0.2531  0.1838
  503loPI   PO4 8036   3.684   2.655   9.852 -0.1140  0.2043 -0.1229
  503loPI   GL1 8037   3.918   2.579   9.404  0.0070  0.0556  0.0850
  503loPI   GL2 8038   3.989   2.865   9.545  0.1069 -0.4142  0.0361
  503loPI   C1A 8039   4.039   2.460   9.014 -0.0427 -0.2735  0.1118
  503loPI   C2A 8040   3.864   2.408   8.537 -0.3084 -0.2272 -0.1123
  503loPI   C3A 8041   3.770   2.214   8.279  0.1945  0.0836  0.0610
  503loPI   C4A 8042   3.618   2.316   7.865  0.1862  0.0998  0.1441
  503loPI   C5A 8043   3.758   2.501   7.361  0.0310 -0.2926  0.2108
  503loPI   C6A 8044   3.938   2.345   6.968  0.3375 -0.1268 -0.0277
  503loPI   C1B 8045   3.906   3.012   9.172 -0.3395 -0.0717 -0.2545
  503loPI   C2B 8046   3.802   3.026   8.758  0.0226 -0.4831  0.1437
  503loPI   C3B 8047   3.722   2.875   8.291 -0.0133  0.2282  0.3042
  503loPI   C4B 8048   3.527   2.894   7.851 -0.2431 -0.0613 -0.0968
  504loPI    C1 8049  14.311  17.854   9.944 -0.0893  0.1656 -0.0475
  504loPI    C2 8050  14.558  17.970  10.236  0.0972 -0.3350  0.0035
  504loPI    C3 8051  14.163  18.016  10.278  0.1531  0.1196  0.0843
  504loPI   PO4 8052  14.342  17.889   9.741 -0.0058  0.0888 -0.0090
  504loPI   GL1 8053  14.413  17.772   9.353 -0.1866  0.0163 -0.1864
  504loPI   GL2 8054  14.565  17.497   9.427 -0.1033 -0.3566  0.1164
  504loPI   C1A 8055  14.557  17.918   8.937 -0.0355  0.0667 -0.0324
  504loPI   C2A 8056  14.541  17.950   8.463  0.0012 -0.2348  0.4034
  504loPI   C3A 8057  14.479  18.000   7.981  0.3710 -0.0694  0.1009
  504loPI   C4A 8058  14.353  17.845   7.589 -0.2360 -0.4259 -0.0219
  504loPI   C5A 8059  14.519  17.588   7.293  0.0165 -0.0616  0.1061
  504loPI   C6A 8060  14.910  17.281   7.172 -0.1720 -0.1045  0.2189
  504loPI   C1B 8061  14.569  17.443   9.014  0.2882  0.0742 -0.1500
  504loPI   C2B 8062  14.582  17.424   8.510 -0.0164 -0.0968  0.2160
  504loPI   C3B 8063  14.529  17.442   8.054  0.1962 -0.2041  0.0618
  504loPI   C4B 8064  14.648  17.232   7.626  0.3039 -0.0034  0.2238
  505loPI    C1 8065  18.559   3.584  10.278 -0.0980  0.0913 -0.1480
  505loPI    C2 8066  18.403   3.870  10.511 -0.0530  0.2097 -0.2621
  505loPI    C3 8067  18.732   3.674  10.627  0.0474  0.3623 -0.2868
  505loPI   PO4 8068  18.406   3.677  10.037 -0.2014 -0.2238 -0.0753
  505loPI   GL1 8069  18.464   3.513   9.595 -0.1730  0.2179 -0.1566
  505loPI   GL2 8070  18.415   3.307   9.759  0.0510  0.3099 -0.0049
  505loPI   C1A 8071  18.443   3.410   9.169 -0.0602 -0.1400  0.1491
  505loPI   C2A 8072  18.401   3.387   8.717 -0.1903 -0.0852 -0.0243
  505loPI   C3A 8073  18.527   3.247   8.320 -0.1374  0.0501  0.1490
  505loPI   C4A 8074  18.675   2.985   7.994  0.0605 -0.2034 -0.1217
  505loPI   C5A 8075  18.593   2.950   7.576 -0.0077 -0.1244  0.1935
  505loPI   C6A 8076  18.754   3.052   7.107 -0.3312 -0.1708  0.0597
  505loPI   C1B 8077  18.136   3.111   9.538 -0.1088  0.1176 -0.0404
  505loPI   C2B 8078  18.018   3.163   9.142  0.0055 -0.1298 -0.1052
  505loPI   C3B 8079  18.047   3.039   8.741  0.0474 -0.0193 -0.0429
  505loPI   C4B 8080  17.938   2.795   8.500  0.1586 -0.3708 -0.1583
  506loPI    C1 8081   1.602   8.250  10.154  0.4333 -0.0761  0.2449
  506loPI    C2 8082   1.292   8.202  10.402  0.2638 -0.0804  0.0344
  506loPI    C3 8083   1.567   7.913  10.367  0.2419 -0.1159  0.1523
  506loPI   PO4 8084   1.529   8.425  10.060  0.2095 -0.1731  0.1738
  506loPI   GL1 8085   1.201   8.396   9.739 -0.2720  0.1832 -0.1872
  506loPI   GL2 8086   0.904   8.413   9.610 -0.0089  0.0935 -0.2442
  506loPI   C1A 8087   1.433   8.399   9.415 -0.0654  0.1332 -0.2261
  506loPI   C2A 8088   1.384   8.378   8.959  0.1902  0.1097  0.0177
  506loPI   C3A 8089   1.227   8.393   8.505 -0.1403 -0.3294  0.0274
  506loPI   C4A 8090   1.422   8.483   8.131 -0.3594  0.1651 -0.3323
  506loPI   C5A 8091   1.398   8.522   7.654 -0.5128 -0.1399  0.2294
  506loPI   C6A 8092   1.082   8.814   7.514 -0.4920  0.1884  0.0825
  506loPI   C1B 8093   0.826   8.490   9.221 -0.2924  0.3616 -0.0120
  506loPI   C2B 8094   0.943   8.745   8.867  0.0134 -0.0744  0.0598
  506loPI   C3B 8095   1.302   8.958   8.745 -0.0465  0.1145  0.0836
  506loPI   C4B 8096   1.707   8.795   8.512  0.0922 -0.3695 -0.0552
  507loPI    C1 8097   7.973  17.605   9.775  0.1280 -0.1845  0.0685
  507loPI    C2 8098   8.318  17.427   9.868  0.2091  0.0383  0.2001
  507loPI    C3 8099   8.217  17.771  10.044  0.1800  0.2632 -0.2436
  507loPI   PO4 8100   7.985  17.674   9.522  0.0858  0.0693 -0.1832
  507loPI   GL1 8101   7.790  17.498   9.127 -0.1545 -0.0896  0.0769
  507loPI   GL2 8102   7.535  17.348   9.193  0.0197 -0.1217 -0.3319
  507loPI   C1A 8103   7.863  17.574   8.645  0.0167 -0.2160 -0.1567
  507loPI   C2A 8104   7.721  17.402   8.299  0.0016  0.2484 -0.0993
  507loPI   C3A 8105   7.680  17.017   8.128 -0.1540  0.0882  0.1257
  507loPI   C4A 8106   7.894  16.731   7.845  0.0074  0.2319 -0.0413
  507loPI   C5A 8107   8.012  16.318   7.655 -0.1442  0.0498 -0.0509
  507loPI   C6A 8108   7.721  16.036   7.484 -0.2294  0.0909 -0.0184
  507loPI   C1B 8109   7.421  17.212   8.730 -0.1354  0.1017 -0.0294
  507loPI   C2B 8110   7.163  17.359   8.423  0.3061  0.1298  0.0821
  507loPI   C3B 8111   6.955  17.364   8.031 -0.0291  0.0420  0.0314
  507loPI   C4B 8112   6.970  17.286   7.581 -0.1850 -0.2460  0.1487
  508loPI    C1 8113   2.840  15.901  10.181  0.0563 -0.0852  0.1362
  508loPI    C2 8114   2.588  15.682  10.401 -0.1600  0.1634  0.1409
  508loPI    C3 8115   2.976  15.698  10.497 -0.1385 -0.2227  0.1333
  508loPI   PO4 8116   2.772  15.895   9.897 -0.0329  0.1523  0.0998
  508loPI   GL1 8117   2.790  16.019   9.557 -0.0869 -0.0631  0.1679
  508loPI   GL2 8118   3.077  16.158   9.503 -0.1054  0.0132 -0.2296
  508loPI   C1A 8119   2.428  16.000   9.336 -0.0315 -0.1072  0.1405
  508loPI   C2A 8120   2.064  16.191   9.226  0.1928  0.4304 -0.0875
  508loPI   C3A 8121   1.789  16.116   8.950 -0.1696 -0.1443  0.1965
  508loPI   C4A 8122   1.722  15.897   8.561 -0.1397  0.0581  0.2623
  508loPI   C5A 8123   1.521  15.891   8.181 -0.2110  0.1299  0.3053
  508loPI   C6A 8124   1.708  16.020   7.783 -0.0975  0.0906 -0.1884
  508loPI   C1B 8125   2.991  16.149   9.070 -0.1655 -0.0344 -0.0802
  508loPI   C2B 8126   2.809  16.187   8.592 -0.1454 -0.0062 -0.0495
  508loPI   C3B 8127   2.905  16.128   8.195 -0.4641 -0.0965  0.0169
  508loPI   C4B 8128   2.723  16.164   7.801 -0.1023 -0.1588  0.1629
  509loPI    C1 8129  10.743  18.624  10.003 -0.1451 -0.2511  0.0092
  509loPI    C2 8130  11.102  18.799  10.035 -0.3019  0.1293 -0.2351
  509loPI    C3 8131  10.988  18.525  10.303 -0.0556  0.4168  0.1739
  509loPI   PO4 8132  10.695  18.634   9.681  0.2086  0.0341 -0.0164
  509loPI   GL1 8133  10.847  18.623   9.344 -0.2298  0.1362 -0.0177
  509loPI   GL2 8134  10.705  18.344   9.277 -0.0856  0.0771 -0.0677
  509loPI   C1A 8135  10.909  18.695   8.912 -0.0500 -0.0626 -0.2206
  509loPI   C2A 8136  10.864  18.679   8.440 -0.0258  0.2334  0.0421
  509loPI   C3A 8137  10.823  18.591   8.011 -0.0296  0.1578 -0.0008
  509loPI   C4A 8138  10.797  18.488   7.646 -0.3246 -0.1881  0.4442
  509loPI   C5A 8139  11.148  18.377   7.299 -0.1336 -0.2186 -0.0657
  509loPI   C6A 8140  11.347  18.285   7.015 -0.2654 -0.2489 -0.0231
  509loPI   C1B 8141  10.572  18.336   8.799 -0.1035 -0.3020 -0.3782
  509loPI   C2B 8142  10.572  18.288   8.296  0.1166  0.0093  0.2879
  509loPI   C3B 8143  10.552  18.191   7.889  0.2356  0.0801 -0.0094
  509loPI   C4B 8144  10.501  18.146   7.361  0.1720 -0.1266 -0.0584
  510loPI    C1 8145   1.958   1.237  10.057 -0.0810  0.1196 -0.0219
  510loPI    C2 8146   1.573   1.342  10.088 -0.1381 -0.0437 -0.1600
  510loPI    C3 8147   1.765   1.386   9.740  0.0161  0.1903 -0.0482
  510loPI   PO4 8148   1.974   0.985  10.083  0.2573  0.0422 -0.0309
  510loPI   GL1 8149   2.001   0.639   9.780 -0.0613 -0.1589 -0.3215
  510loPI   GL2 8150   1.993   0.319   9.727  0.0978  0.1294 -0.2993
  510loPI   C1A 8151   2.012   0.648   9.281  0.0428 -0.1187  0.2526
  510loPI   C2A 8152   1.921   0.577   8.910 -0.2587  0.0229  0.1239
  510loPI   C3A 8153   1.917   0.325   8.603  0.1034  0.2472  0.2560
  510loPI   C4A 8154   1.786   0.272   8.187 -0.0785 -0.1257  0.2849
  510loPI   C5A 8155   1.694   0.273   7.802 -0.1336 -0.0674  0.1559
  510loPI   C6A 8156   1.395   0.109   7.416 -0.2266  0.0988  0.1409
  510loPI   C1B 8157   2.075   0.143   9.350 -0.0764  0.1313 -0.2393
  510loPI   C2B 8158   2.007   0.052   8.991  0.0518 -0.1943 -0.3130
  510loPI   C3B 8159   1.760  -0.135   8.674  0.3270 -0.0252  0.0356
  510loPI   C4B 8160   1.690  -0.581   8.506  0.2637  0.1011 -0.3094
  511loPI    C1 8161  15.971   2.231  10.116 -0.1609 -0.0715  0.0346
  511loPI    C2 8162  15.780   2.570  10.209  0.0335  0.0166  0.1189
  511loPI    C3 8163  15.619   2.216  10.305 -0.1550  0.0852  0.0591
  511loPI   PO4 8164  16.030   2.183   9.810  0.2882 -0.1597 -0.3008
  511loPI   GL1 8165  16.221   2.312   9.532  0.1167  0.1298 -0.0113
  511loPI   GL2 8166  16.470   2.020   9.563 -0.0850  0.0662 -0.2147
  511loPI   C1A 8167  16.265   2.331   9.174 -0.1594 -0.2648 -0.2389
  511loPI   C2A 8168  16.389   2.509   8.807  0.2923  0.3149 -0.2726
  511loPI   C3A 8169  16.299   2.381   8.412  0.2688 -0.0627  0.2156
  511loPI   C4A 8170  16.167   2.331   7.893 -0.1487 -0.0624  0.0352
  511loPI   C5A 8171  16.169   2.411   7.432  0.0946  0.1226 -0.2310
  511loPI   C6A 8172  16.431   2.498   7.038 -0.0331 -0.1334 -0.1138
  511loPI   C1B 8173  16.413   1.744   9.291 -0.2731 -0.1863 -0.2882
  511loPI   C2B 8174  16.439   1.674   8.866 -0.0076 -0.0089  0.2817
  511loPI   C3B 8175  16.357   1.566   8.476 -0.3933 -0.1813 -0.1907
  511loPI   C4B 8176  16.500   1.514   8.098 -0.0701 -0.1669 -0.0799
  512loPI    C1 8177  17.171   8.540  10.503  0.2142 -0.1783 -0.1392
  512loPI    C2 8178  17.102   8.866  10.724  0.0436 -0.0803 -0.3334
  512loPI    C3 8179  17.472   8.788  10.594  0.1532 -0.1590  0.0134
  512loPI   PO4 8180  16.988   8.587  10.220  0.1132  0.3534  0.2273
  512loPI   GL1 8181  17.035   8.731   9.786 -0.0179 -0.5153  0.3244
  512loPI   GL2 8182  17.188   8.508   9.673 -0.1600 -0.0398 -0.2136
  512loPI   C1A 8183  16.680   8.887   9.409  0.1702  0.1717 -0.1899
  512loPI   C2A 8184  16.288   8.750   9.081 -0.0442 -0.1619 -0.1624
  512loPI   C3A 8185  16.206   8.710   8.612  0.0391 -0.3172 -0.3106
  512loPI   C4A 8186  16.217   8.842   8.147 -0.1292 -0.1594  0.3318
  512loPI   C5A 8187  16.402   8.778   7.777  0.0371 -0.2538 -0.0930
  512loPI   C6A 8188  16.655   8.903   7.371  0.2166  0.3566  0.5336
  512loPI   C1B 8189  17.193   8.866   9.307  0.2460 -0.0385  0.1324
  512loPI   C2B 8190  17.009   9.039   9.064  0.0335  0.3005 -0.1732
  512loPI   C3B 8191  16.689   8.996   8.834  0.0388  0.0696  0.1511
  512loPI   C4B 8192  16.581   8.975   8.445 -0.2449 -0.2578 -0.0459
  513loPI    C1 8193  16.526  17.467  10.219  0.1488 -0.0049  0.2763
  513loPI    C2 8194  16.172  17.642  10.280  0.1958  0.2572 -0.1568
  513loPI    C3 8195  16.503  17.801  10.438  0.1528  0.1479  0.0474
  513loPI   PO4 8196  16.510  17.408   9.930  0.0947  0.0399 -0.1331
  513loPI   GL1 8197  16.336  17.067   9.723  0.0303  0.1753 -0.0696
  513loPI   GL2 8198  16.641  16.948   9.828  0.1682  0.0711  0.0015
  513loPI   C1A 8199  16.160  17.171   9.344  0.0264  0.2081  0.0510
  513loPI   C2A 8200  16.164  17.072   8.987  0.1200 -0.1587 -0.4203
  513loPI   C3A 8201  16.186  17.019   8.544 -0.1087 -0.2155 -0.0395
  513loPI   C4A 8202  15.940  16.786   8.317  0.2054  0.2522 -0.1569
  513loPI   C5A 8203  15.877  16.676   7.850 -0.3815  0.0281  0.4049
  513loPI   C6A 8204  16.156  16.526   7.445 -0.1797  0.2860 -0.0022
  513loPI   C1B 8205  16.661  17.000   9.371  0.1614 -0.1102  0.3959
  513loPI   C2B 8206  16.628  17.345   9.049 -0.0995  0.2461  0.0087
  513loPI   C3B 8207  16.732  17.375   8.616 -0.1897 -0.1163 -0.2942
  513loPI   C4B 8208  16.868  17.412   8.320  0.1501  0.1419  0.0170
  514loPI    C1 8209  16.277  16.649  10.116  0.1995 -0.0575 -0.1867
  514loPI    C2 8210  16.206  16.301  10.300  0.0948  0.0497 -0.0220
  514loPI    C3 8211  16.526  16.519  10.401  0.0626  0.0863  0.0011
  514loPI   PO4 8212  16.289  16.582   9.919  0.3244  0.2059  0.2325
  514loPI   GL1 8213  16.247  16.636   9.450  0.2219  0.2179  0.1973
  514loPI   GL2 8214  16.086  16.338   9.523 -0.1859  0.0057 -0.1523
  514loPI   C1A 8215  16.476  16.696   9.064 -0.1513  0.0945  0.3015
  514loPI   C2A 8216  16.654  16.921   8.796 -0.2009 -0.0632 -0.2292
  514loPI   C3A 8217  16.597  16.982   8.301  0.1422 -0.0005  0.0206
  514loPI   C4A 8218  16.622  17.251   7.930 -0.2520 -0.2485 -0.1434
  514loPI   C5A 8219  16.476  17.486   7.526 -0.1703  0.2156 -0.2747
  514loPI   C6A 8220  16.566  17.884   7.317  0.0453 -0.1654 -0.0770
  514loPI   C1B 8221  16.175  16.276   9.040  0.0415  0.0253  0.0617
  514loPI   C2B 8222  16.354  16.512   8.653 -0.0994 -0.0734  0.0907
  514loPI   C3B 8223  16.391  16.574   8.202  0.0611  0.0491 -0.2130
  514loPI   C4B 8224  16.505  16.750   7.753 -0.0923  0.0660 -0.1225
  515loPI    C1 8225  17.483  15.747  10.483 -0.1602 -0.4668 -0.2584
  515loPI    C2 8226  17.683  15.657  10.817 -0.4746 -0.0667  0.0484
  515loPI    C3 8227  17.431  15.391  10.657 -0.0101 -0.4214 -0.1185
  515loPI   PO4 8228  17.695  15.939  10.313  0.5466  0.0462 -0.2431
  515loPI   GL1 8229  17.989  16.021   9.944 -0.1998  0.0281  0.0322
  515loPI   GL2 8230  18.217  16.242   9.918  0.1001 -0.0304 -0.0188
  515loPI   C1A 8231  17.629  16.013   9.674  0.0472 -0.0551  0.1505
  515loPI   C2A 8232  17.696  16.027   9.193  0.0979 -0.3711 -0.1551
  515loPI   C3A 8233  17.657  16.142   8.704 -0.1097 -0.0480  0.0934
  515loPI   C4A 8234  17.796  16.339   8.369 -0.1546  0.3578  0.2195
  515loPI   C5A 8235  17.899  16.478   7.994  0.0297 -0.0595 -0.1055
  515loPI   C6A 8236  18.299  16.589   7.701  0.1264 -0.4839 -0.1676
  515loPI   C1B 8237  18.154  16.014   9.463  0.1440  0.1506  0.4849
  515loPI   C2B 8238  18.184  16.203   9.061 -0.0219  0.4241  0.1231
  515loPI   C3B 8239  18.225  16.255   8.557  0.1929 -0.0838 -0.2146
  515loPI   C4B 8240  18.343  16.353   8.113 -0.1718 -0.1186 -0.3010
  516loPI    C1 8241  16.389  12.225  10.469 -0.3075  0.1702 -0.1996
  516loPI    C2 8242  16.052  12.151  10.671 -0.0891 -0.3034  0.0058
  516loPI    C3 8243  16.399  12.187  10.867 -0.0127  0.1728 -0.2049
  516loPI   PO4 8244  16.461  12.086  10.257  0.1308  0.2473  0.0148
  516loPI   GL1 8245  16.476  12.189   9.787 -0.2043  0.0435 -0.0275
  516loPI   GL2 8246  16.305  11.881   9.700  0.0551 -0.2207  0.0685
  516loPI   C1A 8247  16.546  12.303   9.357  0.0435 -0.1072  0.2128
  516loPI   C2A 8248  16.467  12.051   8.961 -0.3736 -0.1836  0.3115
  516loPI   C3A 8249  16.201  12.101   8.508 -0.1228 -0.2891  0.0092
  516loPI   C4A 8250  16.324  12.424   8.293 -0.3367 -0.0399  0.2159
  516loPI   C5A 8251  16.440  12.574   7.877  0.2720  0.0258  0.0615
  516loPI   C6A 8252  16.250  12.855   7.508 -0.0508 -0.1441  0.4137
  516loPI   C1B 8253  16.422  11.621   9.344 -0.1794  0.0163 -0.1671
  516loPI   C2B 8254  16.335  11.542   8.881 -0.3268  0.1376 -0.1508
  516loPI   C3B 8255  16.215  11.301   8.422 -0.1945  0.1472 -0.1325
  516loPI   C4B 8256  15.898  11.224   8.082  0.3212 -0.0989 -0.0419
  517loPI    C1 8257  16.907   3.158  10.193  0.3092  0.0952  0.1043
  517loPI    C2 8258  16.695   3.497  10.206  0.0974 -0.0364  0.1370
  517loPI    C3 8259  16.787   3.305  10.545  0.0765 -0.0976  0.1082
  517loPI   PO4 8260  16.871   3.164   9.906  0.2691 -0.0504 -0.1119
  517loPI   GL1 8261  17.001   3.111   9.617 -0.0991  0.0545  0.2596
  517loPI   GL2 8262  17.188   2.836   9.581 -0.1776 -0.1640  0.1342
  517loPI   C1A 8263  16.755   3.059   9.274 -0.1483 -0.3141 -0.0739
  517loPI   C2A 8264  16.561   2.975   8.857  0.3394 -0.0935 -0.1702
  517loPI   C3A 8265  16.523   2.834   8.416 -0.0026  0.0064 -0.1590
  517loPI   C4A 8266  16.394   2.885   7.950 -0.0355 -0.0630 -0.2452
  517loPI   C5A 8267  16.360   3.131   7.670  0.0636  0.2194  0.0774
  517loPI   C6A 8268  16.426   2.965   7.268 -0.0427  0.0951  0.1446
  517loPI   C1B 8269  17.235   2.891   9.089 -0.0306 -0.1576 -0.0441
  517loPI   C2B 8270  17.034   3.107   8.833 -0.2507  0.3315  0.1520
  517loPI   C3B 8271  16.810   3.307   8.533  0.0580 -0.2326 -0.0277
  517loPI   C4B 8272  16.730   3.346   8.082  0.1493 -0.0649 -0.1622
  518loPI    C1 8273   5.439  11.525  10.608 -0.3409  0.0845  0.0642
  518loPI    C2 8274   5.148  11.795  10.560 -0.1999  0.2236 -0.0220
  518loPI    C3 8275   5.331  11.759  10.914 -0.1229  0.3398 -0.0498
  518loPI   PO4 8276   5.267  11.309  10.479  0.3235  0.0100 -0.2848
  518loPI   GL1 8277   5.185  10.988  10.158 -0.1824  0.0730  0.0177
  518loPI   GL2 8278   4.966  10.754  10.171  0.2097 -0.0541  0.0732
  518loPI   C1A 8279   5.195  11.175   9.785 -0.0229 -0.2284 -0.1326
  518loPI   C2A 8280   5.369  10.971   9.406  0.1694  0.2325  0.1926
  518loPI   C3A 8281   5.234  10.877   8.878 -0.0679 -0.2374 -0.3130
  518loPI   C4A 8282   5.307  11.034   8.437 -0.2348  0.3458  0.1364
  518loPI   C5A 8283   5.538  11.064   8.072 -0.2158 -0.2565 -0.0666
  518loPI   C6A 8284   5.714  10.794   7.790 -0.3364 -0.1596 -0.1043
  518loPI   C1B 8285   4.951  10.707   9.777 -0.2529 -0.2738  0.1137
  518loPI   C2B 8286   4.926  10.543   9.325  0.0182 -0.3236  0.2172
  518loPI   C3B 8287   4.900  10.529   8.860 -0.0792 -0.0361  0.0380
  518loPI   C4B 8288   4.864  10.874   8.550  0.0787 -0.1082  0.3685
  519loPI    C1 8289   6.779  14.988  10.034 -0.2292  0.3775 -0.0203
  519loPI    C2 8290   6.424  14.887  10.188 -0.0306 -0.3040  0.0245
  519loPI    C3 8291   6.726  14.986  10.431 -0.1015 -0.0143 -0.0012
  519loPI   PO4 8292   6.858  14.813   9.822  0.0226 -0.0900 -0.1621
  519loPI   GL1 8293   6.935  14.635   9.410  0.0388  0.0390 -0.0899
  519loPI   GL2 8294   7.168  14.504   9.296 -0.4141 -0.3463  0.0160
  519loPI   C1A 8295   6.678  14.449   9.212 -0.4482 -0.0167 -0.3042
  519loPI   C2A 8296   6.712  14.265   8.819  0.3925 -0.0805  0.0549
  519loPI   C3A 8297   6.876  14.178   8.396  0.0735  0.0594  0.2178
  519loPI   C4A 8298   7.161  14.313   8.009  0.1251  0.0099 -0.0267
  519loPI   C5A 8299   7.524  14.112   7.765  0.0388  0.1815 -0.5296
  519loPI   C6A 8300   7.761  13.990   8.027  0.0881 -0.0718 -0.0910
  519loPI   C1B 8301   7.545  14.657   8.959  0.0730 -0.1918  0.0511
  519loPI   C2B 8302   7.664  14.540   8.568  0.1603 -0.0805 -0.2923
  519loPI   C3B 8303   7.646  14.488   8.157 -0.0535 -0.0285  0.0860
  519loPI   C4B 8304   7.870  14.451   7.763 -0.2227 -0.1266  0.1680
  520loPI    C1 8305  14.917  13.687  10.138  0.0154  0.2077 -0.1973
  520loPI    C2 8306  15.118  14.009  10.264  0.0212  0.1756 -0.1235
  520loPI    C3 8307  14.755  13.931  10.411  0.1143  0.0237  0.0296
  520loPI   PO4 8308  14.917  13.687   9.877 -0.0504  0.0613  0.0755
  520loPI   GL1 8309  15.055  13.385   9.520  0.1050  0.0241 -0.2304
  520loPI   GL2 8310  15.233  13.693   9.471 -0.0489 -0.3036  0.1338
  520loPI   C1A 8311  15.050  13.210   9.099 -0.0471  0.2151  0.0547
  520loPI   C2A 8312  15.215  13.151   8.735  0.2983 -0.2952 -0.1033
  520loPI   C3A 8313  15.355  12.920   8.363 -0.1897  0.3907 -0.4632
  520loPI   C4A 8314  15.386  12.825   8.007  0.0218  0.1044  0.0012
  520loPI   C5A 8315  15.688  13.028   7.664 -0.1006 -0.1957  0.1250
  520loPI   C6A 8316  16.038  13.241   7.373 -0.0930 -0.1679  0.2539
  520loPI   C1B 8317  15.499  13.502   9.127 -0.0698  0.0375 -0.0063
  520loPI   C2B 8318  15.758  13.442   8.839  0.1605  0.3502  0.0601
  520loPI   C3B 8319  15.853  13.090   8.578 -0.4262  0.0011 -0.0824
  520loPI   C4B 8320  15.765  13.136   8.128  0.2696 -0.1533  0.2674
  521loPI    C1 8321   2.100  14.547   9.897 -0.0736 -0.1617  0.0185
  521loPI    C2 8322   1.820  14.557  10.182  0.2495 -0.1585  0.3435
  521loPI    C3 8323   2.006  14.213  10.096  0.0256 -0.1992  0.0032
  521loPI   PO4 8324   1.982  14.676   9.649  0.2855  0.0668  0.0262
  521loPI   GL1 8325   1.904  14.535   9.266  0.0421  0.1839  0.1727
  521loPI   GL2 8326   1.571  14.475   9.246  0.2417  0.2114  0.1477
  521loPI   C1A 8327   1.930  14.584   8.856  0.2474  0.0764  0.2255
  521loPI   C2A 8328   1.869  14.477   8.541 -0.0455  0.0341 -0.1123
  521loPI   C3A 8329   1.969  14.538   8.145  0.1696 -0.0808 -0.3604
  521loPI   C4A 8330   1.995  14.677   7.744  0.1555 -0.1849  0.3849
  521loPI   C5A 8331   1.964  14.813   7.261  0.0406  0.2290 -0.0273
  521loPI   C6A 8332   1.891  15.034   6.991  0.0319  0.2963  0.1353
  521loPI   C1B 8333   1.457  14.371   8.726  0.0012 -0.0607 -0.1166
  521loPI   C2B 8334   1.398  14.461   8.362  0.0380 -0.0473  0.1337
  521loPI   C3B 8335   1.295  14.507   7.961  0.0533  0.1013 -0.2458
  521loPI   C4B 8336   1.266  14.927   7.684 -0.0180 -0.0205 -0.0449
  522loPI    C1 8337  12.712   9.746   9.903 -0.1123 -0.2061  0.0570
  522loPI    C2 8338  12.617   9.404  10.087 -0.2403 -0.2763 -0.1365
  522loPI    C3 8339  12.333   9.673  10.006 -0.1358 -0.1107  0.0394
  522loPI   PO4 8340  12.909   9.565   9.622 -0.2310 -0.0903  0.0298
  522loPI   GL1 8341  12.813   9.416   9.310 -0.2736  0.0965  0.2314
  522loPI   GL2 8342  13.165   9.527   9.218  0.4878  0.1063 -0.1122
  522loPI   C1A 8343  12.756   9.566   8.902  0.1201  0.0690  0.2977
  522loPI   C2A 8344  12.835   9.565   8.521 -0.0631 -0.0817 -0.3169
  522loPI   C3A 8345  13.075   9.480   8.212 -0.1272  0.1187  0.1919
  522loPI   C4A 8346  12.995   9.572   7.823  0.5259 -0.0993  0.2018
  522loPI   C5A 8347  13.239   9.622   7.547  0.3098 -0.1554 -0.1222
  522loPI   C6A 8348  13.643   9.360   7.541  0.0407 -0.0796 -0.0618
  522loPI   C1B 8349  13.286   9.354   8.803 -0.3206  0.1371 -0.0885
  522loPI   C2B 8350  13.278   9.098   8.419 -0.0316 -0.1469  0.0719
  522loPI   C3B 8351  13.205   8.695   8.219  0.0323 -0.1937  0.0598
  522loPI   C4B 8352  13.246   8.530   8.583 -0.1476 -0.1222 -0.0122
  523loPI    C1 8353   0.178   8.648  10.150 -0.0083 -0.2434  0.0165
  523loPI    C2 8354   0.518   8.577   9.952  0.0629 -0.2083  0.1253
  523loPI    C3 8355   0.432   8.947  10.077  0.0114 -0.2276  0.1475
  523loPI   PO4 8356  -0.031   8.536   9.974  0.2228 -0.1099 -0.0005
  523loPI   GL1 8357   0.192   8.331   9.610  0.0826 -0.1900  0.2524
  523loPI   GL2 8358   0.391   8.246   9.415 -0.1888  0.2607  0.0847
  523loPI   C1A 8359  -0.061   8.311   9.202  0.0535  0.1762  0.1718
  523loPI   C2A 8360  -0.164   8.397   8.833 -0.2422  0.4512 -0.0260
  523loPI   C3A 8361  -0.308   8.280   8.314  0.1742  0.1108  0.1180
  523loPI   C4A 8362  -0.257   8.602   7.988  0.1544  0.0197  0.2616
  523loPI   C5A 8363  -0.051   8.652   7.695 -0.0947 -0.0564  0.4379
  523loPI   C6A 8364   0.142   9.053   7.508 -0.0823 -0.0257 -0.0120
  523loPI   C1B 8365   0.400   8.299   8.971 -0.1797 -0.0317  0.0594
  523loPI   C2B 8366   0.301   8.283   8.478  0.2992 -0.3806 -0.1550
  523loPI   C3B 8367   0.325   8.223   8.023 -0.2558 -0.3939 -0.1751
  523loPI   C4B 8368   0.377   8.243   7.665 -0.1089  0.1394 -0.1186
  524loPI    C1 8369   9.546  13.643   9.811  0.1831 -0.4150 -0.0293
  524loPI    C2 8370   9.803  13.723  10.107  0.0389  0.1043 -0.0328
  524loPI    C3 8371   9.426  13.622  10.192  0.0623  0.0111 -0.0379
  524loPI   PO4 8372   9.752  13.601   9.547 -0.0461 -0.2056  0.0328
  524loPI   GL1 8373   9.767  13.367   9.226 -0.1550 -0.1361 -0.1461
  524loPI   GL2 8374  10.004  13.117   9.175 -0.2712  0.1056  0.2320
  524loPI   C1A 8375   9.456  13.268   8.901 -0.0418  0.1229 -0.2589
  524loPI   C2A 8376   9.253  13.148   8.596 -0.0124  0.4296 -0.1508
  524loPI   C3A 8377   9.171  12.879   8.318  0.0625 -0.2004  0.2501
  524loPI   C4A 8378   9.118  12.892   7.972  0.0244  0.1639 -0.0878
  524loPI   C5A 8379   9.038  12.870   7.532 -0.0621 -0.3184  0.1693
  524loPI   C6A 8380   8.902  13.027   7.185 -0.1931  0.1465  0.0851
  524loPI   C1B 8381   9.877  13.105   8.707  0.1488 -0.0370 -0.1934
  524loPI   C2B 8382   9.689  12.899   8.437  0.2285 -0.1361 -0.3191
  524loPI   C3B 8383   9.569  12.663   8.125  0.1592 -0.1335  0.0851
  524loPI   C4B 8384   9.376  12.528   7.804  0.0524 -0.2239  0.0605
  525loPI    C1 8385  16.548   6.845   9.916  0.2426  0.0741  0.3786
  525loPI    C2 8386  16.438   6.502  10.090  0.0801 -0.0778 -0.0123
  525loPI    C3 8387  16.335   6.852  10.254 -0.1001 -0.2170  0.1759
  525loPI   PO4 8388  16.493   6.803   9.681 -0.1255 -0.3275 -0.0193
  525loPI   GL1 8389  16.393   6.427   9.551  0.0385 -0.3626 -0.2439
  525loPI   GL2 8390  16.408   6.161   9.415 -0.1605 -0.1419  0.3385
  525loPI   C1A 8391  16.721   6.451   9.080 -0.3252  0.1414 -0.0939
  525loPI   C2A 8392  16.713   6.512   8.590 -0.0450  0.1905  0.4390
  525loPI   C3A 8393  16.433   6.472   8.192  0.0567 -0.0251 -0.2989
  525loPI   C4A 8394  16.463   6.748   7.896  0.1455  0.3681 -0.0642
  525loPI   C5A 8395  16.351   7.116   7.511  0.0008 -0.1532 -0.0928
  525loPI   C6A 8396  16.069   7.290   7.271 -0.0003  0.1633  0.0385
  525loPI   C1B 8397  16.307   6.140   8.981  0.0957  0.0141 -0.0058
  525loPI   C2B 8398  16.457   6.072   8.610 -0.1276 -0.0312  0.0121
  525loPI   C3B 8399  16.547   5.892   8.208  0.3105  0.1547 -0.1322
  525loPI   C4B 8400  16.655   5.658   7.853 -0.0861  0.2716 -0.1931
  526loPI    C1 8401  15.733  16.429  10.183  0.2261  0.0878 -0.2141
  526loPI    C2 8402  15.661  16.426  10.576  0.2019 -0.0286 -0.2192
  526loPI    C3 8403  15.859  16.732  10.412 -0.1188  0.2071 -0.1760
  526loPI   PO4 8404  15.826  16.271  10.005  0.1122 -0.1143  0.3889
  526loPI   GL1 8405  15.688  15.997   9.710  0.1721  0.0250 -0.1295
  526loPI   GL2 8406  15.290  15.909   9.549 -0.2585 -0.0435  0.0089
  526loPI   C1A 8407  15.917  15.882   9.366 -0.4880 -0.1944 -0.0173
  526loPI   C2A 8408  16.283  15.817   9.176 -0.0480  0.1215 -0.3589
  526loPI   C3A 8409  16.287  15.890   8.723  0.1009 -0.0473 -0.0718
  526loPI   C4A 8410  16.016  16.060   8.439  0.0027  0.0720  0.4677
  526loPI   C5A 8411  16.048  16.235   8.071  0.0495  0.0287 -0.0163
  526loPI   C6A 8412  15.767  16.191   7.638  0.0237  0.1627  0.1262
  526loPI   C1B 8413  15.347  15.915   9.226 -0.0939 -0.1104 -0.1377
  526loPI   C2B 8414  15.325  15.824   8.849 -0.1108  0.2449  0.0817
  526loPI   C3B 8415  15.432  15.922   8.460 -0.1292  0.1186 -0.0281
  526loPI   C4B 8416  15.420  16.227   8.048  0.0422  0.0872  0.0825
  527loPI    C1 8417  11.938  17.448   9.899 -0.0644 -0.0146 -0.0107
  527loPI    C2 8418  11.696  17.142   9.811  0.0787 -0.1478  0.0547
  527loPI    C3 8419  11.684  17.309  10.175 -0.1896  0.1033 -0.0655
  527loPI   PO4 8420  11.883  17.587   9.660 -0.0357  0.0453  0.4937
  527loPI   GL1 8421  11.602  17.722   9.340  0.1753 -0.0732 -0.0347
  527loPI   GL2 8422  11.761  17.335   9.214  0.1566 -0.0106 -0.1129
  527loPI   C1A 8423  11.352  17.771   8.988  0.1354  0.1316 -0.1850
  527loPI   C2A 8424  11.124  17.747   8.563 -0.4664  0.2342  0.1353
  527loPI   C3A 8425  11.183  17.649   8.121 -0.5106 -0.0041  0.1760
  527loPI   C4A 8426  11.502  17.860   7.695 -0.0865 -0.1609 -0.0660
  527loPI   C5A 8427  11.777  17.797   7.383  0.1298  0.0919  0.0099
  527loPI   C6A 8428  11.862  17.361   7.177 -0.1593 -0.3235  0.0015
  527loPI   C1B 8429  11.772  17.534   8.848 -0.1353  0.1516  0.0865
  527loPI   C2B 8430  11.643  17.584   8.425  0.1372 -0.1866 -0.0553
  527loPI   C3B 8431  11.762  17.609   8.062  0.3938  0.1001  0.0589
  527loPI   C4B 8432  11.922  17.419   7.733 -0.0573 -0.2020  0.1523
  528loPI    C1 8433   4.301  18.123  10.327 -0.0916  0.2064  0.0563
  528loPI    C2 8434   4.124  18.252  10.662 -0.1322 -0.1263  0.1662
  528loPI    C3 8435   4.523  18.224  10.644 -0.1157  0.1314  0.0974
  528loPI   PO4 8436   4.141  18.208  10.118 -0.4074 -0.2355 -0.1146
  528loPI   GL1 8437   3.936  18.135   9.744  0.1387  0.0163  0.0454
  528loPI   GL2 8438   3.750  18.388   9.594  0.3530 -0.0920 -0.1237
  528loPI   C1A 8439   4.132  18.453   9.354 -0.0096  0.0005 -0.2722
  528loPI   C2A 8440   4.171  18.566   8.900 -0.0430 -0.1801  0.0077
  528loPI   C3A 8441   3.964  18.651   8.571 -0.1178  0.1313  0.3021
  528loPI   C4A 8442   3.991  18.524   8.158 -0.1680 -0.0052  0.0261
  528loPI   C5A 8443   3.760  18.247   7.809  0.3183 -0.1118  0.2720
  528loPI   C6A 8444   3.660  17.829   7.798  0.3444  0.2749 -0.1075
  528loPI   C1B 8445   3.634  18.338   9.121  0.1062 -0.2046  0.0518
  528loPI   C2B 8446   3.548  18.450   8.672 -0.0317 -0.2410 -0.1162
  528loPI   C3B 8447   3.382  18.498   8.267  0.0617  0.2430 -0.2104
  528loPI   C4B 8448   3.104  18.839   8.154 -0.0994 -0.5092 -0.1971
  529loPI    C1 8449  12.134  14.208  10.130  0.0710  0.0402  0.0417
  529loPI    C2 8450  11.907  13.890  10.216  0.2328 -0.1239 -0.1292
  529loPI    C3 8451  12.208  13.993  10.459  0.0267  0.0480  0.0568
  529loPI   PO4 8452  12.224  14.141   9.862 -0.0949 -0.0661 -0.3681
  529loPI   GL1 8453  12.079  14.205   9.517 -0.1125  0.0232 -0.3129
  529loPI   GL2 8454  12.177  13.883   9.422  0.3798  0.2303 -0.0695
  529loPI   C1A 8455  12.347  14.322   9.179  0.0756 -0.1069 -0.0155
  529loPI   C2A 8456  12.536  14.190   8.746 -0.1170 -0.1015  0.1996
  529loPI   C3A 8457  12.505  13.938   8.396 -0.2583  0.0093  0.1701
  529loPI   C4A 8458  12.517  13.758   7.928  0.0392  0.0871 -0.4303
  529loPI   C5A 8459  12.300  13.735   7.501  0.0330  0.2798 -0.2509
  529loPI   C6A 8460  12.262  13.321   7.476  0.0021 -0.1744 -0.3752
  529loPI   C1B 8461  12.242  13.760   8.914 -0.0202  0.0143 -0.0660
  529loPI   C2B 8462  12.074  13.640   8.478 -0.3085 -0.0311 -0.0588
  529loPI   C3B 8463  11.764  13.457   8.413 -0.0409  0.3652 -0.1663
  529loPI   C4B 8464  11.556  13.155   8.350  0.0308 -0.0974  0.1763
  530loPI    C1 8465  10.385   1.131  10.174  0.0680 -0.3641 -0.1396
  530loPI    C2 8466  10.764   1.003  10.152  0.1784 -0.0889  0.1048
  530loPI    C3 8467  10.685   1.395  10.174 -0.1149 -0.1497  0.1835
  530loPI   PO4 8468  10.259   1.045   9.964 -0.3300  0.0704  0.1088
  530loPI   GL1 8469  10.276   0.994   9.535 -0.1862 -0.0928  0.0762
  530loPI   GL2 8470  10.225   0.767   9.335 -0.0725 -0.1089  0.0142
  530loPI   C1A 8471  10.626   1.098   9.190  0.0778 -0.1140  0.1534
  530loPI   C2A 8472  10.836   1.076   8.747 -0.0483  0.2445  0.0181
  530loPI   C3A 8473  10.690   1.245   8.325  0.1256 -0.1555 -0.0600
  530loPI   C4A 8474  10.723   1.131   7.908  0.0482  0.0750 -0.0258
  530loPI   C5A 8475  10.851   0.801   7.608  0.1064 -0.1711  0.3006
  530loPI   C6A 8476  10.864   0.486   7.387 -0.0169 -0.1984  0.1609
  530loPI   C1B 8477  10.322   0.803   8.872  0.1595 -0.1144 -0.0027
  530loPI   C2B 8478  10.366   0.822   8.445  0.2660 -0.2847  0.2034
  530loPI   C3B 8479  10.350   0.877   7.902 -0.0192 -0.0252 -0.2414
  530loPI   C4B 8480  10.289   1.104   7.615 -0.0067  0.0100  0.1168
  531loPI    C1 8481   0.756   7.589   9.895 -0.0773 -0.0154  0.1100
  531loPI    C2 8482   0.588   7.638   9.535 -0.0582  0.0302  0.1073
  531loPI    C3 8483   0.601   7.943   9.793  0.1671  0.0746  0.0452
  531loPI   PO4 8484   0.965   7.422   9.832  0.4167  0.2058  0.4155
  531loPI   GL1 8485   1.105   7.365   9.390  0.2339  0.1276 -0.0713
  531loPI   GL2 8486   0.840   7.172   9.419  0.1311 -0.3087  0.0513
  531loPI   C1A 8487   0.972   7.413   8.904 -0.1899  0.4075 -0.1215
  531loPI   C2A 8488   0.745   7.220   8.516 -0.0850  0.0072  0.0544
  531loPI   C3A 8489   0.740   7.143   8.151  0.1867 -0.3639  0.1409
  531loPI   C4A 8490   0.473   7.076   7.775 -0.3596  0.0372 -0.3055
  531loPI   C5A 8491   0.076   7.270   7.641 -0.1667  0.0053  0.0495
  531loPI   C6A 8492  -0.379   7.179   7.482  0.0659  0.0373  0.2922
  531loPI   C1B 8493   0.707   7.011   9.010  0.2178 -0.1518 -0.1402
  531loPI   C2B 8494   0.698   6.750   8.592 -0.3380 -0.2191  0.2596
  531loPI   C3B 8495   0.492   6.697   8.124 -0.3367  0.2934 -0.1244
  531loPI   C4B 8496   0.521   6.561   7.762  0.1603 -0.0473 -0.2691
  532loPI    C1 8497   7.205   4.187  10.137 -0.0203  0.2186  0.0575
  532loPI    C2 8498   7.219   4.441  10.445  0.1383  0.1752  0.0868
  532loPI    C3 8499   6.908   4.193  10.404  0.0151  0.3269  0.0950
  532loPI   PO4 8500   7.384   4.193   9.992 -0.0141 -0.0732 -0.3019
  532loPI   GL1 8501   7.809   4.298   9.725  0.3248 -0.3823  0.1495
  532loPI   GL2 8502   7.737   3.922   9.717  0.1317 -0.1218  0.1425
  532loPI   C1A 8503   7.739   4.375   9.388  0.0390  0.0262  0.1729
  532loPI   C2A 8504   7.776   4.375   8.923  0.1884 -0.0357  0.0888
  532loPI   C3A 8505   7.660   4.383   8.540  0.0444 -0.1556  0.1814
  532loPI   C4A 8506   7.878   4.360   8.134 -0.0867 -0.0463  0.3952
  532loPI   C5A 8507   8.031   4.328   7.661 -0.1066  0.0577 -0.2114
  532loPI   C6A 8508   8.370   4.265   7.483  0.2397  0.2112 -0.0732
  532loPI   C1B 8509   7.725   3.910   9.235 -0.3657  0.2612 -0.2814
  532loPI   C2B 8510   7.705   3.839   8.781  0.2199 -0.0315  0.2322
  532loPI   C3B 8511   7.746   3.803   8.367  0.1148 -0.1572  0.4595
  532loPI   C4B 8512   7.704   3.881   7.895  0.1813 -0.0821 -0.1860
  533loPI    C1 8513  16.650  15.735  10.238  0.1472  0.1678 -0.0475
  533loPI    C2 8514  16.261  15.713  10.326  0.1582  0.1254 -0.0097
  533loPI    C3 8515  16.526  15.501  10.538  0.1996  0.1388 -0.0484
  533loPI   PO4 8516  16.742  16.126  10.214 -0.0088 -0.1590 -0.2444
  533loPI   GL1 8517  16.948  16.278   9.834 -0.2237 -0.3112 -0.0235
  533loPI   GL2 8518  16.751  16.385   9.685  0.2821  0.1596  0.1249
  533loPI   C1A 8519  17.152  16.068   9.542 -0.1889  0.0121  0.2231
  533loPI   C2A 8520  17.135  16.092   9.091  0.1349 -0.3186  0.1474
  533loPI   C3A 8521  17.142  16.099   8.621 -0.2726  0.2177 -0.4020
  533loPI   C4A 8522  16.995  16.046   8.241 -0.0036 -0.0141  0.0373
  533loPI   C5A 8523  17.043  16.003   7.856 -0.0728  0.2622  0.2518
  533loPI   C6A 8524  17.028  15.834   7.491 -0.0458  0.1751 -0.3527
  533loPI   C1B 8525  16.649  16.186   9.285 -0.0022  0.0059  0.1047
  533loPI   C2B 8526  16.682  16.146   8.806  0.2636 -0.2706 -0.1072
  533loPI   C3B 8527  16.531  16.119   8.407 -0.1724  0.2099  0.1788
  533loPI   C4B 8528  16.492  15.946   8.047  0.2351  0.0088 -0.0374
  534loPI    C1 8529   4.505  17.644  10.339  0.0104 -0.0023  0.0412
  534loPI    C2 8530   4.702  17.643  10.687  0.1505 -0.1252 -0.0371
  534loPI    C3 8531   4.307  17.705  10.681  0.1673  0.0057  0.1317
  534loPI   PO4 8532   4.720  17.842  10.205 -0.0180  0.0108  0.1764
  534loPI   GL1 8533   4.499  17.961   9.908 -0.0452  0.1266  0.0876
  534loPI   GL2 8534   4.270  17.763   9.837  0.0441 -0.3082  0.2346
  534loPI   C1A 8535   4.469  18.151   9.517 -0.1460 -0.3306  0.1288
  534loPI   C2A 8536   4.558  18.278   9.073  0.0783 -0.0977 -0.0352
  534loPI   C3A 8537   4.559  18.267   8.647 -0.2316 -0.3110  0.2336
  534loPI   C4A 8538   4.493  18.492   8.284  0.1363 -0.0427 -0.0729
  534loPI   C5A 8539   4.607  18.360   7.780 -0.0195  0.2626  0.0612
  534loPI   C6A 8540   4.450  18.077   7.456 -0.1505 -0.1793  0.0396
  534loPI   C1B 8541   4.050  17.790   9.386 -0.0325  0.1290 -0.0348
  534loPI   C2B 8542   4.071  18.079   9.062 -0.1047 -0.2311 -0.1318
  534loPI   C3B 8543   3.975  18.150   8.702 -0.0661  0.1501  0.0220
  534loPI   C4B 8544   3.767  18.064   8.327  0.0652 -0.3239  0.1030
  535loPI    C1 8545   5.378   3.293  10.346  0.1186  0.1573  0.1050
  535loPI    C2 8546   5.654   3.548  10.209  0.1658  0.1797  0.2406
  535loPI    C3 8547   5.762   3.245  10.448  0.1061  0.0478  0.1020
  535loPI   PO4 8548   5.270   3.181  10.130  0.1215  0.0459  0.1616
  535loPI   GL1 8549   5.315   3.104   9.591  0.1496  0.0865  0.0843
  535loPI   GL2 8550   5.131   3.263   9.470  0.1251  0.1625 -0.1096
  535loPI   C1A 8551   5.447   2.905   9.184  0.0640 -0.2718  0.1572
  535loPI   C2A 8552   5.382   2.773   8.771  0.0425 -0.3074  0.0838
  535loPI   C3A 8553   5.444   2.535   8.423 -0.2235 -0.0642  0.2002
  535loPI   C4A 8554   5.659   2.570   8.076 -0.1213  0.1990  0.2307
  535loPI   C5A 8555   6.030   2.461   7.842 -0.3507  0.0251 -0.0097
  535loPI   C6A 8556   6.542   2.429   7.726 -0.0185 -0.3780 -0.1443
  535loPI   C1B 8557   5.181   3.221   8.935 -0.2220  0.1927  0.2190
  535loPI   C2B 8558   5.196   3.190   8.554 -0.1765 -0.0738  0.3003
  535loPI   C3B 8559   5.155   3.355   8.172 -0.0063 -0.1860 -0.3940
  535loPI   C4B 8560   4.929   3.566   7.956 -0.2581  0.2356  0.1584
  536loPI    C1 8561   2.416   4.237  10.766 -0.1187  0.0958 -0.0077
  536loPI    C2 8562   2.564   3.867  10.786 -0.2610  0.0432  0.0882
  536loPI    C3 8563   2.260   3.974  11.024 -0.3861  0.1453 -0.1148
  536loPI   PO4 8564   2.341   4.240  10.541 -0.0825 -0.1842 -0.0967
  536loPI   GL1 8565   2.379   4.183  10.143 -0.0211 -0.0251  0.2995
  536loPI   GL2 8566   2.549   4.020   9.871 -0.0932  0.0264 -0.0795
  536loPI   C1A 8567   2.542   4.497   9.766 -0.1334 -0.3122  0.1424
  536loPI   C2A 8568   2.456   4.692   9.423 -0.0192  0.2160 -0.0062
  536loPI   C3A 8569   2.630   4.950   9.110  0.1127 -0.3031  0.0062
  536loPI   C4A 8570   2.691   5.095   8.727 -0.2757  0.1283  0.2197
  536loPI   C5A 8571   2.559   4.893   8.435  0.1867 -0.1872  0.2256
  536loPI   C6A 8572   2.141   4.784   8.358 -0.1497 -0.1334 -0.2241
  536loPI   C1B 8573   2.573   3.828   9.440  0.1055 -0.1400  0.2134
  536loPI   C2B 8574   2.375   3.796   9.137  0.3713 -0.1028  0.0150
  536loPI   C3B 8575   2.469   3.641   8.715  0.0464 -0.1958 -0.2724
  536loPI   C4B 8576   2.679   3.697   8.395  0.0679 -0.0404 -0.2214
  537loPI    C1 8577   6.376  15.383  10.156 -0.0842  0.0665 -0.1928
  537loPI    C2 8578   6.568  15.709  10.026 -0.0052  0.0639 -0.0851
  537loPI    C3 8579   6.752  15.455  10.274 -0.0844 -0.0363 -0.1281
  537loPI   PO4 8580   6.333  15.260   9.931  0.1804  0.0281  0.0278
  537loPI   GL1 8581   6.369  15.502   9.493  0.5287  0.1842 -0.5052
  537loPI   GL2 8582   6.664  15.400   9.352  0.1541 -0.1746 -0.0149
  537loPI   C1A 8583   6.202  15.289   9.050  0.1227 -0.1800  0.0024
  537loPI   C2A 8584   6.121  15.166   8.694  0.0239 -0.1302 -0.1395
  537loPI   C3A 8585   5.876  15.034   8.349 -0.0352  0.0711  0.1798
  537loPI   C4A 8586   5.442  15.067   8.152 -0.2203  0.1819 -0.0158
  537loPI   C5A 8587   5.170  15.019   7.797  0.0858  0.1361 -0.3307
  537loPI   C6A 8588   4.979  14.759   7.511 -0.0795  0.0953 -0.1966
  537loPI   C1B 8589   6.690  15.406   8.981 -0.0639 -0.0410 -0.0870
  537loPI   C2B 8590   6.677  15.428   8.518 -0.1963 -0.2332 -0.1667
  537loPI   C3B 8591   6.428  15.400   8.297 -0.0433 -0.1173 -0.2109
  537loPI   C4B 8592   6.401  15.130   8.004  0.0616  0.2159  0.0459
  538loPI    C1 8593  11.064   2.504   9.711 -0.3067 -0.2001 -0.0325
  538loPI    C2 8594  11.061   2.206   9.978  0.1226 -0.1732  0.0082
  538loPI    C3 8595  11.182   2.571  10.087 -0.0307 -0.0769 -0.1393
  538loPI   PO4 8596  11.172   2.422   9.463 -0.0001 -0.0522 -0.0845
  538loPI   GL1 8597  11.356   2.487   9.123 -0.0711  0.0990 -0.0231
  538loPI   GL2 8598  11.551   2.232   9.121  0.0451  0.2908  0.1665
  538loPI   C1A 8599  11.211   2.435   8.745 -0.2944  0.3201 -0.1090
  538loPI   C2A 8600  11.365   2.495   8.386  0.1251 -0.0094  0.2052
  538loPI   C3A 8601  11.321   2.466   7.937  0.1244 -0.0214 -0.3846
  538loPI   C4A 8602  11.426   2.549   7.449  0.1699 -0.0239  0.1101
  538loPI   C5A 8603  11.314   2.665   7.036  0.0528  0.1859 -0.0277
  538loPI   C6A 8604  10.964   2.631   6.751 -0.2917  0.0804 -0.2051
  538loPI   C1B 8605  11.771   2.198   8.772  0.4055  0.0279  0.1785
  538loPI   C2B 8606  11.777   2.194   8.372  0.2546  0.3690 -0.0844
  538loPI   C3B 8607  11.680   2.111   7.905 -0.2841 -0.1262 -0.0108
  538loPI   C4B 8608  11.764   1.890   7.471 -0.1825  0.1755 -0.2367
  539loPI    C1 8609   3.412  15.357  10.072  0.1636 -0.0078  0.0103
  539loPI    C2 8610   3.397  15.360  10.472 -0.0209  0.0955  0.0041
  539loPI    C3 8611   3.418  15.012  10.275 -0.1306  0.0356  0.0975
  539loPI   PO4 8612   3.210  15.526  10.024  0.0764 -0.0360  0.2317
  539loPI   GL1 8613   3.033  15.536   9.653  0.0405 -0.0982  0.1355
  539loPI   GL2 8614   2.818  15.519   9.393  0.0719 -0.1410  0.0356
  539loPI   C1A 8615   3.267  15.721   9.343  0.0008  0.0247 -0.0389
  539loPI   C2A 8616   3.264  15.689   8.813 -0.1473 -0.0490 -0.0838
  539loPI   C3A 8617   3.291  15.873   8.335 -0.0929  0.2756 -0.1479
  539loPI   C4A 8618   3.293  15.922   7.905 -0.0035  0.1252  0.0826
  539loPI   C5A 8619   3.168  15.969   7.441 -0.0548  0.0166  0.3788
  539loPI   C6A 8620   3.519  16.036   7.245 -0.2309  0.1633  0.3124
  539loPI   C1B 8621   2.789  15.707   8.981 -0.1814 -0.0898 -0.2595
  539loPI   C2B 8622   2.597  15.696   8.519  0.3366 -0.5182 -0.2132
  539loPI   C3B 8623   2.431  15.997   8.237  0.2816  0.3562 -0.0596
  539loPI   C4B 8624   2.234  16.072   7.796 -0.1404  0.2296 -0.0389
  540loPI    C1 8625   7.844   5.954  10.098 -0.0229 -0.1138  0.0405
  540loPI    C2 8626   8.194   6.143  10.061 -0.1064  0.0139 -0.1105
  540loPI    C3 8627   8.053   6.052  10.424  0.1054 -0.0821 -0.0507
  540loPI   PO4 8628   7.821   5.723   9.883 -0.2081  0.2641 -0.0111
  540loPI   GL1 8629   8.104   5.636   9.475  0.1360 -0.0617 -0.0704
  540loPI   GL2 8630   7.948   5.411   9.586  0.0939 -0.0463  0.0573
  540loPI   C1A 8631   7.932   5.905   9.069  0.0525  0.1342 -0.5247
  540loPI   C2A 8632   7.826   5.959   8.633  0.0021 -0.0999  0.0728
  540loPI   C3A 8633   7.900   6.012   8.236 -0.0050  0.1333 -0.4294
  540loPI   C4A 8634   8.051   5.852   7.849 -0.1250 -0.2146  0.2406
  540loPI   C5A 8635   8.433   5.560   7.773  0.0995  0.3009 -0.0830
  540loPI   C6A 8636   8.613   5.156   7.684 -0.0581  0.0036 -0.1637
  540loPI   C1B 8637   7.855   5.342   9.167 -0.1309 -0.3804 -0.0403
  540loPI   C2B 8638   7.866   5.498   8.689  0.3143 -0.0247 -0.0993
  540loPI   C3B 8639   7.563   5.622   8.383  0.1536  0.2416 -0.0415
  540loPI   C4B 8640   7.485   5.734   7.944 -0.2043 -0.0090  0.0434
  541loPI    C1 8641   4.863   7.863  10.385  0.1470  0.1722  0.2214
  541loPI    C2 8642   5.010   8.231  10.330 -0.0592  0.2451  0.1493
  541loPI    C3 8643   4.986   8.078  10.699  0.0518  0.2925  0.1768
  541loPI   PO4 8644   5.009   7.758  10.136 -0.1944 -0.1532 -0.0305
  541loPI   GL1 8645   4.996   7.614   9.686  0.2039  0.1566 -0.0804
  541loPI   GL2 8646   5.383   7.595   9.701  0.0567 -0.0071  0.0055
  541loPI   C1A 8647   4.969   7.579   9.235 -0.0257 -0.0200 -0.0437
  541loPI   C2A 8648   4.784   7.441   8.837 -0.2810  0.0071 -0.2412
  541loPI   C3A 8649   5.030   7.473   8.466  0.0659 -0.4198  0.0396
  541loPI   C4A 8650   4.891   7.659   8.119  0.2312  0.0564  0.3955
  541loPI   C5A 8651   5.012   7.596   7.823  0.0038 -0.2084 -0.2716
  541loPI   C6A 8652   5.049   7.531   7.429 -0.1230 -0.1213 -0.0799
  541loPI   C1B 8653   5.436   7.688   9.258  0.2004  0.2308 -0.2687
  541loPI   C2B 8654   5.387   7.580   8.863  0.2681 -0.1190  0.1040
  541loPI   C3B 8655   5.779   7.646   8.717  0.1394 -0.1914 -0.0122
  541loPI   C4B 8656   5.933   7.784   8.312 -0.2552  0.0510 -0.1594
  542loPI    C1 8657  14.614   5.735   9.744  0.1262  0.1013 -0.0026
  542loPI    C2 8658  14.627   5.897  10.109 -0.0699  0.1421 -0.0123
  542loPI    C3 8659  14.802   5.544  10.040  0.0687  0.1897  0.0916
  542loPI   PO4 8660  14.788   5.944   9.572 -0.0885  0.0827 -0.2364
  542loPI   GL1 8661  14.635   5.898   9.196  0.1849  0.1814 -0.2196
  542loPI   GL2 8662  14.528   5.489   9.331  0.1307  0.2085  0.1345
  542loPI   C1A 8663  14.701   5.846   8.643 -0.2154 -0.1872  0.1414
  542loPI   C2A 8664  14.719   5.944   8.222 -0.0147 -0.0829 -0.1093
  542loPI   C3A 8665  14.929   6.120   7.873 -0.0554 -0.4068 -0.2592
  542loPI   C4A 8666  15.072   6.338   7.560  0.1990 -0.0312  0.0250
  542loPI   C5A 8667  15.229   6.632   7.189 -0.1347  0.3151 -0.0866
  542loPI   C6A 8668  15.368   7.020   7.263 -0.0310 -0.2111 -0.0040
  542loPI   C1B 8669  14.691   5.455   8.917 -0.0424 -0.2259  0.0116
  542loPI   C2B 8670  14.864   5.428   8.462 -0.1298 -0.2554 -0.1910
  542loPI   C3B 8671  14.958   5.523   7.941  0.2665 -0.2150  0.1987
  542loPI   C4B 8672  15.187   5.776   7.696  0.0827  0.0889 -0.1604
  543loPI    C1 8673   4.426   3.096   9.773 -0.3162 -0.3806 -0.0849
  543loPI    C2 8674   4.203   3.348   9.989  0.1183 -0.1681  0.1285
  543loPI    C3 8675   4.152   2.953  10.027 -0.3048 -0.1236  0.0755
  543loPI   PO4 8676   4.650   3.266   9.618 -0.1728 -0.2484 -0.0970
  543loPI   GL1 8677   4.715   3.338   9.249  0.0400 -0.1836 -0.1110
  543loPI   GL2 8678   4.663   3.707   9.332 -0.3693  0.0848 -0.1226
  543loPI   C1A 8679   4.683   3.106   8.891  0.0938 -0.4478 -0.5719
  543loPI   C2A 8680   4.708   3.176   8.452 -0.4069  0.1065  0.2420
  543loPI   C3A 8681   4.812   3.111   7.924 -0.1843  0.2495  0.2054
  543loPI   C4A 8682   4.804   2.990   7.487 -0.3583 -0.1636  0.0445
  543loPI   C5A 8683   4.793   2.859   7.097  0.1459 -0.0335  0.0703
  543loPI   C6A 8684   4.848   2.792   6.706 -0.0067  0.1219 -0.1827
  543loPI   C1B 8685   4.590   3.795   8.951 -0.2628  0.1824  0.2214
  543loPI   C2B 8686   4.585   3.777   8.532  0.2047 -0.0700  0.4664
  543loPI   C3B 8687   4.536   3.903   8.079 -0.0572  0.0091  0.0722
  543loPI   C4B 8688   4.560   3.758   7.694  0.1063  0.0010 -0.0149
  544loPI    C1 8689   3.443   6.175  10.087 -0.0684  0.1444 -0.0793
  544loPI    C2 8690   3.706   5.892   9.983 -0.1117  0.0590  0.0411
  544loPI    C3 8691   3.766   6.271   9.871  0.0849  0.0477  0.1030
  544loPI   PO4 8692   3.159   6.109   9.964 -0.0070  0.0780  0.1800
  544loPI   GL1 8693   3.086   6.176   9.555 -0.0198 -0.0831  0.2506
  544loPI   GL2 8694   3.327   5.926   9.524 -0.2532  0.4318 -0.1453
  544loPI   C1A 8695   3.110   6.228   9.113  0.0578 -0.0360 -0.0537
  544loPI   C2A 8696   2.926   5.931   8.768 -0.0535 -0.0804 -0.1462
  544loPI   C3A 8697   2.824   5.899   8.390  0.0361  0.1898  0.2246
  544loPI   C4A 8698   2.712   5.787   7.973  0.3243  0.0330 -0.0012
  544loPI   C5A 8699   2.327   5.510   7.764 -0.1888  0.1470 -0.0201
  544loPI   C6A 8700   2.038   5.176   7.506 -0.1386  0.0567  0.0661
  544loPI   C1B 8701   3.103   5.679   9.313 -0.0532  0.2052 -0.0900
  544loPI   C2B 8702   3.126   5.427   9.000  0.0334  0.1166 -0.1698
  544loPI   C3B 8703   3.056   5.486   8.492 -0.2642 -0.2222  0.1823
  544loPI   C4B 8704   3.286   5.752   8.199  0.0096 -0.0085 -0.0602
  545loPI    C1 8705   9.639   5.854  10.228  0.0468 -0.0882 -0.1026
  545loPI    C2 8706   9.336   5.966  10.464  0.0470  0.1117 -0.1960
  545loPI    C3 8707   9.665   5.807  10.625  0.0649  0.2869 -0.0558
  545loPI   PO4 8708   9.522   5.930   9.977 -0.1803  0.0553 -0.3620
  545loPI   GL1 8709   9.495   5.807   9.549  0.1120 -0.2651 -0.0231
  545loPI   GL2 8710   9.255   6.001   9.538 -0.3333  0.0419 -0.0264
  545loPI   C1A 8711   9.698   5.705   9.124  0.2543  0.0719  0.1279
  545loPI   C2A 8712   9.653   5.679   8.735  0.0173  0.1693 -0.1860
  545loPI   C3A 8713   9.659   5.649   8.374 -0.3760  0.1618 -0.0995
  545loPI   C4A 8714   9.787   5.779   8.032 -0.1175 -0.2601  0.0726
  545loPI   C5A 8715   9.588   5.723   7.682 -0.1473 -0.4152  0.1886
  545loPI   C6A 8716   9.677   5.770   7.241  0.1527  0.2438  0.1548
  545loPI   C1B 8717   9.325   6.018   9.028  0.0383 -0.0379 -0.0866
  545loPI   C2B 8718   9.275   6.013   8.613 -0.2546  0.0340  0.0331
  545loPI   C3B 8719   9.313   6.351   8.256  0.0494 -0.2388  0.2562
  545loPI   C4B 8720   9.281   6.450   7.794 -0.1187 -0.0148 -0.1210
  546loPI    C1 8721   3.574   7.682  10.445 -0.1251 -0.1240 -0.0295
  546loPI    C2 8722   3.707   7.751  10.816  0.0534  0.2511 -0.1587
  546loPI    C3 8723   3.333   7.850  10.716  0.0381  0.2447 -0.1079
  546loPI   PO4 8724   3.749   7.717  10.237  0.0324  0.0089 -0.0151
  546loPI   GL1 8725   3.850   7.667   9.759  0.1474  0.0472  0.2692
  546loPI   GL2 8726   3.624   7.539   9.602  0.1010  0.0589  0.1230
  546loPI   C1A 8727   4.052   7.985   9.386 -0.0551  0.0314  0.1355
  546loPI   C2A 8728   4.094   8.203   8.920  0.2224 -0.1084  0.1378
  546loPI   C3A 8729   4.162   8.155   8.457 -0.2138  0.0560  0.1978
  546loPI   C4A 8730   4.365   8.071   8.096  0.0793  0.1393  0.0624
  546loPI   C5A 8731   4.499   7.717   7.825 -0.1533 -0.1576 -0.0231
  546loPI   C6A 8732   4.621   7.391   7.602 -0.4955  0.0750 -0.2277
  546loPI   C1B 8733   3.531   7.309   9.214 -0.0305 -0.0856 -0.3840
  546loPI   C2B 8734   3.420   7.450   8.869  0.0170  0.2274  0.0762
  546loPI   C3B 8735   3.540   7.428   8.478 -0.1150  0.0308  0.2203
  546loPI   C4B 8736   3.505   7.496   8.032  0.0609  0.1120 -0.0029
  547loPI    C1 8737  11.496   4.484   9.713  0.0703  0.0585  0.0159
  547loPI    C2 8738  11.441   4.555  10.103 -0.0146  0.0182  0.0116
  547loPI    C3 8739  11.412   4.854   9.839  0.0948  0.0554  0.0413
  547loPI   PO4 8740  11.725   4.353   9.727  0.3292 -0.2244  0.1690
  547loPI   GL1 8741  11.934   4.217   9.448 -0.2282  0.0090  0.3878
  547loPI   GL2 8742  11.738   4.395   9.239  0.2869  0.3322  0.2218
  547loPI   C1A 8743  12.194   4.055   9.116  0.2270  0.2081 -0.1603
  547loPI   C2A 8744  12.285   4.104   8.644  0.2380 -0.2307  0.0040
  547loPI   C3A 8745  12.291   4.040   8.200  0.2756 -0.3711  0.0315
  547loPI   C4A 8746  12.457   3.957   7.850 -0.1141  0.2820  0.3621
  547loPI   C5A 8747  12.419   3.912   7.343 -0.0318 -0.0936 -0.0425
  547loPI   C6A 8748  12.176   3.825   6.930 -0.0202  0.1699  0.1008
  547loPI   C1B 8749  11.821   4.275   8.766 -0.0637  0.2724  0.3284
  547loPI   C2B 8750  11.844   4.273   8.364  0.2751  0.2095 -0.1801
  547loPI   C3B 8751  11.922   4.345   7.931  0.1443 -0.0300 -0.0126
  547loPI   C4B 8752  12.003   4.160   7.623 -0.0444  0.0204  0.2625
  548loPI    C1 8753   6.075  17.705  10.140  0.0718 -0.2132  0.0205
  548loPI    C2 8754   6.295  17.956  10.361 -0.2197  0.1482 -0.0883
  548loPI    C3 8755   5.989  17.758  10.527 -0.1215  0.0256 -0.0521
  548loPI   PO4 8756   6.076  17.866   9.903 -0.0147 -0.3288 -0.2161
  548loPI   GL1 8757   6.064  17.975   9.546 -0.0864 -0.2533  0.2569
  548loPI   GL2 8758   6.424  17.924   9.482 -0.1662  0.1420 -0.1327
  548loPI   C1A 8759   6.031  18.124   9.071  0.3072  0.1451 -0.0865
  548loPI   C2A 8760   6.024  18.115   8.608  0.2022 -0.0127  0.0629
  548loPI   C3A 8761   6.058  18.054   8.097  0.3266 -0.1604 -0.0589
  548loPI   C4A 8762   6.065  18.006   7.622  0.0711 -0.2844  0.2860
  548loPI   C5A 8763   6.223  18.000   7.197 -0.0551  0.0911 -0.0931
  548loPI   C6A 8764   6.132  17.972   6.666  0.0170 -0.1809 -0.2195
  548loPI   C1B 8765   6.430  17.856   8.975 -0.1086  0.1562 -0.0939
  548loPI   C2B 8766   6.388  17.747   8.462 -0.0705  0.2576  0.1252
  548loPI   C3B 8767   6.417  17.735   7.969 -0.3632 -0.2670  0.0588
  548loPI   C4B 8768   6.531  17.885   7.584 -0.0049  0.3369 -0.1183
  549loPI    C1 8769   6.885  17.710   9.731 -0.0934  0.1290  0.1591
  549loPI    C2 8770   6.543  17.547   9.861 -0.0104  0.0048  0.2227
  549loPI    C3 8771   6.830  17.646  10.122  0.0208  0.0666  0.1653
  549loPI   PO4 8772   6.846  17.777   9.504  0.0138 -0.0333  0.1203
  549loPI   GL1 8773   7.116  17.960   9.220 -0.1777 -0.3940  0.1278
  549loPI   GL2 8774   7.397  17.893   9.157 -0.1387 -0.2353  0.1917
  549loPI   C1A 8775   7.075  18.261   8.847  0.0697  0.0380  0.1815
  549loPI   C2A 8776   7.030  18.328   8.387 -0.0654 -0.0328  0.0814
  549loPI   C3A 8777   6.923  18.353   8.014 -0.0179 -0.0704  0.2621
  549loPI   C4A 8778   6.839  18.223   7.595 -0.1946 -0.0360 -0.1915
  549loPI   C5A 8779   6.665  18.207   7.183  0.0106  0.2077  0.0053
  549loPI   C6A 8780   6.561  18.318   6.810 -0.1178 -0.1691 -0.0761
  549loPI   C1B 8781   7.399  17.800   8.733 -0.1545  0.0082 -0.2658
  549loPI   C2B 8782   7.394  17.827   8.304  0.0670  0.1385  0.1938
  549loPI   C3B 8783   7.404  17.614   7.943  0.2185  0.1052 -0.1903
  549loPI   C4B 8784   7.515  17.335   7.698  0.0907 -0.1679 -0.1462
  550loPI    C1 8785  16.515   1.218  10.047  0.1778  0.1406  0.0219
  550loPI    C2 8786  16.119   1.253   9.999  0.1885 -0.0327 -0.2085
  550loPI    C3 8787  16.293   1.393  10.331 -0.0605  0.0732 -0.1200
  550loPI   PO4 8788  16.650   1.009   9.915 -0.0191  0.2684  0.2026
  550loPI   GL1 8789  16.747   0.722   9.607  0.2262  0.2994 -0.1167
  550loPI   GL2 8790  16.531   0.467   9.653 -0.1977  0.2517  0.2398
  550loPI   C1A 8791  16.707   0.527   9.148 -0.1261  0.1099 -0.0295
  550loPI   C2A 8792  16.798   0.277   8.819  0.1680  0.1381  0.0507
  550loPI   C3A 8793  16.969   0.214   8.359 -0.1736 -0.1382  0.4176
  550loPI   C4A 8794  16.772   0.188   7.859 -0.0907 -0.0969  0.1937
  550loPI   C5A 8795  16.695  -0.007   7.602  0.1525  0.0697 -0.0878
  550loPI   C6A 8796  16.461   0.127   7.227  0.3600  0.2127  0.0800
  550loPI   C1B 8797  16.516   0.174   9.390 -0.0669  0.0937 -0.0815
  550loPI   C2B 8798  16.228   0.064   9.025 -0.4137 -0.1119  0.1220
  550loPI   C3B 8799  16.252  -0.001   8.684  0.1218  0.0886 -0.3670
  550loPI   C4B 8800  16.455   0.077   8.226  0.1260 -0.1283 -0.2072
  551loPI    C1 8801   0.863   6.984  10.104 -0.1603 -0.0226  0.1783
  551loPI    C2 8802   1.126   6.819  10.356  0.0218  0.0975  0.0693
  551loPI    C3 8803   1.064   7.214  10.362 -0.1777  0.0664  0.1131
  551loPI   PO4 8804   0.922   6.905   9.813 -0.1618 -0.0065  0.1937
  551loPI   GL1 8805   0.700   6.662   9.455  0.1117  0.0617 -0.1393
  551loPI   GL2 8806   0.481   6.772   9.385  0.1013  0.0933  0.0897
  551loPI   C1A 8807   0.795   6.386   9.145 -0.4617 -0.0733  0.4021
  551loPI   C2A 8808   1.019   6.387   8.733  0.0375  0.1839  0.0373
  551loPI   C3A 8809   1.151   6.598   8.417 -0.2625  0.4257 -0.0746
  551loPI   C4A 8810   1.042   6.693   7.977 -0.1693 -0.2774 -0.0031
  551loPI   C5A 8811   0.838   6.769   7.512 -0.1398  0.1273 -0.1321
  551loPI   C6A 8812   0.549   6.962   7.294  0.0270  0.1956 -0.1631
  551loPI   C1B 8813   0.298   6.733   8.963  0.6897 -0.0839  0.0592
  551loPI   C2B 8814   0.159   6.798   8.557 -0.1540 -0.0842 -0.1192
  551loPI   C3B 8815   0.207   7.102   8.194  0.1052 -0.2265 -0.0180
  551loPI   C4B 8816   0.382   7.494   8.151 -0.3781 -0.1912 -0.0831
  552loPI    C1 8817   4.696  13.756  10.441  0.0003  0.0847 -0.0706
  552loPI    C2 8818   4.316  13.745  10.565  0.0810  0.1607  0.1887
  552loPI    C3 8819   4.527  14.084  10.596  0.1897  0.1012  0.1043
  552loPI   PO4 8820   4.686  13.531  10.253 -0.0071 -0.2578  0.0435
  552loPI   GL1 8821   4.654  13.676   9.845 -0.0408 -0.0116 -0.3825
  552loPI   GL2 8822   4.597  13.775   9.700 -0.0097  0.3568  0.0791
  552loPI   C1A 8823   4.663  13.390   9.377 -0.0395  0.1419 -0.3120
  552loPI   C2A 8824   4.669  13.572   9.011 -0.1137  0.0975  0.1471
  552loPI   C3A 8825   4.659  13.577   8.652  0.0462 -0.0575  0.0047
  552loPI   C4A 8826   4.596  13.694   8.199  0.1743  0.2073  0.2208
  552loPI   C5A 8827   4.527  13.969   7.942  0.0611  0.0340  0.1531
  552loPI   C6A 8828   4.761  14.217   7.684  0.0198  0.0519  0.1942
  552loPI   C1B 8829   4.307  13.784   9.369  0.3080  0.1833 -0.2369
  552loPI   C2B 8830   3.913  13.915   9.288  0.2084 -0.1068 -0.0268
  552loPI   C3B 8831   3.877  14.024   8.911 -0.1450  0.1078  0.1602
  552loPI   C4B 8832   3.752  14.039   8.554  0.2435 -0.0046  0.1446
  553loPI    C1 8833   1.050   0.998  10.106 -0.1124  0.1708  0.1251
  553loPI    C2 8834   1.062   0.814  10.461 -0.0233  0.0718  0.0713
  553loPI    C3 8835   1.251   1.163  10.410  0.1582 -0.0271  0.0580
  553loPI   PO4 8836   0.934   0.856  10.004 -0.0225  0.0822 -0.1270
  553loPI   GL1 8837   1.022   0.819   9.574  0.1669 -0.1417  0.1312
  553loPI   GL2 8838   0.739   0.726   9.347 -0.0122  0.3684 -0.1153
  553loPI   C1A 8839   1.129   0.999   9.112 -0.0897  0.1125 -0.0700
  553loPI   C2A 8840   1.150   0.992   8.627  0.0983  0.0676  0.1139
  553loPI   C3A 8841   1.392   0.844   8.224 -0.1003 -0.0851 -0.0223
  553loPI   C4A 8842   1.617   0.758   7.848  0.1946 -0.0637 -0.2328
  553loPI   C5A 8843   2.006   0.772   7.716 -0.3367  0.1434 -0.0973
  553loPI   C6A 8844   2.165   0.734   7.221 -0.0809  0.3135  0.2256
  553loPI   C1B 8845   0.618   0.884   8.900 -0.1709  0.1965  0.0527
  553loPI   C2B 8846   0.551   0.963   8.478  0.2567 -0.1993  0.3086
  553loPI   C3B 8847   0.592   1.092   7.957 -0.0054  0.0808  0.1235
  553loPI   C4B 8848   0.557   1.107   7.519 -0.2105  0.0468 -0.0286
  554loPI    C1 8849  13.703  16.754  10.374 -0.1830  0.0112  0.0212
  554loPI    C2 8850  13.371  16.898  10.544 -0.0612  0.1586  0.1371
  554loPI    C3 8851  13.634  16.690  10.763 -0.1357 -0.0646  0.0175
  554loPI   PO4 8852  13.602  16.724  10.101  0.1300 -0.0559 -0.0456
  554loPI   GL1 8853  13.554  16.767   9.639  0.0662 -0.1356 -0.0606
  554loPI   GL2 8854  13.225  16.846   9.671  0.3390  0.1401 -0.1507
  554loPI   C1A 8855  13.675  16.695   9.146 -0.0080 -0.5386 -0.2847
  554loPI   C2A 8856  13.899  16.538   8.707  0.3539  0.0657  0.0508
  554loPI   C3A 8857  13.965  16.711   8.259  0.1916 -0.3895  0.0091
  554loPI   C4A 8858  14.060  16.690   7.851 -0.0680  0.0039 -0.0260
  554loPI   C5A 8859  14.301  16.772   7.465  0.1031  0.3358  0.3266
  554loPI   C6A 8860  14.484  17.035   7.190 -0.1646  0.2360  0.1721
  554loPI   C1B 8861  13.253  16.934   9.251  0.2619  0.1660 -0.1089
  554loPI   C2B 8862  13.399  16.880   8.805  0.2610 -0.3289  0.2097
  554loPI   C3B 8863  13.533  16.906   8.429 -0.1952  0.1164 -0.0315
  554loPI   C4B 8864  13.590  16.825   7.935  0.0718  0.0334 -0.2974
  555loPI    C1 8865  11.343   5.528  10.118  0.1710 -0.0245  0.0124
  555loPI    C2 8866  11.060   5.311  10.300  0.0446 -0.0231 -0.1785
  555loPI    C3 8867  11.346   5.490  10.516 -0.0626 -0.0771  0.0107
  555loPI   PO4 8868  11.408   5.372   9.838  0.1153  0.2176 -0.0754
  555loPI   GL1 8869  11.268   5.392   9.496 -0.3176 -0.2113  0.1835
  555loPI   GL2 8870  11.681   5.416   9.461 -0.1191 -0.0555 -0.0389
  555loPI   C1A 8871  11.411   5.180   9.126  0.1794  0.3489 -0.0252
  555loPI   C2A 8872  11.490   5.099   8.722  0.0199  0.3981  0.1996
  555loPI   C3A 8873  11.460   5.172   8.390  0.2629  0.1495 -0.2122
  555loPI   C4A 8874  11.514   5.105   7.974  0.0499 -0.0495 -0.1255
  555loPI   C5A 8875  11.409   5.041   7.536 -0.2616  0.1315 -0.1127
  555loPI   C6A 8876  11.646   4.831   7.142  0.2156 -0.1010 -0.1116
  555loPI   C1B 8877  11.811   5.369   8.945 -0.2071 -0.3082 -0.0879
  555loPI   C2B 8878  11.907   5.248   8.501  0.1024 -0.0853  0.4659
  555loPI   C3B 8879  11.929   5.437   8.086 -0.2035  0.1268 -0.1400
  555loPI   C4B 8880  11.950   5.327   7.671 -0.3877 -0.2258  0.1466
  556loPI    C1 8881  16.530   7.823  10.018 -0.0617 -0.0792 -0.0983
  556loPI    C2 8882  16.132   7.793  10.040 -0.0536  0.0242  0.2612
  556loPI    C3 8883  16.360   7.638  10.330  0.1691 -0.0197  0.0656
  556loPI   PO4 8884  16.617   7.770   9.817 -0.0761  0.3236 -0.1326
  556loPI   GL1 8885  16.367   7.802   9.477 -0.3970  0.0860  0.0003
  556loPI   GL2 8886  16.067   7.624   9.506  0.2661 -0.2052  0.1256
  556loPI   C1A 8887  16.319   7.759   9.013  0.0739 -0.0656 -0.2852
  556loPI   C2A 8888  16.040   7.803   8.726  0.2074 -0.2402 -0.2549
  556loPI   C3A 8889  15.819   7.846   8.428  0.0223  0.2687  0.1829
  556loPI   C4A 8890  15.576   8.036   8.156  0.4173 -0.2483  0.0468
  556loPI   C5A 8891  15.193   8.059   7.867  0.3628  0.2780 -0.4421
  556loPI   C6A 8892  15.334   7.886   7.458 -0.2236  0.1333 -0.0289
  556loPI   C1B 8893  15.783   7.595   9.083  0.4324  0.1149  0.5116
  556loPI   C2B 8894  15.662   7.383   8.650  0.0510  0.0800 -0.0150
  556loPI   C3B 8895  15.551   7.457   8.310 -0.2055 -0.1966  0.0114
  556loPI   C4B 8896  15.362   7.555   8.020  0.0170 -0.0456 -0.4837
  557loPI    C1 8897   5.579  12.866  10.113 -0.1797  0.0372 -0.0736
  557loPI    C2 8898   5.611  12.873  10.512  0.1262 -0.0992 -0.0927
  557loPI    C3 8899   5.403  12.582  10.333 -0.1130  0.0298 -0.0295
  557loPI   PO4 8900   5.928  12.940  10.153  0.2277  0.2225  0.0143
  557loPI   GL1 8901   6.105  12.759   9.820  0.3042 -0.0147 -0.2634
  557loPI   GL2 8902   5.858  12.719   9.664 -0.0053  0.0728  0.1175
  557loPI   C1A 8903   6.352  12.526   9.460 -0.1130 -0.0987 -0.0508
  557loPI   C2A 8904   6.268  12.476   9.091  0.1939  0.1019 -0.1295
  557loPI   C3A 8905   6.236  12.367   8.654 -0.0438 -0.1466 -0.1193
  557loPI   C4A 8906   6.218  12.430   8.237  0.3780 -0.0631 -0.0476
  557loPI   C5A 8907   6.035  12.426   7.837 -0.2986 -0.1669  0.0543
  557loPI   C6A 8908   5.781  12.649   7.534  0.0743  0.0117 -0.1612
  557loPI   C1B 8909   5.842  12.482   9.377 -0.0098  0.0780  0.1402
  557loPI   C2B 8910   5.814  12.343   8.906 -0.0144 -0.3756  0.2083
  557loPI   C3B 8911   5.763  12.548   8.555 -0.3236 -0.2428  0.0521
  557loPI   C4B 8912   5.711  12.746   8.171 -0.0138  0.1114  0.0597
  558loPI    C1 8913  18.730  13.257  10.365  0.1486  0.1521 -0.0531
  558loPI    C2 8914  18.428  13.505  10.279  0.2041  0.0708 -0.5071
  558loPI    C3 8915  18.588  13.504  10.645 -0.1850  0.2836 -0.3303
  558loPI   PO4 8916  18.879  13.330  10.098  0.0345 -0.1571 -0.0379
  558loPI   GL1 8917  18.850  13.645   9.797  0.3051 -0.1364  0.0214
  558loPI   GL2 8918  18.475  13.554   9.663  0.1258  0.2307  0.0799
  558loPI   C1A 8919  18.722  13.889   9.295  0.0155 -0.2353 -0.0353
  558loPI   C2A 8920  18.597  13.904   8.947  0.1518  0.1441  0.0715
  558loPI   C3A 8921  18.378  13.902   8.566 -0.2602 -0.2253 -0.4301
  558loPI   C4A 8922  18.199  13.986   8.190  0.0388 -0.1063 -0.0686
  558loPI   C5A 8923  18.255  14.149   7.750  0.3160  0.0001  0.4460
  558loPI   C6A 8924  18.513  14.284   7.310  0.0335  0.0434  0.0366
  558loPI   C1B 8925  18.419  13.372   9.199 -0.2471  0.1339 -0.3292
  558loPI   C2B 8926  18.234  13.523   8.855  0.2037 -0.2948 -0.0953
  558loPI   C3B 8927  18.094  13.504   8.416 -0.0379 -0.1491  0.3419
  558loPI   C4B 8928  17.934  13.292   8.102 -0.1256 -0.0864  0.2360
  559loPI    C1 8929  16.655   5.296  10.188  0.0079 -0.1078 -0.0356
  559loPI    C2 8930  16.709   5.671  10.316 -0.3835 -0.0272 -0.0936
  559loPI    C3 8931  16.819   5.363  10.546 -0.2028  0.1211  0.0212
  559loPI   PO4 8932  16.731   5.272   9.965  0.2097  0.0357  0.0275
  559loPI   GL1 8933  16.608   5.311   9.550  0.1096 -0.2507 -0.0017
  559loPI   GL2 8934  16.890   5.455   9.495  0.2433 -0.1271 -0.0383
  559loPI   C1A 8935  16.592   5.043   9.119 -0.2908  0.0062  0.0704
  559loPI   C2A 8936  16.625   4.942   8.647 -0.0891  0.1581  0.0954
  559loPI   C3A 8937  16.826   5.197   8.199 -0.1636  0.2341  0.0166
  559loPI   C4A 8938  17.145   5.177   7.880 -0.0393  0.4004  0.0352
  559loPI   C5A 8939  17.558   5.271   7.844 -0.0451 -0.5115 -0.0225
  559loPI   C6A 8940  17.804   5.175   7.464 -0.0758  0.3032  0.1755
  559loPI   C1B 8941  16.987   5.419   9.125  0.2523  0.1481  0.1562
  559loPI   C2B 8942  17.000   5.167   8.831  0.0496 -0.0334 -0.1540
  559loPI   C3B 8943  17.224   5.108   8.527  0.0038  0.0731  0.4243
  559loPI   C4B 8944  17.429   4.841   8.185  0.0571  0.0083  0.1083
  560loPI    C1 8945  18.120   6.651  10.146 -0.2899 -0.0613  0.1618
  560loPI    C2 8946  18.033   7.006  10.308 -0.1863  0.0267  0.0273
  560loPI    C3 8947  18.362   6.810  10.423 -0.2184 -0.0042  0.0670
  560loPI   PO4 8948  18.117   6.680   9.875  0.0556 -0.0222  0.0590
  560loPI   GL1 8949  18.301   6.556   9.524  0.0900 -0.1935  0.5311
  560loPI   GL2 8950  18.038   6.382   9.481  0.1372  0.0821  0.1155
  560loPI   C1A 8951  18.264   6.448   9.040 -0.0394 -0.1357  0.3876
  560loPI   C2A 8952  18.298   6.470   8.535  0.1998 -0.1414  0.1633
  560loPI   C3A 8953  18.378   6.624   8.135  0.2194  0.1415 -0.0978
  560loPI   C4A 8954  18.342   6.736   7.734 -0.1646  0.2675  0.2437
  560loPI   C5A 8955  17.917   6.834   7.589 -0.0837  0.1149 -0.0602
  560loPI   C6A 8956  17.614   6.616   7.418  0.0480 -0.1655 -0.0200
  560loPI   C1B 8957  17.806   6.573   9.197 -0.0881 -0.1763  0.1764
  560loPI   C2B 8958  17.782   6.499   8.675  0.2765  0.1687 -0.0006
  560loPI   C3B 8959  17.874   6.480   8.218  0.0162 -0.1665 -0.0429
  560loPI   C4B 8960  18.012   6.360   7.714 -0.0349 -0.4019 -0.3354
  561loPI    C1 8961   8.840   5.069  10.043  0.0853  0.0374  0.1118
  561loPI    C2 8962   8.530   4.934  10.257  0.1235 -0.0333  0.1229
  561loPI    C3 8963   8.821   5.143  10.436  0.0706  0.0536  0.1079
  561loPI   PO4 8964   8.734   5.221   9.841 -0.1709  0.0535  0.0647
  561loPI   GL1 8965   8.509   5.343   9.529 -0.0907  0.0298 -0.0579
  561loPI   GL2 8966   8.805   5.520   9.404 -0.2908  0.1168 -0.2007
  561loPI   C1A 8967   8.432   5.587   9.081  0.4047 -0.1124  0.0151
  561loPI   C2A 8968   8.347   5.603   8.655 -0.0085 -0.3512  0.0248
  561loPI   C3A 8969   8.215   5.611   8.297  0.1054  0.0187 -0.0169
  561loPI   C4A 8970   7.902   5.447   8.073  0.0399 -0.0512  0.2233
  561loPI   C5A 8971   7.576   5.176   7.803 -0.0077 -0.2474 -0.1667
  561loPI   C6A 8972   7.604   4.917   7.455  0.0372  0.1323  0.0904
  561loPI   C1B 8973   8.821   5.286   9.030  0.2467  0.0008 -0.0012
  561loPI   C2B 8974   8.798   5.279   8.610  0.4028 -0.2975 -0.1352
  561loPI   C3B 8975   8.781   5.372   8.176  0.3143 -0.0442 -0.1144
  561loPI   C4B 8976   9.021   5.564   7.710  0.0164  0.2076  0.3402
  562loPI    C1 8977  13.137  13.180  10.028 -0.0019  0.0584  0.0752
  562loPI    C2 8978  13.309  12.819  10.014 -0.1047  0.0204 -0.3790
  562loPI    C3 8979  12.954  12.865  10.193  0.1037 -0.0134  0.0563
  562loPI   PO4 8980  13.437  13.329   9.919 -0.0832 -0.2040 -0.3498
  562loPI   GL1 8981  13.597  13.289   9.446 -0.0476  0.0132  0.3584
  562loPI   GL2 8982  13.275  13.527   9.486 -0.1877 -0.1039 -0.0198
  562loPI   C1A 8983  13.562  13.062   9.087 -0.0348 -0.1437 -0.0975
  562loPI   C2A 8984  13.708  13.128   8.662  0.0410 -0.0163 -0.0563
  562loPI   C3A 8985  13.786  13.024   8.270 -0.2902 -0.0094 -0.0932
  562loPI   C4A 8986  13.875  13.052   7.794 -0.1003 -0.0284  0.1969
  562loPI   C5A 8987  14.202  13.088   7.342  0.2002  0.3078 -0.3440
  562loPI   C6A 8988  14.613  13.045   7.208  0.1734 -0.3086 -0.0087
  562loPI   C1B 8989  13.099  13.484   9.115  0.3711  0.2124  0.0029
  562loPI   C2B 8990  12.974  13.263   8.800  0.4251 -0.0838  0.0613
  562loPI   C3B 8991  12.850  13.051   8.539  0.1347  0.2163 -0.0059
  562loPI   C4B 8992  12.763  12.926   8.275  0.1257 -0.2359 -0.0239
  563loPI    C1 8993   7.897  12.887  10.062 -0.1366 -0.3630 -0.0713
  563loPI    C2 8994   7.992  12.580  10.301 -0.2094 -0.1661  0.2151
  563loPI    C3 8995   7.922  12.942  10.457  0.0709  0.0465 -0.1360
  563loPI   PO4 8996   8.034  12.825   9.844 -0.0573  0.1346  0.1739
  563loPI   GL1 8997   8.149  12.529   9.481  0.0664 -0.0891 -0.1403
  563loPI   GL2 8998   7.965  12.683   9.302 -0.1302 -0.1315  0.2194
  563loPI   C1A 8999   8.250  12.349   9.017  0.1987 -0.3861 -0.0713
  563loPI   C2A 9000   8.235  12.512   8.637 -0.1105 -0.0506  0.0224
  563loPI   C3A 9001   8.254  12.679   8.233 -0.2334  0.0106 -0.0024
  563loPI   C4A 9002   8.121  12.584   7.809  0.0895  0.1657 -0.0448
  563loPI   C5A 9003   8.213  12.421   7.353 -0.2463 -0.0185 -0.1167
  563loPI   C6A 9004   8.230  12.207   6.950  0.1959 -0.0013  0.0407
  563loPI   C1B 9005   7.839  12.763   8.856 -0.1285 -0.0040 -0.2112
  563loPI   C2B 9006   7.712  12.723   8.340  0.1901 -0.0711  0.0295
  563loPI   C3B 9007   7.595  12.535   7.874 -0.1036 -0.3248 -0.2942
  563loPI   C4B 9008   7.672  12.676   7.455  0.0483  0.1127 -0.1311
  564loPI    C1 9009  14.097   6.327   9.870  0.1798  0.1511  0.0326
  564loPI    C2 9010  14.487   6.258   9.813  0.1363  0.0589 -0.1638
  564loPI    C3 9011  14.341   6.286  10.184  0.3407  0.1617 -0.0896
  564loPI   PO4 9012  13.954   6.580   9.826 -0.0379 -0.2102  0.1182
  564loPI   GL1 9013  14.004   6.916   9.528  0.0465 -0.0202 -0.1462
  564loPI   GL2 9014  14.316   6.742   9.426  0.0898  0.1874 -0.0881
  564loPI   C1A 9015  13.686   6.720   9.244  0.2846 -0.0524 -0.4118
  564loPI   C2A 9016  13.474   6.608   8.893  0.1746  0.1849  0.0870
  564loPI   C3A 9017  13.462   6.566   8.522  0.1800  0.0106  0.2657
  564loPI   C4A 9018  13.599   6.521   8.102 -0.1246  0.2037  0.4043
  564loPI   C5A 9019  13.725   6.634   7.684  0.1218  0.0902 -0.1426
  564loPI   C6A 9020  14.094   6.665   7.417  0.0879 -0.1826 -0.1903
  564loPI   C1B 9021  14.152   6.628   9.068 -0.1601 -0.0502 -0.0467
  564loPI   C2B 9022  14.010   6.545   8.689  0.0317 -0.1382  0.1820
  564loPI   C3B 9023  14.055   6.453   8.246  0.0671 -0.2477  0.0716
  564loPI   C4B 9024  14.321   6.682   7.893 -0.0953  0.5046  0.3158
  565loPI    C1 9025   9.157  10.852   9.984 -0.0363 -0.4081 -0.0131
  565loPI    C2 9026   9.420  10.822  10.284  0.0182 -0.1279 -0.0301
  565loPI    C3 9027   9.048  10.682  10.329  0.0031 -0.0196  0.1964
  565loPI   PO4 9028   9.323  10.925   9.788 -0.1868 -0.3134  0.2890
  565loPI   GL1 9029   9.285  11.197   9.447 -0.0384  0.0671 -0.1895
  565loPI   GL2 9030   9.317  11.490   9.383 -0.0344  0.1994  0.2164
  565loPI   C1A 9031   8.861  11.294   9.294 -0.0295  0.0997  0.1756
  565loPI   C2A 9032   8.619  11.336   8.893  0.1485 -0.1890 -0.3069
  565loPI   C3A 9033   8.286  11.497   8.544 -0.1769  0.0001  0.0147
  565loPI   C4A 9034   8.206  11.590   8.112 -0.2240 -0.2188  0.1746
  565loPI   C5A 9035   8.200  11.689   7.707  0.1648  0.0075  0.1010
  565loPI   C6A 9036   8.217  11.874   7.303  0.0792  0.0607 -0.0056
  565loPI   C1B 9037   9.204  11.719   9.048  0.2720 -0.1572  0.1110
  565loPI   C2B 9038   9.198  11.863   8.671 -0.2367 -0.3515 -0.2774
  565loPI   C3B 9039   9.276  11.758   8.196  0.0430 -0.1749 -0.1468
  565loPI   C4B 9040   9.133  11.544   7.930 -0.2047 -0.1259 -0.1082
  566loPI    C1 9041  14.448  18.680   9.842 -0.1309  0.3087 -0.1751
  566loPI    C2 9042  14.203  18.366   9.886  0.0326  0.1553 -0.3436
  566loPI    C3 9043  14.442  18.477  10.187  0.1046  0.0057 -0.3450
  566loPI   PO4 9044  14.605  18.638   9.637  0.2176 -0.2398 -0.1443
  566loPI   GL1 9045  14.835  18.585   9.337  0.3349  0.0416  0.0571
  566loPI   GL2 9046  15.089  18.570   9.213 -0.2388  0.0899 -0.0225
  566loPI   C1A 9047  14.852  19.070   9.076  0.0114 -0.1455 -0.0865
  566loPI   C2A 9048  14.886  19.144   8.666 -0.2782  0.0248 -0.0391
  566loPI   C3A 9049  15.064  19.254   8.256 -0.2366 -0.0332 -0.1189
  566loPI   C4A 9050  15.211  19.471   7.971 -0.0491  0.0817  0.2917
  566loPI   C5A 9051  15.143  19.473   7.447 -0.2959 -0.1307  0.2691
  566loPI   C6A 9052  15.262  19.659   7.067  0.3645 -0.1350 -0.1737
  566loPI   C1B 9053  15.089  18.734   8.762  0.0147  0.2036 -0.3504
  566loPI   C2B 9054  14.991  18.703   8.425  0.0643  0.0358  0.1777
  566loPI   C3B 9055  14.983  18.712   7.961 -0.0057 -0.0027 -0.3600
  566loPI   C4B 9056  15.225  18.743   7.577  0.2488 -0.4930 -0.0177
  567loPI    C1 9057   4.422  16.996  10.166  0.0097  0.0985 -0.0733
  567loPI    C2 9058   4.192  17.217  10.407 -0.1510 -0.1263 -0.0167
  567loPI    C3 9059   4.579  17.161  10.494 -0.1566 -0.0291  0.0722
  567loPI   PO4 9060   4.356  17.101   9.922 -0.2668 -0.2059 -0.1118
  567loPI   GL1 9061   4.386  17.088   9.450  0.3603  0.0898  0.0692
  567loPI   GL2 9062   4.174  17.344   9.403  0.1023 -0.0596 -0.2703
  567loPI   C1A 9063   4.479  16.876   9.048 -0.1914  0.3377  0.3092
  567loPI   C2A 9064   4.332  16.953   8.673 -0.0682  0.2119 -0.1244
  567loPI   C3A 9065   4.401  17.134   8.256  0.0493 -0.1091  0.1066
  567loPI   C4A 9066   4.252  17.396   7.865 -0.0723 -0.0148  0.1906
  567loPI   C5A 9067   4.211  17.757   7.823 -0.1232 -0.0469 -0.4961
  567loPI   C6A 9068   4.260  18.034   8.159 -0.3691  0.1655  0.2454
  567loPI   C1B 9069   4.281  17.370   9.022  0.3608  0.0225 -0.1726
  567loPI   C2B 9070   4.023  17.649   8.709 -0.1193 -0.0455 -0.1725
  567loPI   C3B 9071   3.683  17.797   8.774  0.1070  0.0197 -0.2568
  567loPI   C4B 9072   3.453  17.804   9.174  0.2368  0.1143 -0.1832
  568loPI    C1 9073   8.905   0.505  10.193 -0.1796 -0.1515 -0.1555
  568loPI    C2 9074   9.034   0.174  10.009 -0.0790 -0.2492  0.0859
  568loPI    C3 9075   9.173   0.268  10.372 -0.0716  0.0845  0.0005
  568loPI   PO4 9076   8.872   0.674   9.852  0.1899  0.0698  0.0831
  568loPI   GL1 9077   8.635   0.666   9.421  0.0995 -0.1598 -0.0410
  568loPI   GL2 9078   8.928   0.905   9.342  0.0292 -0.1678 -0.0484
  568loPI   C1A 9079   8.678   0.694   8.995 -0.4577  0.0295 -0.1458
  568loPI   C2A 9080   8.780   0.739   8.559  0.1377 -0.0329 -0.1070
  568loPI   C3A 9081   8.720   0.855   8.083 -0.0178  0.1663  0.1036
  568loPI   C4A 9082   8.535   0.756   7.730  0.2017 -0.5104 -0.0874
  568loPI   C5A 9083   8.353   0.989   7.430  0.0205  0.0265 -0.0943
  568loPI   C6A 9084   8.309   1.242   7.197 -0.0398 -0.3134  0.0050
  568loPI   C1B 9085   9.020   1.156   8.795 -0.1500 -0.0799  0.2885
  568loPI   C2B 9086   8.979   1.152   8.351 -0.0082 -0.3824 -0.0198
  568loPI   C3B 9087   9.097   1.312   7.981  0.1260  0.1493 -0.3277
  568loPI   C4B 9088   9.417   1.632   8.002 -0.0306 -0.1779 -0.0773
  569loPI    C1 9089  16.141   0.336   9.969  0.0506 -0.0612  0.0251
  569loPI    C2 9090  16.252   0.719   9.988  0.3187 -0.1390  0.0662
  569loPI    C3 9091  16.227   0.501  10.322 -0.0607 -0.0966  0.0692
  569loPI   PO4 9092  15.940   0.374   9.740 -0.0999 -0.2094  0.3894
  569loPI   GL1 9093  15.680   0.228   9.486 -0.1413 -0.1235  0.2167
  569loPI   GL2 9094  15.338   0.153   9.353 -0.0504 -0.1667  0.0569
  569loPI   C1A 9095  15.778   0.419   9.015  0.1079 -0.1001 -0.0672
  569loPI   C2A 9096  15.864   0.332   8.626 -0.1229  0.0615  0.1545
  569loPI   C3A 9097  15.635   0.451   8.276  0.0546 -0.2494  0.3318
  569loPI   C4A 9098  15.648   0.468   7.775 -0.1174  0.1406  0.1753
  569loPI   C5A 9099  15.702   0.747   7.434  0.1157 -0.1507 -0.1904
  569loPI   C6A 9100  15.783   0.803   6.957 -0.0620 -0.0563  0.1936
  569loPI   C1B 9101  15.418   0.088   8.840  0.1200 -0.0244  0.2876
  569loPI   C2B 9102  15.517   0.029   8.438  0.1303 -0.0198  0.3560
  569loPI   C3B 9103  15.525   0.056   8.026 -0.4345 -0.0458  0.0440
  569loPI   C4B 9104  15.718  -0.094   7.570 -0.0924  0.2058 -0.0989
  570loPI    C1 9105   7.857  13.394  10.228  0.0964 -0.1379  0.0173
  570loPI    C2 9106   7.756  13.513  10.596 -0.1779  0.1452 -0.1446
  570loPI    C3 9107   8.021  13.724  10.384 -0.2397  0.1483 -0.2192
  570loPI   PO4 9108   7.629  13.374  10.064 -0.0337  0.0628 -0.4020
  570loPI   GL1 9109   7.339  13.394   9.822 -0.2298  0.2569  0.1470
  570loPI   GL2 9110   7.001  13.130   9.814  0.2478  0.0682  0.3128
  570loPI   C1A 9111   7.439  13.553   9.324  0.1310  0.0870  0.1459
  570loPI   C2A 9112   7.520  13.707   8.867 -0.1401 -0.0658 -0.1845
  570loPI   C3A 9113   7.657  13.636   8.436 -0.0457 -0.2673 -0.3204
  570loPI   C4A 9114   8.032  13.698   8.306 -0.0216  0.0182 -0.1677
  570loPI   C5A 9115   8.362  13.391   8.176  0.0283  0.1375  0.0667
  570loPI   C6A 9116   8.724  13.154   7.800 -0.1230 -0.1789 -0.0081
  570loPI   C1B 9117   7.219  13.108   9.423  0.2028 -0.1757 -0.1287
  570loPI   C2B 9118   7.634  13.033   9.288  0.0335  0.1694  0.2399
  570loPI   C3B 9119   7.837  13.200   9.106  0.2482  0.0366 -0.0208
  570loPI   C4B 9120   8.144  13.451   8.782  0.0082 -0.1068  0.0872
  571loPI    C1 9121  12.695   4.358  10.264  0.2755  0.2391  0.0204
  571loPI    C2 9122  12.377   4.597  10.299  0.0443 -0.0503 -0.0655
  571loPI    C3 9123  12.598   4.511  10.621  0.0633  0.1870 -0.0136
  571loPI   PO4 9124  12.773   4.422   9.970  0.0214 -0.1654  0.3676
  571loPI   GL1 9125  12.812   4.292   9.543  0.2517 -0.1082 -0.1356
  571loPI   GL2 9126  13.217   4.146   9.434  0.0117 -0.0898  0.1820
  571loPI   C1A 9127  12.669   4.251   9.161 -0.0213  0.4998  0.0423
  571loPI   C2A 9128  12.774   4.272   8.670  0.1826 -0.0627  0.1882
  571loPI   C3A 9129  12.741   4.223   8.246 -0.0702 -0.2079  0.1481
  571loPI   C4A 9130  12.908   4.149   7.710  0.4328  0.0688 -0.1086
  571loPI   C5A 9131  12.957   3.947   7.301 -0.4269  0.0472  0.1591
  571loPI   C6A 9132  13.197   3.554   7.116  0.0700 -0.1191  0.0367
  571loPI   C1B 9133  13.099   4.080   8.922 -0.0445  0.1902 -0.0369
  571loPI   C2B 9134  13.157   4.030   8.514  0.0159 -0.1013  0.0872
  571loPI   C3B 9135  13.188   3.893   8.022  0.2517 -0.1887  0.0498
  571loPI   C4B 9136  13.295   3.726   7.630 -0.3080  0.0003 -0.2826
  572loPI    C1 9137  17.364  12.323  10.453 -0.0738 -0.0186  0.1681
  572loPI    C2 9138  17.741  12.331  10.587 -0.0365  0.2661  0.0548
  572loPI    C3 9139  17.444  12.470  10.817 -0.0644  0.1094  0.1150
  572loPI   PO4 9140  17.439  12.261  10.201 -0.2380  0.0614 -0.1050
  572loPI   GL1 9141  17.453  11.889   9.945  0.1952 -0.2870 -0.1031
  572loPI   GL2 9142  17.716  11.836   9.805  0.1189 -0.1803  0.1103
  572loPI   C1A 9143  17.308  11.943   9.493  0.0272  0.4509 -0.0073
  572loPI   C2A 9144  17.541  11.993   9.079  0.1134 -0.0827  0.1170
  572loPI   C3A 9145  17.394  12.115   8.690  0.0372  0.1146 -0.1263
  572loPI   C4A 9146  17.201  12.257   8.356  0.1331  0.1113 -0.1901
  572loPI   C5A 9147  16.821  12.544   8.205 -0.3946 -0.2740 -0.1189
  572loPI   C6A 9148  16.705  13.016   7.979 -0.0623  0.2048 -0.0905
  572loPI   C1B 9149  17.805  11.791   9.420 -0.1727  0.0064 -0.0581
  572loPI   C2B 9150  17.861  11.601   9.081 -0.4136  0.3626  0.1711
  572loPI   C3B 9151  17.853  11.657   8.683 -0.2752 -0.0311 -0.0610
  572loPI   C4B 9152  17.605  11.830   8.337  0.1255  0.0865  0.1485
  573loPI    C1 9153   0.706  11.933   9.933  0.1019  0.2503  0.0854
  573loPI    C2 9154   0.621  11.707  10.252  0.0245 -0.2823 -0.3002
  573loPI    C3 9155   0.999  11.740  10.125  0.0649 -0.0129 -0.1179
  573loPI   PO4 9156   0.550  11.863   9.731 -0.0350 -0.0050 -0.0046
  573loPI   GL1 9157   0.594  11.644   9.390 -0.1611  0.0980  0.0664
  573loPI   GL2 9158   0.530  11.305   9.205 -0.0712 -0.2762  0.0766
  573loPI   C1A 9159   0.582  11.740   8.994 -0.0106  0.1683  0.0270
  573loPI   C2A 9160   0.511  11.769   8.609 -0.1464 -0.0679 -0.3746
  573loPI   C3A 9161   0.342  11.775   8.237 -0.0442 -0.3509  0.2280
  573loPI   C4A 9162  -0.023  11.883   7.954 -0.0097  0.0278 -0.1837
  573loPI   C5A 9163  -0.133  11.874   7.551  0.3333 -0.0759 -0.0792
  573loPI   C6A 9164  -0.263  11.761   7.101 -0.1722  0.0070  0.4006
  573loPI   C1B 9165   0.532  11.276   8.823 -0.0507  0.0300  0.1678
  573loPI   C2B 9166   0.339  11.272   8.397  0.1140 -0.1222 -0.0187
  573loPI   C3B 9167   0.410  11.354   8.064 -0.2161  0.2762  0.0385
  573loPI   C4B 9168   0.346  11.215   7.639 -0.2333 -0.0422 -0.0022
  574loPI    C1 9169  16.719   1.789  10.542  0.1921  0.4862 -0.3464
  574loPI    C2 9170  17.053   1.734  10.754 -0.0144  0.2937 -0.0643
  574loPI    C3 9171  16.707   1.578  10.882 -0.1518  0.2084 -0.5236
  574loPI   PO4 9172  16.715   1.708  10.257  0.1918 -0.0531  0.0840
  574loPI   GL1 9173  16.898   1.825   9.936 -0.0949  0.1818 -0.2444
  574loPI   GL2 9174  16.771   1.627   9.751 -0.1134  0.0352  0.0875
  574loPI   C1A 9175  16.937   2.116   9.539 -0.0325  0.3513  0.0801
  574loPI   C2A 9176  16.716   2.097   9.117 -0.0981  0.0071  0.4244
  574loPI   C3A 9177  16.651   2.101   8.662  0.2263  0.1429 -0.3178
  574loPI   C4A 9178  16.607   2.029   8.248 -0.0187  0.0916 -0.3194
  574loPI   C5A 9179  16.591   1.980   7.750  0.1843 -0.1072 -0.4613
  574loPI   C6A 9180  16.521   2.019   7.374 -0.0238 -0.1456 -0.0637
  574loPI   C1B 9181  16.909   1.617   9.384 -0.0353 -0.0576 -0.2083
  574loPI   C2B 9182  16.875   1.332   9.085  0.0107  0.0324  0.6017
  574loPI   C3B 9183  16.793   1.329   8.658 -0.4432 -0.2212 -0.3310
  574loPI   C4B 9184  16.870   1.229   8.364  0.2379 -0.2497 -0.1945
  575loPI    C1 9185  17.826   9.843   9.922  0.1480  0.0234 -0.1432
  575loPI    C2 9186  17.960   9.883  10.297  0.2108  0.0435 -0.1677
  575loPI    C3 9187  17.639  10.089  10.176  0.1423 -0.0243 -0.1012
  575loPI   PO4 9188  18.056   9.896   9.748 -0.1720 -0.3018  0.1606
  575loPI   GL1 9189  18.352  10.108   9.540 -0.0545  0.2120  0.0953
  575loPI   GL2 9190  18.172  10.432   9.513  0.1566 -0.3933 -0.0012
  575loPI   C1A 9191  18.400   9.916   9.116  0.0367  0.0444 -0.2612
  575loPI   C2A 9192  18.471   9.971   8.621 -0.3482 -0.1160 -0.1754
  575loPI   C3A 9193  18.257   9.946   8.420  0.1816 -0.0104 -0.1242
  575loPI   C4A 9194  18.021   9.972   8.061  0.0031  0.0791  0.0399
  575loPI   C5A 9195  17.833   9.998   7.685 -0.0655  0.2688 -0.3552
  575loPI   C6A 9196  17.768  10.175   7.177 -0.0804  0.1568 -0.3279
  575loPI   C1B 9197  18.305  10.560   9.020  0.3286  0.0147 -0.0388
  575loPI   C2B 9198  18.202  10.430   8.754  0.1339  0.4695  0.4450
  575loPI   C3B 9199  18.339  10.396   8.330 -0.2247  0.0695 -0.0699
  575loPI   C4B 9200  18.175  10.428   7.941 -0.1334  0.2264 -0.1874
  576loPI    C1 9201   4.509   4.127  10.319 -0.0122  0.0012  0.0659
  576loPI    C2 9202   4.226   4.337  10.508 -0.1667 -0.0453 -0.1106
  576loPI    C3 9203   4.601   4.476  10.491 -0.1929  0.0496  0.0665
  576loPI   PO4 9204   4.334   4.163  10.001  0.1915  0.3590 -0.5653
  576loPI   GL1 9205   4.340   4.272   9.654  0.1130  0.0578  0.2294
  576loPI   GL2 9206   4.033   4.267   9.592 -0.0028  0.3607  0.0066
  576loPI   C1A 9207   4.379   4.228   9.195  0.1164  0.1318  0.0882
  576loPI   C2A 9208   4.391   4.242   8.750 -0.1324 -0.1263  0.1109
  576loPI   C3A 9209   4.087   4.286   8.332  0.1909  0.2166 -0.1818
  576loPI   C4A 9210   3.710   4.307   8.011  0.1281 -0.0760 -0.0741
  576loPI   C5A 9211   3.284   4.142   7.883  0.3786 -0.1305  0.0770
  576loPI   C6A 9212   3.145   3.693   7.881 -0.1086  0.0089 -0.3127
  576loPI   C1B 9213   3.848   4.251   9.134 -0.2073  0.1705 -0.0976
  576loPI   C2B 9214   3.724   4.395   8.795 -0.1032 -0.2001  0.0408
  576loPI   C3B 9215   3.614   4.606   8.426  0.0009  0.0259 -0.4263
  576loPI   C4B 9216   3.299   4.613   7.994  0.2276 -0.0273 -0.0234
  577loPI    C1 9217   9.289  15.950   9.526 -0.1595  0.1796 -0.0463
  577loPI    C2 9218   9.121  15.931   9.888  0.0505  0.1105  0.0492
  577loPI    C3 9219   9.232  16.284   9.738 -0.1609  0.1545 -0.0069
  577loPI   PO4 9220   9.528  15.811   9.507  0.2197  0.0066 -0.2290
  577loPI   GL1 9221   9.789  15.604   9.203  0.3606  0.0860  0.0935
  577loPI   GL2 9222   9.665  15.352   9.092 -0.0315  0.2114 -0.3106
  577loPI   C1A 9223   9.937  15.565   8.772 -0.0171  0.3312  0.0624
  577loPI   C2A 9224  10.059  15.534   8.380  0.0944  0.2162 -0.1916
  577loPI   C3A 9225  10.216  15.565   7.954 -0.1331 -0.0682 -0.1913
  577loPI   C4A 9226  10.193  15.491   7.541  0.1635  0.1751  0.3284
  577loPI   C5A 9227  10.085  15.655   7.222 -0.2742  0.1263  0.3747
  577loPI   C6A 9228  10.065  15.707   6.873  0.0613  0.1242  0.4002
  577loPI   C1B 9229   9.564  15.237   8.747 -0.0954  0.0635 -0.0892
  577loPI   C2B 9230   9.432  15.162   8.314  0.0434 -0.0695  0.0740
  577loPI   C3B 9231   9.653  15.072   7.901 -0.1014  0.1237  0.1053
  577loPI   C4B 9232   9.683  15.190   7.418 -0.3689  0.0683 -0.0597
  578loPI    C1 9233  13.079   1.408   9.893 -0.1806 -0.2474  0.0269
  578loPI    C2 9234  12.839   1.634   9.666  0.1248  0.0106 -0.0474
  578loPI    C3 9235  12.778   1.610  10.061  0.0913  0.2274 -0.0384
  578loPI   PO4 9236  13.281   1.314   9.762  0.3259 -0.2336  0.2201
  578loPI   GL1 9237  13.374   1.471   9.373 -0.3024 -0.1578 -0.1524
  578loPI   GL2 9238  13.105   1.292   9.274 -0.1800 -0.0198 -0.2669
  578loPI   C1A 9239  13.492   1.704   8.998  0.3067  0.4557  0.2571
  578loPI   C2A 9240  13.292   1.739   8.616  0.0678 -0.4484  0.0003
  578loPI   C3A 9241  13.150   1.832   8.224 -0.6403  0.0140  0.1123
  578loPI   C4A 9242  13.156   1.844   7.843  0.0336 -0.1516  0.0500
  578loPI   C5A 9243  13.117   1.899   7.428 -0.3376 -0.0895  0.0884
  578loPI   C6A 9244  13.097   2.030   6.946  0.2163 -0.1820  0.2497
  578loPI   C1B 9245  12.951   1.561   9.039  0.0085  0.0798 -0.1430
  578loPI   C2B 9246  12.772   1.669   8.644  0.0189 -0.3064  0.2134
  578loPI   C3B 9247  12.674   1.651   8.249 -0.0704 -0.1550 -0.2530
  578loPI   C4B 9248  12.596   1.696   7.811  0.0304  0.3028  0.2495
  579loPI    C1 9249   8.971   6.119  10.097 -0.0658 -0.1426 -0.1250
  579loPI    C2 9250   8.620   6.019  10.260 -0.0744 -0.1512 -0.1490
  579loPI    C3 9251   8.896   6.207  10.480 -0.2253  0.1635 -0.2241
  579loPI   PO4 9252   8.931   6.206   9.836  0.0190 -0.0945  0.2589
  579loPI   GL1 9253   8.981   6.393   9.391  0.0746  0.0296 -0.2795
  579loPI   GL2 9254   9.241   6.520   9.227 -0.3136 -0.0633  0.0402
  579loPI   C1A 9255   8.912   6.303   8.982  0.0788 -0.0894  0.2384
  579loPI   C2A 9256   8.833   6.319   8.690 -0.0520 -0.0867 -0.2779
  579loPI   C3A 9257   8.850   6.306   8.293  0.1619 -0.0913 -0.0975
  579loPI   C4A 9258   8.802   6.361   7.887  0.4424  0.0472  0.1685
  579loPI   C5A 9259   8.765   6.660   7.613 -0.5331 -0.0415  0.1785
  579loPI   C6A 9260   8.597   7.136   7.570  0.4129  0.3022 -0.1793
  579loPI   C1B 9261   9.320   6.537   8.813  0.0721 -0.0845  0.0136
  579loPI   C2B 9262   9.485   6.757   8.515 -0.0130 -0.4031  0.0790
  579loPI   C3B 9263   9.605   6.737   8.098  0.1728  0.0115 -0.1383
  579loPI   C4B 9264   9.962   6.842   7.787  0.0186  0.0393 -0.1023
  580loPI    C1 9265  15.579   6.832   9.645 -0.2995 -0.0040 -0.1468
  580loPI    C2 9266  15.492   6.682  10.006  0.1315 -0.0787 -0.0685
  580loPI    C3 9267  15.443   7.073   9.934 -0.2483 -0.1152 -0.0293
  580loPI   PO4 9268  15.495   6.666   9.460  0.0815 -0.0916 -0.1771
  580loPI   GL1 9269  15.298   6.745   9.140  0.2527  0.0850 -0.5487
  580loPI   GL2 9270  15.522   6.499   8.983  0.2484 -0.1051 -0.1153
  580loPI   C1A 9271  15.196   6.687   8.631  0.6508 -0.1407 -0.0983
  580loPI   C2A 9272  15.366   6.914   8.252 -0.1389  0.1729 -0.2040
  580loPI   C3A 9273  15.578   7.132   7.818  0.1488  0.1262  0.3337
  580loPI   C4A 9274  15.592   7.437   7.521  0.1883 -0.2737  0.1640
  580loPI   C5A 9275  15.787   7.721   7.270 -0.0031  0.2197 -0.2429
  580loPI   C6A 9276  15.806   8.181   7.314 -0.0398 -0.2369  0.1817
  580loPI   C1B 9277  15.598   6.393   8.403 -0.1424 -0.3621 -0.1351
  580loPI   C2B 9278  15.701   6.604   7.971 -0.0415  0.2905  0.1692
  580loPI   C3B 9279  15.594   6.532   7.519  0.0901  0.1585 -0.0926
  580loPI   C4B 9280  15.669   6.349   7.167 -0.0175  0.0421 -0.1530
  581loPI    C1 9281   5.906   7.729  10.208 -0.2040  0.2925  0.1217
  581loPI    C2 9282   6.239   7.931  10.299  0.0620 -0.0685 -0.0234
  581loPI    C3 9283   6.028   7.752  10.588  0.2337 -0.1991  0.0224
  581loPI   PO4 9284   5.809   7.961   9.958 -0.0506  0.2745  0.0135
  581loPI   GL1 9285   5.718   7.932   9.584  0.0269 -0.0625  0.1395
  581loPI   GL2 9286   5.983   7.778   9.468 -0.0675  0.0866  0.0695
  581loPI   C1A 9287   5.759   8.093   9.103  0.2673 -0.1849 -0.0751
  581loPI   C2A 9288   5.771   8.190   8.600 -0.0188 -0.0223  0.4063
  581loPI   C3A 9289   5.731   8.216   8.151  0.4617  0.1276  0.0332
  581loPI   C4A 9290   5.817   8.464   7.812 -0.0466  0.0139  0.0985
  581loPI   C5A 9291   5.697   8.868   7.685 -0.1422 -0.0799 -0.1567
  581loPI   C6A 9292   5.546   9.292   7.582 -0.2435  0.2309  0.1853
  581loPI   C1B 9293   6.191   7.740   9.069  0.0059  0.3565  0.0469
  581loPI   C2B 9294   6.310   7.798   8.650  0.0920  0.1159  0.3682
  581loPI   C3B 9295   6.427   7.796   8.257 -0.2415  0.0661  0.1572
  581loPI   C4B 9296   6.522   7.618   7.836 -0.1997  0.2524 -0.1979
  582loPI    C1 9297   1.531  18.200  10.417  0.1793 -0.1688  0.0201
  582loPI    C2 9298   1.739  18.530  10.505  0.2160 -0.2581  0.2755
  582loPI    C3 9299   1.558  18.324  10.796  0.0675 -0.3802  0.0988
  582loPI   PO4 9300   1.425  18.194  10.156 -0.0162  0.0474  0.2018
  582loPI   GL1 9301   1.532  18.243   9.774 -0.1155 -0.2933  0.1115
  582loPI   GL2 9302   1.697  17.926   9.707  0.1480 -0.1061  0.0649
  582loPI   C1A 9303   1.310  18.471   9.341  0.0784  0.0306 -0.0510
  582loPI   C2A 9304   1.435  18.535   9.025  0.0798 -0.0910 -0.1157
  582loPI   C3A 9305   1.268  18.766   8.652  0.0439 -0.1215  0.2766
  582loPI   C4A 9306   1.270  19.150   8.395  0.0706 -0.0300  0.2390
  582loPI   C5A 9307   1.257  19.282   7.961 -0.1942  0.0157  0.1408
  582loPI   C6A 9308   0.985  18.994   7.722 -0.0923 -0.0491 -0.0030
  582loPI   C1B 9309   1.860  18.138   9.271 -0.0928 -0.1210  0.3488
  582loPI   C2B 9310   1.727  18.088   8.880  0.1194  0.0410  0.4069
  582loPI   C3B 9311   1.933  18.017   8.431  0.0929 -0.0738  0.0384
  582loPI   C4B 9312   2.016  17.799   8.024  0.2324 -0.2712 -0.0869
  583loPI    C1 9313  18.989  13.679  10.456  0.0640  0.2835 -0.0309
  583loPI    C2 9314  19.035  13.736  10.849 -0.1330 -0.1769  0.0652
  583loPI    C3 9315  19.147  13.390  10.683  0.0548  0.0573 -0.3072
  583loPI   PO4 9316  19.128  13.868  10.285 -0.1410 -0.1892 -0.1981
  583loPI   GL1 9317  19.232  14.014   9.853  0.1867 -0.2621 -0.0083
  583loPI   GL2 9318  19.347  13.750   9.694  0.0281  0.2410  0.0845
  583loPI   C1A 9319  19.439  14.198   9.500  0.2650 -0.3600 -0.0109
  583loPI   C2A 9320  19.412  14.346   9.181  0.1096  0.2308 -0.1464
  583loPI   C3A 9321  19.415  14.319   8.724  0.0953  0.2788 -0.1621
  583loPI   C4A 9322  19.173  14.349   8.296 -0.0182 -0.1061 -0.3074
  583loPI   C5A 9323  18.853  14.651   8.005 -0.0605  0.1651  0.1249
  583loPI   C6A 9324  18.716  14.679   7.589 -0.4256 -0.0564  0.0792
  583loPI   C1B 9325  19.223  13.850   9.257  0.0493  0.3741  0.1292
  583loPI   C2B 9326  19.094  14.029   8.952 -0.1109 -0.0435 -0.3500
  583loPI   C3B 9327  18.859  14.204   8.689  0.1641 -0.0985  0.1151
  583loPI   C4B 9328  18.706  14.499   8.432  0.2510 -0.1935 -0.3660
  584loPI    C1 9329   5.400   4.325  10.069 -0.1689 -0.0447  0.3608
  584loPI    C2 9330   5.491   3.962   9.926 -0.3210  0.0607 -0.0137
  584loPI    C3 9331   5.576   4.054  10.306  0.1063 -0.2212 -0.0344
  584loPI   PO4 9332   5.486   4.474   9.898  0.0670  0.2797  0.0396
  584loPI   GL1 9333   5.601   4.546   9.430  0.1449 -0.2406  0.1191
  584loPI   GL2 9334   5.604   4.108   9.476  0.0821 -0.1323  0.2888
  584loPI   C1A 9335   5.749   4.593   8.897 -0.0640 -0.1094  0.0649
  584loPI   C2A 9336   5.950   4.419   8.529  0.0775  0.3324  0.2103
  584loPI   C3A 9337   6.018   4.188   8.156  0.1630  0.3304 -0.0981
  584loPI   C4A 9338   5.921   3.931   7.715  0.0837 -0.2287 -0.1428
  584loPI   C5A 9339   5.620   3.955   7.406 -0.1875 -0.0584  0.0452
  584loPI   C6A 9340   5.365   3.707   7.047  0.2374 -0.0693 -0.0720
  584loPI   C1B 9341   5.348   4.255   9.096 -0.0259  0.0006  0.2653
  584loPI   C2B 9342   5.287   4.337   8.643  0.1391  0.0870  0.2078
  584loPI   C3B 9343   5.454   4.456   8.335 -0.2409  0.2227  0.0145
  584loPI   C4B 9344   5.566   4.597   7.944 -0.0109  0.2366 -0.0538
  585loPI    C1 9345   4.876   3.946  10.039 -0.0701  0.0657  0.0387
  585loPI    C2 9346   5.136   3.733  10.256 -0.1434  0.0615  0.1231
  585loPI    C3 9347   5.005   4.086  10.391 -0.0993  0.1139  0.0304
  585loPI   PO4 9348   4.991   3.992   9.847 -0.0656  0.0769  0.1291
  585loPI   GL1 9349   4.778   4.237   9.561  0.0462  0.0389  0.1635
  585loPI   GL2 9350   5.097   4.322   9.567  0.0508 -0.1174  0.0987
  585loPI   C1A 9351   4.873   4.197   9.032 -0.3647 -0.0499 -0.0664
  585loPI   C2A 9352   4.840   4.213   8.539 -0.6778  0.0285 -0.0689
  585loPI   C3A 9353   4.710   4.408   8.171  0.1341  0.0992  0.3046
  585loPI   C4A 9354   4.259   4.469   7.936  0.0768  0.2118 -0.0007
  585loPI   C5A 9355   3.908   4.624   7.681  0.1478 -0.1375 -0.0751
  585loPI   C6A 9356   3.492   4.494   7.514 -0.2353  0.1267  0.3101
  585loPI   C1B 9357   5.029   4.654   9.280 -0.2415  0.3023  0.1044
  585loPI   C2B 9358   5.062   4.741   8.845 -0.1124 -0.0601  0.0820
  585loPI   C3B 9359   5.025   4.716   8.419 -0.0047  0.0604  0.3174
  585loPI   C4B 9360   5.101   4.626   8.038 -0.1509 -0.1163  0.1059
  586loPI    C1 9361   3.143   9.750  10.111 -0.1878  0.0287  0.0139
  586loPI    C2 9362   2.988   9.415  10.265 -0.3525  0.0182 -0.1695
  586loPI    C3 9363   3.286   9.604  10.454 -0.2761 -0.2167 -0.0516
  586loPI   PO4 9364   3.252   9.697   9.877  0.3403 -0.0477  0.0509
  586loPI   GL1 9365   3.512   9.640   9.525  0.3316 -0.4927  0.0496
  586loPI   GL2 9366   3.547   9.357   9.420  0.2912 -0.2520 -0.1408
  586loPI   C1A 9367   3.546   9.887   9.259 -0.0607 -0.0309 -0.1258
  586loPI   C2A 9368   3.492   9.924   8.876 -0.1705 -0.1327 -0.0612
  586loPI   C3A 9369   3.462   9.854   8.360  0.0972  0.2039  0.2182
  586loPI   C4A 9370   3.623   9.773   7.892  0.1353  0.0444  0.3005
  586loPI   C5A 9371   3.905   9.629   7.510 -0.0200  0.0229  0.1926
  586loPI   C6A 9372   4.169   9.581   7.189 -0.0663  0.1845 -0.0783
  586loPI   C1B 9373   3.357   9.331   9.086  0.1602 -0.0153 -0.0587
  586loPI   C2B 9374   3.377   9.437   8.617  0.2469  0.1402 -0.0194
  586loPI   C3B 9375   3.282   9.238   8.134 -0.0060 -0.1071  0.0101
  586loPI   C4B 9376   3.387   8.937   7.859  0.2295  0.1663  0.2799
  587loPI    C1 9377   6.112   3.589  10.209 -0.0938 -0.1159 -0.1403
  587loPI    C2 9378   6.494   3.510  10.121 -0.0590 -0.2923  0.1555
  587loPI    C3 9379   6.389   3.598  10.497 -0.2980 -0.1631  0.0609
  587loPI   PO4 9380   6.098   3.779  10.002 -0.2248  0.4119  0.0689
  587loPI   GL1 9381   5.984   3.743   9.646 -0.0017 -0.0153 -0.1093
  587loPI   GL2 9382   5.691   3.613   9.627 -0.0827  0.0207 -0.0871
  587loPI   C1A 9383   5.966   3.782   9.231 -0.2516  0.1180  0.0288
  587loPI   C2A 9384   5.666   3.876   8.919 -0.2027 -0.2302  0.2726
  587loPI   C3A 9385   5.641   4.031   8.523 -0.0711  0.1566  0.0023
  587loPI   C4A 9386   5.597   4.074   8.036 -0.0422  0.0028 -0.0802
  587loPI   C5A 9387   5.314   4.291   7.628  0.1149 -0.0999  0.2061
  587loPI   C6A 9388   5.047   4.611   7.511 -0.2613 -0.1340 -0.1739
  587loPI   C1B 9389   5.686   3.384   9.402  0.1216 -0.0957  0.1511
  587loPI   C2B 9390   5.667   3.392   8.923 -0.0144 -0.3399  0.0629
  587loPI   C3B 9391   5.675   3.496   8.512 -0.0544 -0.1223 -0.0428
  587loPI   C4B 9392   5.552   3.545   8.005 -0.3378  0.2831  0.1829
  588loPI    C1 9393  15.434  14.973  10.326 -0.1134 -0.2582 -0.0097
  588loPI    C2 9394  15.222  15.268  10.158 -0.0674 -0.1622  0.0994
  588loPI    C3 9395  15.220  15.222  10.555  0.0282 -0.2294  0.0923
  588loPI   PO4 9396  15.608  14.943  10.176  0.1401 -0.0849  0.1144
  588loPI   GL1 9397  15.756  15.163   9.812  0.3938  0.3542  0.0020
  588loPI   GL2 9398  15.512  15.381   9.752  0.2242  0.0315  0.0002
  588loPI   C1A 9399  15.882  15.340   9.408  0.1652  0.3866 -0.1423
  588loPI   C2A 9400  16.191  15.267   9.149 -0.1393  0.2773  0.0144
  588loPI   C3A 9401  16.297  15.370   8.756 -0.1896  0.0588  0.0765
  588loPI   C4A 9402  16.166  15.583   8.369  0.1528 -0.1247 -0.1748
  588loPI   C5A 9403  16.051  15.741   7.981  0.3403 -0.1312 -0.0343
  588loPI   C6A 9404  16.157  15.846   7.563 -0.0499 -0.0113  0.0332
  588loPI   C1B 9405  15.384  15.435   9.326  0.2800 -0.1493  0.0344
  588loPI   C2B 9406  15.551  15.289   8.993 -0.0365  0.1477  0.3504
  588loPI   C3B 9407  15.501  15.425   8.632  0.2627  0.0290  0.2146
  588loPI   C4B 9408  15.561  15.498   8.190 -0.4030  0.1176  0.1840
  589loPI    C1 9409   6.265  11.306  10.567  0.2813 -0.2486 -0.0377
  589loPI    C2 9410   6.494  11.570  10.372  0.0109  0.1412  0.1588
  589loPI    C3 9411   6.600  11.445  10.737 -0.0134  0.2097  0.1896
  589loPI   PO4 9412   6.200  11.168  10.261  0.0492  0.1955  0.0099
  589loPI   GL1 9413   6.088  11.336   9.855  0.0639  0.1705  0.1479
  589loPI   GL2 9414   6.225  11.705   9.923 -0.1561 -0.1409 -0.0828
  589loPI   C1A 9415   6.017  11.381   9.449  0.3403 -0.2211  0.0368
  589loPI   C2A 9416   5.704  11.307   9.156 -0.0495 -0.1363  0.0636
  589loPI   C3A 9417   5.626  11.236   8.737 -0.3006  0.0089 -0.0177
  589loPI   C4A 9418   5.695  11.555   8.301 -0.1365  0.1130 -0.1471
  589loPI   C5A 9419   5.785  11.501   7.828 -0.3089 -0.1833  0.1229
  589loPI   C6A 9420   6.054  11.717   7.471  0.0471  0.1026 -0.0243
  589loPI   C1B 9421   6.122  11.858   9.515  0.0570  0.2816  0.1020
  589loPI   C2B 9422   6.137  11.973   9.061 -0.0264  0.3770  0.0873
  589loPI   C3B 9423   6.371  11.845   8.651  0.0862  0.1903 -0.4304
  589loPI   C4B 9424   6.272  11.493   8.423 -0.1867 -0.0850  0.1195
  590loPI    C1 9425  11.265   9.621  10.062  0.0163 -0.0309  0.0066
  590loPI    C2 9426  11.531   9.326  10.111  0.1033  0.0530  0.0424
  590loPI    C3 9427  11.441   9.568  10.417 -0.0959 -0.0422  0.0611
  590loPI   PO4 9428  11.119   9.569   9.872  0.3152  0.3899 -0.1111
  590loPI   GL1 9429  10.843   9.687   9.565 -0.0724  0.0969  0.3359
  590loPI   GL2 9430  10.867   9.434   9.254  0.1911 -0.1117 -0.2062
  590loPI   C1A 9431  10.817   9.923   9.121 -0.1564 -0.2391  0.0290
  590loPI   C2A 9432  10.679   9.742   8.777  0.0295  0.2891 -0.0710
  590loPI   C3A 9433  10.636   9.519   8.444 -0.2676 -0.0141 -0.2847
  590loPI   C4A 9434  10.697   9.179   8.191  0.3551  0.2431  0.1293
  590loPI   C5A 9435  10.507   8.801   8.182 -0.1564 -0.0884  0.0737
  590loPI   C6A 9436  10.247   8.663   8.328  0.2043 -0.3062 -0.0258
  590loPI   C1B 9437  10.511   9.225   9.121  0.3386 -0.2185 -0.1504
  590loPI   C2B 9438  10.287   9.282   8.732  0.1846  0.0130 -0.1684
  590loPI   C3B 9439  10.257   9.220   8.384 -0.0544  0.1445  0.0905
  590loPI   C4B 9440  10.230   9.173   7.890 -0.2786  0.3521  0.1583
  591POPI    C1 9441  15.050   6.911   9.671  0.1262  0.3314  0.0238
  591POPI    C2 9442  14.702   7.049   9.531 -0.0053 -0.0833 -0.0723
  591POPI    C3 9443  14.829   7.159   9.894 -0.2985 -0.0282  0.0166
  591POPI   PO4 9444  15.031   6.625   9.754 -0.3018 -0.1540 -0.0331
  591POPI   GL1 9445  15.008   6.398   9.405 -0.0228 -0.0801  0.2035
  591POPI   GL2 9446  14.713   6.432   9.383  0.1281 -0.1608 -0.0031
  591POPI   C1A 9447  15.030   6.235   8.955 -0.1562 -0.1846 -0.0548
  591POPI   D2A 9448  14.855   6.325   8.594 -0.1361  0.0650  0.0892
  591POPI   C3A 9449  15.090   6.478   8.176 -0.1114  0.0971 -0.2233
  591POPI   C4A 9450  15.189   6.747   7.810  0.0501  0.3311  0.0681
  591POPI   C1B 9451  14.734   6.601   9.077 -0.3402  0.0472  0.2896
  591POPI   C2B 9452  14.796   6.941   8.845 -0.0516 -0.1085  0.0888
  591POPI   C3B 9453  14.912   6.955   8.361  0.2798  0.3974 -0.2277
  591POPI   C4B 9454  14.493   7.045   8.130  0.1483  0.3510 -0.1236
  592POPI    C1 9455   5.459   9.603  10.512 -0.0480  0.0006  0.1727
  592POPI    C2 9456   5.200   9.840  10.704 -0.0019  0.2098 -0.0181
  592POPI    C3 9457   5.515   9.688  10.899 -0.2199  0.0200  0.1941
  592POPI   PO4 9458   5.418   9.766  10.235 -0.5033 -0.1852 -0.2716
  592POPI   GL1 9459   5.073   9.943  10.176  0.1438  0.0878 -0.2373
  592POPI   GL2 9460   5.199  10.278  10.008  0.2301 -0.0208  0.1437
  592POPI   C1A 9461   4.965   9.817   9.769 -0.0230  0.1418 -0.1372
  592POPI   D2A 9462   4.865   9.749   9.365  0.1051 -0.0307 -0.4206
  592POPI   C3A 9463   4.876  10.090   9.104  0.2892 -0.0263 -0.1841
  592POPI   C4A 9464   4.789  10.130   8.587 -0.1716 -0.1231  0.2050
  592POPI   C1B 9465   5.192  10.208   9.581  0.0048 -0.3854  0.1850
  592POPI   C2B 9466   5.325   9.968   9.257  0.0823 -0.0962  0.0912
  592POPI   C3B 9467   5.267   9.897   8.817 -0.0320  0.1766  0.4419
  592POPI   C4B 9468   5.432   9.568   8.516  0.0606  0.1381  0.3570
  593POPI    C1 9469  14.093   7.172  10.029  0.1834  0.0579  0.1709
  593POPI    C2 9470  14.094   6.835  10.244  0.0892  0.0481  0.1566
  593POPI    C3 9471  14.061   7.189  10.427  0.2751  0.0552  0.1787
  593POPI   PO4 9472  14.295   7.163   9.860 -0.0874 -0.1613  0.2311
  593POPI   GL1 9473  14.309   7.316   9.404  0.1939 -0.1646 -0.2799
  593POPI   GL2 9474  14.277   7.641   9.351  0.0598 -0.0757 -0.0227
  593POPI   C1A 9475  14.405   7.087   9.118  0.2287 -0.2045  0.2740
  593POPI   D2A 9476  14.304   7.003   8.681 -0.0431 -0.0637  0.2089
  593POPI   C3A 9477  14.502   6.648   8.612 -0.4698 -0.3116  0.1489
  593POPI   C4A 9478  14.582   6.429   8.209  0.0164 -0.0203 -0.0960
  593POPI   C1B 9479  14.120   7.610   9.058  0.1590 -0.3781  0.2122
  593POPI   C2B 9480  14.137   7.501   8.697  0.0558  0.3926 -0.0497
  593POPI   C3B 9481  14.078   7.327   8.348 -0.2218 -0.0285  0.1286
  593POPI   C4B 9482  14.055   7.152   7.993  0.2514 -0.2774  0.1293
  594POPI    C1 9483   0.247   0.045  10.313  0.2059  0.2897 -0.1882
  594POPI    C2 9484   0.602   0.103  10.487 -0.0355 -0.0390  0.4475
  594POPI    C3 9485   0.310   0.372  10.535  0.0625  0.1393  0.0797
  594POPI   PO4 9486   0.350  -0.004  10.038  0.1767  0.1559 -0.1589
  594POPI   GL1 9487   0.217   0.193   9.635  0.0805 -0.2323 -0.2018
  594POPI   GL2 9488   0.433   0.328   9.433  0.1091  0.0034 -0.0330
  594POPI   C1A 9489  -0.035   0.152   9.291 -0.0552 -0.1823 -0.1128
  594POPI   D2A 9490   0.109   0.168   8.860 -0.0505 -0.1013  0.0980
  594POPI   C3A 9491   0.166  -0.020   8.357 -0.1673  0.0226 -0.0526
  594POPI   C4A 9492  -0.013  -0.037   7.924  0.0261  0.1219 -0.1056
  594POPI   C1B 9493   0.587   0.358   9.041 -0.2505  0.0163  0.2257
  594POPI   C2B 9494   0.457   0.484   8.611  0.0304  0.0019  0.1756
  594POPI   C3B 9495   0.544   0.622   8.152  0.0678 -0.0774 -0.0705
  594POPI   C4B 9496   0.354   0.411   8.036 -0.0421 -0.2638 -0.0966
  595POPI    C1 9497  15.314  16.137  10.259  0.0926  0.3217  0.2407
  595POPI    C2 9498  15.410  15.786  10.095  0.0123  0.3659  0.0975
  595POPI    C3 9499  15.249  15.798  10.461 -0.0513  0.2490  0.0739
  595POPI   PO4 9500  15.204  16.270  10.009  0.2449  0.1837 -0.0419
  595POPI   GL1 9501  15.523  16.512   9.718 -0.1811 -0.1049  0.0509
  595POPI   GL2 9502  15.254  16.817   9.495 -0.1476 -0.1404  0.0350
  595POPI   C1A 9503  15.531  16.339   9.378 -0.1108  0.1096 -0.0975
  595POPI   D2A 9504  15.140  16.295   9.043 -0.0676 -0.0797  0.1167
  595POPI   C3A 9505  15.317  16.394   8.760  0.2537 -0.1701  0.1699
  595POPI   C4A 9506  15.676  16.355   8.462 -0.2421 -0.1053 -0.0731
  595POPI   C1B 9507  15.367  16.859   9.109  0.0812 -0.0310 -0.2275
  595POPI   C2B 9508  15.588  16.946   8.689  0.5071 -0.1352  0.0641
  595POPI   C3B 9509  15.323  16.837   8.283  0.0031  0.0912 -0.0480
  595POPI   C4B 9510  15.294  16.729   7.804  0.0532  0.4150  0.1953
  596POPI    C1 9511  14.722   1.097   9.949 -0.1388 -0.1473 -0.0375
  596POPI    C2 9512  14.463   0.955  10.219  0.1735  0.0427  0.3744
  596POPI    C3 9513  14.535   1.348  10.198 -0.1690  0.0846 -0.2887
  596POPI   PO4 9514  14.643   0.995   9.705  0.2394  0.0923  0.1367
  596POPI   GL1 9515  14.670   1.017   9.325  0.1081  0.3043  0.0018
  596POPI   GL2 9516  14.957   1.040   9.122  0.0559  0.0808  0.3490
  596POPI   C1A 9517  14.420   1.152   9.046  0.0880 -0.0392  0.2037
  596POPI   D2A 9518  14.123   1.025   8.776  0.1114  0.1465  0.2557
  596POPI   C3A 9519  14.206   0.859   8.383 -0.1908 -0.0906  0.1082
  596POPI   C4A 9520  14.208   0.847   7.929  0.2139 -0.4293 -0.1205
  596POPI   C1B 9521  14.853   1.102   8.668  0.0049  0.2004  0.1001
  596POPI   C2B 9522  14.637   1.111   8.408  0.3528 -0.0368 -0.1633
  596POPI   C3B 9523  14.598   1.102   8.012  0.0976 -0.0787  0.1294
  596POPI   C4B 9524  14.586   1.165   7.584  0.1591  0.0024  0.1472
  597POPI    C1 9525  15.612  18.436   9.818  0.0510  0.0769  0.0560
  597POPI    C2 9526  15.401  18.227  10.086  0.3397  0.1343  0.3339
  597POPI    C3 9527  15.482  18.613  10.153  0.2883  0.1889  0.0909
  597POPI   PO4 9528  15.996  18.260   9.762 -0.1791  0.0865  0.3033
  597POPI   GL1 9529  16.210  18.276   9.512  0.0508  0.1199 -0.0223
  597POPI   GL2 9530  16.207  18.627   9.306 -0.0248 -0.0186  0.0413
  597POPI   C1A 9531  16.612  18.324   9.321 -0.1361  0.1052  0.1792
  597POPI   D2A 9532  16.734  18.263   8.948  0.0464 -0.2799  0.0901
  597POPI   C3A 9533  17.145  18.417   8.758  0.0456  0.2856 -0.1698
  597POPI   C4A 9534  17.471  18.142   8.651  0.3760 -0.1502  0.0404
  597POPI   C1B 9535  16.288  18.492   8.940 -0.1933 -0.0240 -0.0690
  597POPI   C2B 9536  16.394  18.462   8.492  0.2885 -0.0990 -0.2108
  597POPI   C3B 9537  16.251  18.572   8.131 -0.1992 -0.1544  0.1200
  597POPI   C4B 9538  15.799  18.558   7.960 -0.2091  0.2834  0.0966
  598POPI    C1 9539  15.412  16.792  10.086 -0.0223 -0.0575 -0.2665
  598POPI    C2 9540  15.398  16.959  10.449 -0.0251 -0.1484 -0.2245
  598POPI    C3 9541  15.239  16.597  10.389  0.3270 -0.3082 -0.2213
  598POPI   PO4 9542  15.399  16.975   9.933 -0.2975 -0.5094 -0.0382
  598POPI   GL1 9543  15.573  17.184   9.557 -0.0694 -0.1762  0.0845
  598POPI   GL2 9544  15.721  17.512   9.442 -0.0355 -0.2954 -0.1279
  598POPI   C1A 9545  15.773  16.767   9.349  0.0932 -0.3880  0.1844
  598POPI   D2A 9546  15.769  16.563   8.958  0.0025 -0.1474 -0.3433
  598POPI   C3A 9547  15.687  16.132   8.965  0.0961  0.3679 -0.0993
  598POPI   C4A 9548  15.887  15.676   8.879 -0.0506 -0.3137 -0.0698
  598POPI   C1B 9549  15.618  17.441   8.990 -0.1934  0.0912  0.0497
  598POPI   C2B 9550  15.722  17.557   8.568 -0.0323 -0.0021  0.0494
  598POPI   C3B 9551  15.816  17.309   8.210 -0.1393  0.0737 -0.0992
  598POPI   C4B 9552  16.166  17.069   7.997 -0.0948 -0.0632  0.2199
  599POPI    C1 9553   9.653  15.348   9.594  0.1705  0.3368  0.0051
  599POPI    C2 9554   9.344  15.194   9.393  0.2748  0.2570 -0.0957
  599POPI    C3 9555   9.281  15.392   9.734  0.1258  0.1166 -0.0399
  599POPI   PO4 9556   9.889  15.088   9.490  0.3420  0.0960  0.1100
  599POPI   GL1 9557  10.095  15.044   9.085  0.1476 -0.2237  0.0543
  599POPI   GL2 9558  10.329  14.671   9.037 -0.3691 -0.3209 -0.2249
  599POPI   C1A 9559  10.349  15.211   8.674  0.1487 -0.0108 -0.0898
  599POPI   D2A 9560  10.567  15.360   8.336 -0.0364  0.2248  0.1260
  599POPI   C3A 9561  10.697  15.575   7.855 -0.0691  0.1363  0.0810
  599POPI   C4A 9562  10.880  15.792   7.579  0.0695 -0.2873  0.1284
  599POPI   C1B 9563  10.411  14.750   8.673  0.2037 -0.2526  0.1169
  599POPI   C2B 9564  10.284  14.606   8.275 -0.0750 -0.3739 -0.0267
  599POPI   C3B 9565  10.318  14.618   7.880  0.1920  0.2430  0.1179
  599POPI   C4B 9566  10.611  14.581   7.572 -0.2153  0.2182  0.1017
  600POPI    C1 9567   2.830  15.017  10.024 -0.0431 -0.0756  0.0559
  600POPI    C2 9568   2.907  15.241  10.346 -0.0951 -0.0462  0.0481
  600POPI    C3 9569   2.771  14.868  10.390 -0.0209 -0.0719  0.0610
  600POPI   PO4 9570   3.042  15.006   9.892  0.1940 -0.2764  0.2851
  600POPI   GL1 9571   3.067  15.050   9.503 -0.4225 -0.2603 -0.0570
  600POPI   GL2 9572   2.932  14.774   9.489  0.0795 -0.1261 -0.0929
  600POPI   C1A 9573   3.090  15.190   9.135 -0.2270 -0.1635  0.2530
  600POPI   D2A 9574   2.865  15.308   8.634  0.2451 -0.0207  0.0159
  600POPI   C3A 9575   2.994  15.373   8.252 -0.3548 -0.1454  0.3586
  600POPI   C4A 9576   2.864  15.601   8.026 -0.0449 -0.2067 -0.0260
  600POPI   C1B 9577   2.910  14.765   9.107  0.1072  0.3995  0.0699
  600POPI   C2B 9578   2.948  14.805   8.681  0.0922 -0.0404  0.1518
  600POPI   C3B 9579   2.924  14.896   8.243  0.1870 -0.3149  0.0316
  600POPI   C4B 9580   2.865  14.894   7.656  0.0592 -0.0439 -0.0604
  601POPI    C1 9581  12.782  14.323  10.050 -0.1575 -0.0436 -0.0763
  601POPI    C2 9582  12.965  14.032  10.255 -0.0381  0.0863  0.0035
  601POPI    C3 9583  13.101  14.407  10.276  0.0443  0.0835 -0.4022
  601POPI   PO4 9584  12.740  14.229   9.787 -0.2121 -0.1014 -0.0219
  601POPI   GL1 9585  12.681  14.056   9.472 -0.1432  0.0589 -0.0239
  601POPI   GL2 9586  12.828  13.861   9.279  0.3545 -0.0356 -0.0434
  601POPI   C1A 9587  12.864  14.318   9.101  0.0279 -0.3352  0.2754
  601POPI   D2A 9588  13.227  14.338   8.773  0.1022 -0.0084  0.0890
  601POPI   C3A 9589  13.305  14.560   8.357  0.0495  0.1442 -0.0778
  601POPI   C4A 9590  13.460  14.625   7.912  0.2191  0.0701 -0.1184
  601POPI   C1B 9591  12.814  13.753   8.807 -0.1281  0.2218 -0.3711
  601POPI   C2B 9592  13.027  13.621   8.449  0.3269 -0.1826  0.2447
  601POPI   C3B 9593  13.042  13.414   8.033  0.1414 -0.1510  0.2525
  601POPI   C4B 9594  13.347  13.341   7.791  0.0796  0.0732 -0.2715
  602POPI    C1 9595  11.738   2.065   9.685 -0.2245  0.1241  0.2534
  602POPI    C2 9596  11.891   1.776   9.916 -0.0888 -0.0385 -0.0338
  602POPI    C3 9597  11.967   2.160   9.999  0.2245 -0.1064  0.0057
  602POPI   PO4 9598  11.435   1.937   9.721 -0.2696 -0.1445 -0.0298
  602POPI   GL1 9599  11.296   1.786   9.315  0.4839 -0.2446 -0.1164
  602POPI   GL2 9600  11.166   1.507   9.463  0.3668 -0.2979  0.3387
  602POPI   C1A 9601  11.212   1.969   8.939 -0.1127 -0.0673  0.1685
  602POPI   D2A 9602  11.317   1.905   8.590  0.1337 -0.1276  0.0174
  602POPI   C3A 9603  11.190   2.072   8.221  0.1603 -0.0012  0.1497
  602POPI   C4A 9604  11.193   1.993   7.806 -0.2449  0.0920 -0.1534
  602POPI   C1B 9605  11.170   1.372   9.020  0.0438  0.2267  0.1421
  602POPI   C2B 9606  11.202   1.413   8.531  0.0625  0.0541  0.2023
  602POPI   C3B 9607  11.287   1.591   8.113 -0.1925 -0.1923  0.0223
  602POPI   C4B 9608  11.479   1.579   7.795 -0.2257 -0.0407  0.0728
  603POPI    C1 9609  15.905  13.646  10.086 -0.0051  0.0299 -0.1139
  603POPI    C2 9610  15.597  13.810  10.282 -0.0325 -0.0694 -0.0731
  603POPI    C3 9611  15.911  13.667  10.485  0.0751  0.0999 -0.1186
  603POPI   PO4 9612  15.721  13.604   9.816 -0.1039  0.0614  0.2194
  603POPI   GL1 9613  15.744  13.913   9.432 -0.1013 -0.2207  0.2448
  603POPI   GL2 9614  16.066  13.877   9.571 -0.0082  0.2428 -0.0625
  603POPI   C1A 9615  15.895  13.964   9.056  0.4404  0.1730 -0.0203
  603POPI   D2A 9616  15.937  13.957   8.602 -0.1018 -0.0568 -0.2195
  603POPI   C3A 9617  15.700  14.216   8.478  0.0757 -0.0764 -0.3647
  603POPI   C4A 9618  15.801  14.336   8.075 -0.0039  0.1412  0.1204
  603POPI   C1B 9619  16.482  13.975   9.392 -0.2360  0.1677 -0.0677
  603POPI   C2B 9620  16.491  14.256   8.972 -0.1686  0.0685  0.1698
  603POPI   C3B 9621  16.584  14.358   8.576 -0.2226  0.0018 -0.2765
  603POPI   C4B 9622  16.820  14.355   8.158 -0.1853 -0.1886  0.3900
  604POPI    C1 9623   7.885   7.637  10.201  0.0735  0.1034 -0.2258
  604POPI    C2 9624   7.644   7.324  10.142  0.0859  0.0268  0.1111
  604POPI    C3 9625   7.497   7.665  10.292  0.1418  0.0588  0.0932
  604POPI   PO4 9626   8.094   7.678   9.934  0.0363  0.0992  0.0184
  604POPI   GL1 9627   8.041   7.914   9.496 -0.1440 -0.1574  0.4627
  604POPI   GL2 9628   7.782   7.988   9.357  0.0252 -0.0059  0.0643
  604POPI   C1A 9629   8.225   8.283   9.319 -0.0907 -0.1216 -0.2629
  604POPI   D2A 9630   8.168   8.425   8.858  0.2116  0.0985 -0.0440
  604POPI   C3A 9631   8.332   8.218   8.460  0.1794 -0.0045  0.0591
  604POPI   C4A 9632   8.123   7.980   8.159 -0.0788 -0.2642  0.0750
  604POPI   C1B 9633   7.696   7.927   8.921  0.0652 -0.1530 -0.0373
  604POPI   C2B 9634   7.993   7.874   8.659 -0.0879 -0.1878 -0.2105
  604POPI   C3B 9635   7.717   7.575   8.392 -0.0228  0.0395  0.3410
  604POPI   C4B 9636   7.809   7.430   8.076 -0.0604  0.5859  0.1324
  605POPI    C1 9637  18.822   7.999   9.959 -0.0308 -0.0458  0.0834
  605POPI    C2 9638  18.719   8.110  10.330 -0.2073 -0.1208  0.0578
  605POPI    C3 9639  18.734   7.722  10.234  0.1058 -0.1120  0.0616
  605POPI   PO4 9640  18.659   8.045   9.733  0.1512  0.1699  0.0260
  605POPI   GL1 9641  18.290   8.045   9.500 -0.2201 -0.6197 -0.0641
  605POPI   GL2 9642  18.038   8.126   9.373 -0.0122  0.0857 -0.0379
  605POPI   C1A 9643  18.388   8.246   9.104  0.2890 -0.2973  0.0120
  605POPI   D2A 9644  18.280   8.258   8.693  0.2193 -0.1592  0.0562
  605POPI   C3A 9645  18.239   8.633   8.487 -0.0853 -0.4574 -0.1599
  605POPI   C4A 9646  18.523   8.994   8.256 -0.1554  0.4596  0.2387
  605POPI   C1B 9647  17.855   8.196   9.038  0.3645  0.2184 -0.1639
  605POPI   C2B 9648  17.812   8.362   8.617  0.1383 -0.0879 -0.2449
  605POPI   C3B 9649  17.911   8.363   8.163 -0.1471  0.0325 -0.1114
  605POPI   C4B 9650  18.300   8.389   7.999  0.2060 -0.2099  0.1467
  606POPI    C1 9651   7.344   2.066  10.316 -0.0732 -0.0431  0.0593
  606POPI    C2 9652   6.981   2.184  10.433 -0.0325  0.2171 -0.0704
  606POPI    C3 9653   7.282   2.176  10.696 -0.1232  0.0301  0.0300
  606POPI   PO4 9654   7.526   2.238  10.039 -0.2480 -0.5271  0.2754
  606POPI   GL1 9655   7.377   2.418   9.683 -0.0251  0.0138  0.0507
  606POPI   GL2 9656   7.481   2.748   9.627 -0.0935 -0.0542  0.1422
  606POPI   C1A 9657   7.281   2.493   9.200 -0.2408  0.0886 -0.0906
  606POPI   D2A 9658   7.340   2.362   8.858 -0.2831 -0.1552 -0.2874
  606POPI   C3A 9659   7.171   2.571   8.502 -0.0356  0.0783 -0.1854
  606POPI   C4A 9660   7.334   2.755   8.119  0.4895  0.2152  0.3224
  606POPI   C1B 9661   7.609   2.906   9.186 -0.0729 -0.0351 -0.0398
  606POPI   C2B 9662   7.664   2.824   8.712  0.0742  0.1341 -0.3844
  606POPI   C3B 9663   7.798   2.803   8.272  0.0189  0.0330  0.1988
  606POPI   C4B 9664   7.725   2.877   7.788  0.0112  0.0302  0.1758
  607DPPI    C1 9665  18.374  18.756  10.013 -0.0221 -0.0478 -0.3528
  607DPPI    C2 9666  18.048  18.934  10.161  0.1294 -0.0558  0.0016
  607DPPI    C3 9667  18.316  18.770  10.408  0.3433 -0.1571 -0.2910
  607DPPI   PO4 9668  18.332  18.445   9.866 -0.0076  0.2079 -0.1450
  607DPPI   GL1 9669  18.207  18.334   9.507  0.1718 -0.0020  0.3556
  607DPPI   GL2 9670  18.383  17.963   9.399 -0.0545  0.0962 -0.3710
  607DPPI   C1A 9671  17.990  18.302   9.034  0.2415 -0.1279  0.1827
  607DPPI   C2A 9672  17.941  18.227   8.514 -0.2381  0.1528  0.0950
  607DPPI   C3A 9673  17.861  18.261   8.233 -0.0261  0.0107  0.0335
  607DPPI   C4A 9674  17.765  18.531   7.880  0.2524  0.1253  0.0114
  607DPPI   C1B 9675  18.318  17.969   8.990 -0.2451  0.1224 -0.1139
  607DPPI   C2B 9676  18.142  17.669   8.636 -0.0562  0.2507  0.0812
  607DPPI   C3B 9677  17.834  17.611   8.375  0.1044 -0.1146 -0.2234
  607DPPI   C4B 9678  17.523  17.886   8.225  0.5694  0.4862  0.2916
  608DPPI    C1 9679   0.979   9.123  10.312  0.0685  0.1815  0.1198
  608DPPI    C2 9680   0.661   9.241  10.524  0.0367  0.2376  0.0413
  608DPPI    C3 9681   1.005   9.443  10.551  0.0812  0.1461  0.1661
  608DPPI   PO4 9682   0.899   9.072   9.987 -0.3537  0.0813  0.0197
  608DPPI   GL1 9683   0.833   8.896   9.534  0.0614  0.0340  0.0136
  608DPPI   GL2 9684   0.521   8.853   9.412  0.0519  0.0113  0.0325
  608DPPI   C1A 9685   1.226   8.784   9.236 -0.1868 -0.0219  0.0174
  608DPPI   C2A 9686   1.696   8.813   9.038  0.1790 -0.1991 -0.5788
  608DPPI   C3A 9687   2.043   8.998   8.832  0.0747  0.0284  0.0475
  608DPPI   C4A 9688   2.061   9.119   8.291 -0.3154 -0.1031  0.1806
  608DPPI   C1B 9689   0.664   9.105   9.055  0.4435  0.3308 -0.2555
  608DPPI   C2B 9690   0.953   9.303   8.959 -0.5724 -0.2369 -0.3359
  608DPPI   C3B 9691   1.055   9.480   8.542 -0.1936 -0.2311  0.1120
  608DPPI   C4B 9692   1.091   9.430   8.159  0.0218  0.2239 -0.1520
  609DPPI    C1 9693   7.553   1.534  10.252  0.1763 -0.1456 -0.1972
  609DPPI    C2 9694   7.604   1.154  10.365 -0.0988 -0.1452 -0.0619
  609DPPI    C3 9695   7.665   1.451  10.626 -0.0312 -0.1037 -0.1242
  609DPPI   PO4 9696   7.389   1.556  10.113  0.0027  0.2282 -0.0927
  609DPPI   GL1 9697   7.267   1.461   9.722  0.0069  0.1376  0.0623
  609DPPI   GL2 9698   6.916   1.443   9.632 -0.0523 -0.1586  0.1376
  609DPPI   C1A 9699   7.374   1.454   9.331 -0.3982  0.2396 -0.0230
  609DPPI   C2A 9700   7.463   1.396   8.882  0.1322  0.2388 -0.1817
  609DPPI   C3A 9701   7.454   1.130   8.551  0.2331 -0.0505 -0.0761
  609DPPI   C4A 9702   7.248   1.177   8.088 -0.0194  0.2082 -0.1254
  609DPPI   C1B 9703   6.753   1.658   9.333 -0.0170  0.0521 -0.3543
  609DPPI   C2B 9704   6.682   1.663   8.818  0.0875  0.0982  0.0598
  609DPPI   C3B 9705   6.533   1.816   8.435  0.3436  0.0868  0.1867
  609DPPI   C4B 9706   6.333   2.006   8.070 -0.3060 -0.0205 -0.1410
  610DPPI    C1 9707  14.505   2.707   9.839 -0.0767  0.1093  0.0323
  610DPPI    C2 9708  14.411   2.577  10.206 -0.2187  0.0971 -0.0078
  610DPPI    C3 9709  14.347   2.960  10.107 -0.3106  0.0676 -0.0638
  610DPPI   PO4 9710  14.478   2.436   9.685  0.3450  0.0397  0.0947
  610DPPI   GL1 9711  14.593   2.299   9.315  0.1721 -0.2237  0.1881
  610DPPI   GL2 9712  14.847   2.463   9.284  0.2402  0.1522  0.0140
  610DPPI   C1A 9713  14.392   2.141   8.959  0.0931 -0.2491  0.1264
  610DPPI   C2A 9714  14.333   1.988   8.571 -0.1572 -0.0774 -0.0002
  610DPPI   C3A 9715  14.156   1.904   8.194  0.0813  0.2510 -0.0041
  610DPPI   C4A 9716  14.131   1.903   7.787  0.0943  0.1473  0.1754
  610DPPI   C1B 9717  14.752   2.394   8.799 -0.0941 -0.0208 -0.0792
  610DPPI   C2B 9718  14.732   2.378   8.438 -0.0704  0.1069  0.0334
  610DPPI   C3B 9719  14.617   2.225   8.080 -0.0960 -0.1731 -0.1533
  610DPPI   C4B 9720  14.680   2.209   7.624  0.0787 -0.3125 -0.4346
  611DPPI    C1 9721  14.133   4.687   9.828 -0.0461  0.0528 -0.1245
  611DPPI    C2 9722  14.349   4.811  10.141 -0.1630 -0.2138  0.0659
  611DPPI    C3 9723  14.490   4.523   9.902 -0.0044  0.0974 -0.2246
  611DPPI   PO4 9724  14.062   4.908   9.752 -0.0918 -0.0017 -0.0720
  611DPPI   GL1 9725  14.160   5.150   9.387 -0.0364 -0.3261  0.1655
  611DPPI   GL2 9726  14.030   5.487   9.644 -0.1345  0.0387  0.1469
  611DPPI   C1A 9727  14.130   5.092   8.960 -0.0743 -0.5550 -0.0177
  611DPPI   C2A 9728  14.027   5.144   8.492 -0.0844 -0.0339 -0.1750
  611DPPI   C3A 9729  14.000   5.081   8.042 -0.0644  0.3077 -0.0710
  611DPPI   C4A 9730  13.826   5.323   7.762  0.1822 -0.3275 -0.0529
  611DPPI   C1B 9731  13.761   5.474   9.262  0.2709 -0.0144 -0.2376
  611DPPI   C2B 9732  13.682   5.732   8.918 -0.0028 -0.0150 -0.4894
  611DPPI   C3B 9733  13.803   5.672   8.509 -0.3681  0.0499 -0.0254
  611DPPI   C4B 9734  13.875   5.619   8.087 -0.2081  0.0286 -0.0422
  612DPPI    C1 9735  18.729  16.122   9.981 -0.1227  0.2776  0.1456
  612DPPI    C2 9736  19.079  15.932  10.009  0.0178  0.4968 -0.0822
  612DPPI    C3 9737  18.859  15.994  10.337  0.0269  0.0567  0.0134
  612DPPI   PO4 9738  18.673  16.051   9.753 -0.1152 -0.3479 -0.0379
  612DPPI   GL1 9739  18.945  16.177   9.446  0.5154  0.0295 -0.1980
  612DPPI   GL2 9740  18.636  16.057   9.259  0.0893  0.2367 -0.0075
  612DPPI   C1A 9741  19.084  16.485   9.278  0.2862  0.0804  0.3386
  612DPPI   C2A 9742  19.069  16.649   8.878 -0.2608  0.1019 -0.0202
  612DPPI   C3A 9743  19.033  16.509   8.532 -0.0527 -0.0179  0.1978
  612DPPI   C4A 9744  19.278  16.271   8.259 -0.3011  0.2413  0.0346
  612DPPI   C1B 9745  18.791  16.182   8.969 -0.4663  0.0914 -0.0078
  612DPPI   C2B 9746  18.676  16.178   8.527 -0.0230 -0.4624  0.0379
  612DPPI   C3B 9747  18.809  16.297   8.164  0.1621  0.1508 -0.2133
  612DPPI   C4B 9748  18.767  16.408   7.823  0.0739 -0.0786  0.3835
  613DPPI    C1 9749   1.850   5.629  10.635 -0.2267 -0.0075 -0.1900
  613DPPI    C2 9750   1.822   5.892  10.935 -0.0249 -0.0999 -0.0882
  613DPPI    C3 9751   1.652   5.532  10.969 -0.3276  0.0253 -0.2400
  613DPPI   PO4 9752   1.840   5.732  10.368 -0.1409 -0.0824 -0.0751
  613DPPI   GL1 9753   1.937   5.854   9.945  0.1524  0.0388  0.0860
  613DPPI   GL2 9754   2.116   5.722   9.711 -0.0050 -0.1575  0.2763
  613DPPI   C1A 9755   1.859   6.141   9.556 -0.1187  0.4107 -0.0667
  613DPPI   C2A 9756   1.700   5.968   9.279  0.2056 -0.0974 -0.2033
  613DPPI   C3A 9757   1.532   5.814   8.842  0.0888  0.1553 -0.3792
  613DPPI   C4A 9758   1.703   5.759   8.400 -0.0625 -0.0814 -0.0183
  613DPPI   C1B 9759   2.183   5.864   9.246 -0.0671 -0.0375  0.3700
  613DPPI   C2B 9760   2.040   5.805   8.810 -0.2065  0.0038  0.1766
  613DPPI   C3B 9761   2.367   5.733   8.429  0.2137 -0.0658  0.2171
  613DPPI   C4B 9762   2.657   5.376   8.262  0.1371 -0.0543 -0.1238
  614DPPI    C1 9763  10.853  12.116   9.918 -0.0082 -0.0347  0.2304
  614DPPI    C2 9764  11.040  12.335  10.196  0.0585 -0.2713  0.3752
  614DPPI    C3 9765  10.688  12.165  10.280 -0.1407  0.0253  0.1626
  614DPPI   PO4 9766  10.818  12.278   9.684 -0.0257 -0.0887  0.2135
  614DPPI   GL1 9767  11.055  12.513   9.513  0.2030  0.2919  0.2459
  614DPPI   GL2 9768  11.056  12.820   9.413  0.2145 -0.1095 -0.0739
  614DPPI   C1A 9769  10.975  12.445   9.098 -0.0400  0.0606  0.0782
  614DPPI   C2A 9770  10.880  12.596   8.632  0.0132  0.1666 -0.0425
  614DPPI   C3A 9771  10.764  12.520   8.143 -0.0225  0.0534  0.0679
  614DPPI   C4A 9772  10.568  12.632   7.797 -0.0226  0.1767 -0.0261
  614DPPI   C1B 9773  10.988  12.980   9.049  0.3049 -0.0449  0.0502
  614DPPI   C2B 9774  10.913  13.081   8.621  0.0668  0.0496  0.1491
  614DPPI   C3B 9775  10.784  13.097   8.166  0.0336 -0.1069  0.2678
  614DPPI   C4B 9776  10.562  13.157   7.863  0.0170  0.0883 -0.0809
  615DPPI    C1 9777   7.977  16.506   9.858  0.1089 -0.0277 -0.2122
  615DPPI    C2 9778   7.673  16.451  10.112  0.1391 -0.0841 -0.1881
  615DPPI    C3 9779   8.048  16.382  10.231  0.1570 -0.0675 -0.2346
  615DPPI   PO4 9780   7.846  16.734   9.733 -0.4117 -0.0263  0.1084
  615DPPI   GL1 9781   7.675  16.808   9.360  0.1146 -0.0186  0.0420
  615DPPI   GL2 9782   7.569  16.518   9.268  0.2472 -0.0087  0.1606
  615DPPI   C1A 9783   7.870  17.029   8.971 -0.2581 -0.2151  0.1598
  615DPPI   C2A 9784   7.865  16.873   8.626  0.2270  0.0292 -0.3307
  615DPPI   C3A 9785   7.721  16.530   8.419  0.0297  0.1046  0.1140
  615DPPI   C4A 9786   7.879  16.247   8.135  0.1527  0.2081  0.0663
  615DPPI   C1B 9787   7.511  16.293   8.900  0.0205 -0.0194 -0.0309
  615DPPI   C2B 9788   7.440  16.147   8.488 -0.3653  0.0947 -0.1900
  615DPPI   C3B 9789   7.487  15.919   8.036  0.0254 -0.2161 -0.5610
  615DPPI   C4B 9790   7.247  16.096   7.665  0.1510 -0.0377 -0.2502
  616PYPI    C1 9791  16.354   2.623  10.226 -0.1128  0.0332  0.2325
  616PYPI    C2 9792  16.750   2.666  10.195 -0.1063 -0.0994  0.1212
  616PYPI    C3 9793  16.551   2.853  10.487  0.0419 -0.0547  0.1946
  616PYPI   PO4 9794  16.300   2.592   9.954 -0.2663 -0.0810 -0.0092
  616PYPI   GL1 9795  16.492   2.853   9.623  0.1211 -0.0540 -0.0429
  616PYPI   GL2 9796  16.213   2.935   9.505  0.1840 -0.0189 -0.0400
  616PYPI   C1A 9797  16.662   2.533   9.340 -0.1497 -0.0542 -0.1372
  616PYPI   C2A 9798  16.856   2.591   9.049 -0.0285 -0.3507 -0.0293
  616PYPI   D3A 9799  16.932   2.540   8.542  0.1506 -0.0425 -0.0116
  616PYPI   C4A 9800  17.066   2.938   8.241  0.0114  0.2030 -0.0134
  616PYPI   C1B 9801  16.164   2.845   9.078 -0.1137  0.1447 -0.0083
  616PYPI   C2B 9802  16.036   2.873   8.649  0.0420 -0.1128  0.1341
  616PYPI   C3B 9803  15.990   2.729   8.174  0.3653 -0.0265  0.1335
  616PYPI   C4B 9804  15.836   2.706   7.718  0.0291 -0.1743  0.1142
  617PYPI    C1 9805  11.364  14.253   9.728 -0.0581 -0.0999  0.0967
  617PYPI    C2 9806  11.548  14.233  10.083 -0.0683 -0.2288  0.0950
  617PYPI    C3 9807  11.208  14.031  10.022 -0.1492 -0.0836  0.0611
  617PYPI   PO4 9808  11.506  14.354   9.517  0.1586 -0.2499  0.2867
  617PYPI   GL1 9809  11.235  14.343   9.142 -0.1384 -0.3005  0.0682
  617PYPI   GL2 9810  11.032  14.604   9.139 -0.1864 -0.1341 -0.3283
  617PYPI   C1A 9811  11.424  14.326   8.829 -0.3327 -0.3889  0.0122
  617PYPI   C2A 9812  11.617  14.437   8.411  0.1750 -0.3799  0.0125
  617PYPI   D3A 9813  11.437  14.502   7.902  0.2792  0.1619  0.0417
  617PYPI   C4A 9814  11.664  14.252   7.586 -0.4140  0.0362  0.1506
  617PYPI   C1B 9815  10.870  14.570   8.770  0.1149 -0.0096 -0.1135
  617PYPI   C2B 9816  10.742  14.423   8.447  0.2048  0.1186 -0.0515
  617PYPI   C3B 9817  10.857  14.404   8.003 -0.3613 -0.1042 -0.2233
  617PYPI   C4B 9818  11.101  14.392   7.612  0.1636  0.3050  0.2909
  618PYPI    C1 9819   5.631  15.503  10.143  0.0432 -0.1726 -0.1929
  618PYPI    C2 9820   5.890  15.201  10.101  0.3590  0.0599  0.0339
  618PYPI    C3 9821   5.956  15.485  10.376 -0.1805  0.0840  0.1498
  618PYPI   PO4 9822   5.559  15.551   9.939 -0.0142 -0.1432 -0.0457
  618PYPI   GL1 9823   5.457  15.778   9.580  0.2087 -0.2966 -0.0535
  618PYPI   GL2 9824   5.273  16.030   9.514  0.2315  0.0751  0.1264
  618PYPI   C1A 9825   5.300  15.622   9.162  0.0372 -0.1216 -0.1861
  618PYPI   C2A 9826   5.130  15.856   8.715 -0.0113  0.1201  0.0237
  618PYPI   D3A 9827   5.068  16.248   8.539  0.3792  0.1737  0.0657
  618PYPI   C4A 9828   5.324  16.568   8.689  0.0776 -0.1686  0.1689
  618PYPI   C1B 9829   5.422  16.120   9.037 -0.1090  0.0278 -0.2653
  618PYPI   C2B 9830   5.535  16.093   8.593 -0.4207  0.0714  0.0586
  618PYPI   C3B 9831   5.398  16.167   8.171 -0.1462 -0.0335 -0.3037
  618PYPI   C4B 9832   5.312  16.490   7.929 -0.1328 -0.3819  0.2684
  619PYPI    C1 9833  10.518  13.454   9.776 -0.1756  0.2497 -0.1785
  619PYPI    C2 9834  10.192  13.287   9.616 -0.1753  0.0620  0.0121
  619PYPI    C3 9835  10.193  13.393  10.001 -0.0674  0.2164 -0.0300
  619PYPI   PO4 9836  10.547  13.646   9.603  0.2404  0.1623  0.1297
  619PYPI   GL1 9837  10.747  13.729   9.219 -0.1483  0.0706 -0.2731
  619PYPI   GL2 9838  10.795  14.028   9.165 -0.0349 -0.1138 -0.1280
  619PYPI   C1A 9839  10.585  13.661   8.880  0.3702 -0.2166 -0.0540
  619PYPI   C2A 9840  10.485  13.500   8.530  0.3512 -0.0144  0.1126
  619PYPI   D3A 9841  10.309  13.345   8.245  0.2795 -0.0597 -0.0999
  619PYPI   C4A 9842  10.221  13.595   7.967 -0.0985 -0.0525 -0.1245
  619PYPI   C1B 9843  10.967  14.003   8.692  0.3140 -0.0778  0.0135
  619PYPI   C2B 9844  10.914  13.833   8.313 -0.2141 -0.1373 -0.0850
  619PYPI   C3B 9845  10.699  13.618   8.072  0.2045  0.0802 -0.0554
  619PYPI   C4B 9846  10.768  13.616   7.699  0.0865 -0.0629 -0.1400
  620PYPI    C1 9847   0.250  17.525   9.820 -0.0537  0.1340  0.0469
  620PYPI    C2 9848  -0.023  17.630  10.094 -0.3061 -0.0593 -0.1265
  620PYPI    C3 9849   0.260  17.363  10.186 -0.2122  0.0932  0.0338
  620PYPI   PO4 9850   0.375  17.692   9.737 -0.3104  0.0668 -0.0027
  620PYPI   GL1 9851   0.400  18.025   9.493  0.3912 -0.2604 -0.2060
  620PYPI   GL2 9852   0.208  18.260   9.521 -0.0672 -0.2075  0.0040
  620PYPI   C1A 9853   0.287  17.914   9.038  0.2133  0.0062 -0.3057
  620PYPI   C2A 9854   0.154  17.782   8.693 -0.1074 -0.1681 -0.0425
  620PYPI   D3A 9855   0.214  17.493   8.334  0.2717 -0.0227 -0.1375
  620PYPI   C4A 9856   0.511  17.674   8.078 -0.1651  0.0593 -0.0182
  620PYPI   C1B 9857   0.444  18.382   8.964  0.2317 -0.1638 -0.3073
  620PYPI   C2B 9858   0.410  18.533   8.476 -0.1934  0.2056  0.1732
  620PYPI   C3B 9859   0.489  18.630   8.076 -0.1480  0.0014 -0.0180
  620PYPI   C4B 9860   0.504  18.905   7.726 -0.0600 -0.0419  0.4499
  621PYPI    C1 9861   3.264  11.962  10.397  0.0981  0.1636 -0.0396
  621PYPI    C2 9862   3.427  11.713  10.664 -0.0504  0.0820 -0.0242
  621PYPI    C3 9863   3.553  12.092  10.641 -0.0595  0.0991  0.1848
  621PYPI   PO4 9864   3.285  11.776  10.223  0.0413  0.0012  0.0937
  621PYPI   GL1 9865   3.213  11.818   9.817  0.2916 -0.0853  0.4279
  621PYPI   GL2 9866   3.572  11.866   9.630  0.0038  0.0929 -0.0783
  621PYPI   C1A 9867   3.117  11.847   9.412 -0.0176  0.1899  0.3850
  621PYPI   C2A 9868   3.206  11.802   8.974 -0.0811 -0.1807  0.1100
  621PYPI   D3A 9869   3.107  11.890   8.615  0.1003  0.1327 -0.3002
  621PYPI   C4A 9870   3.009  11.577   8.250 -0.4296  0.1588 -0.2938
  621PYPI   C1B 9871   3.673  11.960   9.168  0.0220  0.2100  0.1786
  621PYPI   C2B 9872   3.592  12.010   8.684  0.0227 -0.0585  0.4293
  621PYPI   C3B 9873   3.535  11.891   8.283  0.0301 -0.2798  0.0658
  621PYPI   C4B 9874   3.470  12.071   7.811  0.2281 -0.0014  0.1601
  622ERGO   ROH 9875   6.587  14.918   9.072 -0.0754  0.2989 -0.1268
  622ERGO    R1 9876   6.534  14.897   8.795 -0.1270  0.1260 -0.1042
  622ERGO    R2 9877   6.727  14.942   8.602 -0.1671  0.0214 -0.1681
  622ERGO    R3 9878   6.654  14.694   8.517 -0.1676 -0.0363 -0.0048
  622ERGO    R4 9879   6.768  14.824   8.280 -0.2265 -0.1707 -0.1071
  622ERGO    R5 9880   6.572  14.730   8.295 -0.2169 -0.1760 -0.0099
  622ERGO    C1 9881   6.723  14.523   8.013 -0.2616 -0.3366  0.0815
  622ERGO    C2 9882   6.775  14.437   7.729 -0.1212  0.2340 -0.1720
  623ERGO   ROH 9883   3.316  13.913   9.544 -0.3650  0.2167 -0.0840
  623ERGO    R1 9884   3.362  13.804   9.287 -0.2670  0.0128  0.0178
  623ERGO    R2 9885   3.156  13.733   9.116 -0.2022 -0.0303 -0.0439
  623ERGO    R3 9886   3.288  13.897   8.943 -0.0446 -0.2051 -0.0919
  623ERGO    R4 9887   3.086  13.762   8.779 -0.0377 -0.2097 -0.0952
  623ERGO    R5 9888   3.300  13.770   8.740 -0.0157 -0.3409 -0.0066
  623ERGO    C1 9889   3.168  13.931   8.420  0.2060 -0.4783 -0.1700
  623ERGO    C2 9890   3.087  13.835   8.202 -0.4873  0.0955  0.2461
  624ERGO   ROH 9891   0.335  18.705   9.406  0.1301 -0.5108  0.1388
  624ERGO    R1 9892   0.397  18.870   9.185 -0.2822 -0.3292  0.1473
  624ERGO    R2 9893   0.654  18.897   9.086 -0.3036  0.3972  0.1973
  624ERGO    R3 9894   0.536  18.825   8.852 -0.0679  0.0420  0.1854
  624ERGO    R4 9895   0.771  18.982   8.772 -0.2591  0.2912  0.1858
  624ERGO    R5 9896   0.565  19.016   8.710 -0.2600 -0.0476  0.0394
  624ERGO    C1 9897   0.729  18.964   8.370 -0.0119 -0.1041  0.1681
  624ERGO    C2 9898   0.733  19.082   8.136  0.0576  0.2860  0.3435
  625ERGO   ROH 9899   8.855   0.228   9.474  0.0632  0.0446 -0.0474
  625ERGO    R1 9900   8.927   0.169   9.207 -0.0287  0.0662 -0.0773
  625ERGO    R2 9901   9.169   0.053   9.140  0.0040  0.1912 -0.1811
  625ERGO    R3 9902   9.010  -0.128   9.014  0.0422  0.0979 -0.0955
  625ERGO    R4 9903   9.240  -0.093   8.835  0.0715  0.0020 -0.0765
  625ERGO    R5 9904   9.029  -0.073   8.782  0.0799 -0.0487 -0.1283
  625ERGO    C1 9905   9.132  -0.348   8.539  0.1467 -0.1960  0.0649
  625ERGO    C2 9906   9.138  -0.570   8.395  0.0488  0.0942 -0.0320
  626ERGO   ROH 9907  10.557  10.823   9.490 -0.2494 -0.0190 -0.0252
  626ERGO    R1 9908  10.576  10.912   9.222  0.0111  0.0511  0.0130
  626ERGO    R2 9909  10.797  10.864   9.065  0.0238 -0.2151  0.1070
  626ERGO    R3 9910  10.614  10.758   8.895 -0.0512  0.1087 -0.0216
  626ERGO    R4 9911  10.870  10.733   8.753  0.0060 -0.2956  0.1364
  626ERGO    R5 9912  10.688  10.827   8.677  0.2017  0.0186  0.0322
  626ERGO    C1 9913  10.740  10.558   8.412 -0.0747 -0.0385  0.0328
  626ERGO    C2 9914  10.736  10.508   8.043  0.1241 -0.2849  0.2221
  627ERGO   ROH 9915   1.725   2.623   9.402  0.1950  0.1978  0.0098
  627ERGO    R1 9916   1.730   2.749   9.149  0.0248  0.1819 -0.0024
  627ERGO    R2 9917   1.694   2.609   8.913  0.1353  0.1213  0.0139
  627ERGO    R3 9918   1.498   2.794   8.872 -0.0669 -0.0862  0.0286
  627ERGO    R4 9919   1.525   2.655   8.614  0.1967  0.0717 -0.0284
  627ERGO    R5 9920   1.535   2.870   8.648 -0.0690  0.0682  0.0817
  627ERGO    C1 9921   1.243   2.855   8.402  0.0426 -0.1520 -0.0394
  627ERGO    C2 9922   0.976   3.038   8.313  0.0649  0.0235  0.1644
  628ERGO   ROH 9923   5.928   9.119   9.597 -0.0461  0.2981  0.0437
  628ERGO    R1 9924   5.952   9.239   9.342  0.0483  0.2492  0.0288
  628ERGO    R2 9925   6.058   9.107   9.124  0.0926  0.1926  0.0823
  628ERGO    R3 9926   5.823   9.177   9.008  0.1366  0.2092  0.0028
  628ERGO    R4 9927   5.986   9.075   8.787  0.1924  0.1886  0.0607
  628ERGO    R5 9928   5.886   9.268   8.795  0.2087  0.1950  0.0205
  628ERGO    C1 9929   5.723   9.122   8.483  0.2918  0.2017 -0.0264
  628ERGO    C2 9930   5.732   8.913   8.142  0.0782 -0.2625 -0.1992
  629ERGO   ROH 9931  14.074   2.646   9.428 -0.2461 -0.1039  0.0337
  629ERGO    R1 9932  14.105   2.507   9.184 -0.0882 -0.0474  0.0213
  629ERGO    R2 9933  13.890   2.435   9.025  0.0027 -0.1899 -0.0327
  629ERGO    R3 9934  14.029   2.569   8.833 -0.0602 -0.0611  0.0121
  629ERGO    R4 9935  13.888   2.356   8.688 -0.0193 -0.0423 -0.0671
  629ERGO    R5 9936  14.102   2.398   8.682 -0.0295  0.0246 -0.0742
  629ERGO    C1 9937  14.017   2.436   8.313 -0.0912  0.1647 -0.0452
  629ERGO    C2 9938  14.013   2.407   8.018 -0.0099  0.1753 -0.2286
  630ERGO   ROH 9939   1.745  11.295   9.395 -0.1656 -0.0446  0.0264
  630ERGO    R1 9940   1.735  11.403   9.133 -0.1283 -0.0468  0.0256
  630ERGO    R2 9941   1.681  11.249   8.911 -0.1859 -0.0289  0.0345
  630ERGO    R3 9942   1.487  11.435   8.869 -0.1180  0.0421  0.0242
  630ERGO    R4 9943   1.525  11.307   8.608 -0.1415  0.0249  0.0205
  630ERGO    R5 9944   1.533  11.521   8.650 -0.0675  0.0271  0.0244
  630ERGO    C1 9945   1.252  11.515   8.392 -0.0519  0.1231  0.0025
  630ERGO    C2 9946   1.068  11.437   8.030  0.1013 -0.1938  0.0613
  631ERGO   ROH 9947   7.083  17.093   5.838  0.1022 -0.0604  0.0832
  631ERGO    R1 9948   6.875  17.068   6.028 -0.0118  0.0424 -0.0269
  631ERGO    R2 9949   6.923  17.029   6.298 -0.1727 -0.2895 -0.0459
  631ERGO    R3 9950   6.765  17.248   6.325  0.1175 -0.0914  0.1063
  631ERGO    R4 9951   6.755  17.115   6.587 -0.0462 -0.2738  0.0239
  631ERGO    R5 9952   6.584  17.173   6.463  0.0189  0.0420  0.0607
  631ERGO    C1 9953   6.508  17.371   6.780  0.2998 -0.0784  0.2074
  631ERGO    C2 9954   6.409  17.474   7.095  0.2902 -0.0873  0.0989
  632ERGO   ROH 9955  15.172   2.951   9.236 -0.0636  0.2542 -0.2054
  632ERGO    R1 9956  15.049   2.876   8.992 -0.0295 -0.0868 -0.1256
  632ERGO    R2 9957  14.937   3.061   8.819 -0.4095 -0.3574 -0.1942
  632ERGO    R3 9958  15.102   2.943   8.638 -0.2627 -0.1801 -0.1777
  632ERGO    R4 9959  14.849   2.978   8.496 -0.1154  0.0104 -0.3761
  632ERGO    R5 9960  14.960   2.792   8.518 -0.1689 -0.0261 -0.4806
  632ERGO    C1 9961  14.951   2.818   8.137  0.1935  0.3911 -0.4667
  632ERGO    C2 9962  14.881   2.624   7.901 -0.2522 -0.2855 -0.4428
  633ERGO   ROH 9963   7.045  12.654   9.800  0.1158 -0.2580 -0.1110
  633ERGO    R1 9964   7.062  12.607   9.521 -0.0870 -0.1582 -0.1417
  633ERGO    R2 9965   6.840  12.548   9.367 -0.2143 -0.0096 -0.0198
  633ERGO    R3 9966   6.927  12.759   9.219 -0.2269  0.0128  0.0044
  633ERGO    R4 9967   6.765  12.600   9.033 -0.1021 -0.0473 -0.0517
  633ERGO    R5 9968   6.970  12.666   9.002 -0.1123  0.0189  0.0247
  633ERGO    C1 9969   6.803  12.828   8.700 -0.0486 -0.0482 -0.0476
  633ERGO    C2 9970   6.605  12.790   8.453  0.2136 -0.0536  0.0110
  634ERGO   ROH 9971  12.481   8.117   9.171 -0.2679  0.1764  0.2006
  634ERGO    R1 9972  12.478   8.119   8.888 -0.0173  0.1458  0.1959
  634ERGO    R2 9973  12.320   7.949   8.740  0.1356  0.1104  0.0726
  634ERGO    R3 9974  12.233   8.180   8.627  0.2055  0.0871 -0.0310
  634ERGO    R4 9975  12.333   8.021   8.402 -0.0223 -0.1282  0.0126
  634ERGO    R5 9976  12.391   8.225   8.453  0.1307 -0.1250 -0.1588
  634ERGO    C1 9977  12.259   8.280   8.099 -0.0487 -0.2889 -0.1195
  634ERGO    C2 9978  12.348   8.274   7.753  0.0319  0.0884  0.1802
  635ERGO   ROH 9979   4.871   2.775   9.255 -0.0122 -0.0324  0.1414
  635ERGO    R1 9980   4.965   2.759   8.989 -0.0617 -0.0740  0.1260
  635ERGO    R2 9981   4.941   2.530   8.836 -0.0160 -0.1266  0.1927
  635ERGO    R3 9982   4.820   2.698   8.660 -0.1108 -0.2141  0.1740
  635ERGO    R4 9983   4.906   2.469   8.498  0.0932 -0.1390  0.1832
  635ERGO    R5 9984   4.951   2.679   8.460 -0.0608 -0.1056  0.1988
  635ERGO    C1 9985   4.771   2.591   8.136  0.0676 -0.2284  0.1601
  635ERGO    C2 9986   4.580   2.359   7.882 -0.0255  0.0379 -0.0230
  636ERGO   ROH 9987  12.563  10.346   9.249 -0.1164 -0.1226  0.0398
  636ERGO    R1 9988  12.513  10.525   9.035  0.2651  0.1018  0.1292
  636ERGO    R2 9989  12.714  10.623   8.874  0.4682 -0.4367  0.0318
  636ERGO    R3 9990  12.558  10.524   8.674  0.0307  0.0713  0.0982
  636ERGO    R4 9991  12.762  10.685   8.537  0.3245 -0.3515  0.0256
  636ERGO    R5 9992  12.546  10.703   8.515  0.3353  0.2096  0.2226
  636ERGO    C1 9993  12.644  10.627   8.154 -0.1699  0.1750  0.0844
  636ERGO    C2 9994  12.622  10.554   7.826 -0.2911 -0.2206 -0.2478
  637ERGO   ROH 9995  13.275   1.937   9.597 -0.0272  0.1083 -0.0176
  637ERGO    R1 9996  13.101   1.926   9.374  0.0893  0.0660 -0.1065
  637ERGO    R2 9997  12.905   2.115   9.328 -0.1217 -0.1369 -0.0464
  637ERGO    R3 9998  13.027   2.135   9.086 -0.0332  0.2000  0.0191
  637ERGO    R4 9999  12.742   2.174   9.029 -0.0687 -0.1186 -0.0725
  637ERGO    R510000  12.874   2.029   8.934  0.1619  0.1156 -0.1272
  637ERGO    C110001  12.761   2.226   8.628  0.0453  0.2083 -0.0260
  637ERGO    C210002  12.627   2.105   8.339  0.0252  0.6054 -0.0007
  638ERGO   ROH10003   3.454   2.996   9.433 -0.0555  0.2948  0.0276
  638ERGO    R110004   3.285   3.060   9.215 -0.0611  0.0756 -0.0375
  638ERGO    R210005   3.349   3.255   9.029 -0.1976  0.0961 -0.0762
  638ERGO    R310006   3.308   3.052   8.852  0.0506  0.0028 -0.0275
  638ERGO    R410007   3.257   3.296   8.698 -0.2409 -0.1000 -0.0878
  638ERGO    R510008   3.123   3.126   8.719 -0.0338 -0.2557 -0.0512
  638ERGO    C110009   3.166   3.130   8.340 -0.0331 -0.3018 -0.0487
  638ERGO    C210010   3.151   3.234   7.918  0.1285  0.1512  0.1925
  639ERGO   ROH10011   5.237   3.779   9.459 -0.3679  0.1851 -0.0209
  639ERGO    R110012   5.250   3.699   9.188 -0.2907  0.0460  0.0236
  639ERGO    R210013   5.024   3.659   9.034 -0.2422  0.3599 -0.1303
  639ERGO    R310014   5.146   3.835   8.866  0.1861  0.0856 -0.1220
  639ERGO    R410015   4.994   3.657   8.689 -0.1636  0.3777 -0.1380
  639ERGO    R510016   5.207   3.703   8.676 -0.0468 -0.0794 -0.0899
  639ERGO    C110017   5.091   3.820   8.332  0.2843  0.1306 -0.1348
  639ERGO    C210018   5.108   4.026   7.989  0.0847 -0.1881  0.1400
  640ERGO   ROH10019  11.653   2.795   9.378 -0.2020 -0.0758  0.0826
  640ERGO    R110020  11.735   2.831   9.109 -0.1640  0.0435  0.1098
  640ERGO    R210021  11.896   2.649   8.976 -0.0844  0.1384  0.0738
  640ERGO    R310022  11.694   2.655   8.794 -0.0531  0.1413  0.0399
  640ERGO    R410023  11.938   2.687   8.635 -0.0100 -0.0926  0.0558
  640ERGO    R510024  11.764   2.817   8.633  0.0636  0.0048 -0.0496
  640ERGO    C110025  11.773   2.714   8.266  0.0628 -0.2244  0.0133
  640ERGO    C210026  11.772   2.740   7.956  0.0004 -0.3609 -0.1490
  641ERGO   ROH10027  13.642   9.872   9.271 -0.0648  0.1705  0.0548
  641ERGO    R110028  13.551   9.770   9.023  0.1207  0.0965  0.0148
  641ERGO    R210029  13.334   9.877   8.889 -0.0711 -0.2331  0.0460
  641ERGO    R310030  13.511   9.897   8.684 -0.0900  0.1553  0.0610
  641ERGO    R410031  13.249   9.927   8.558 -0.1353 -0.2393  0.0619
  641ERGO    R510032  13.404   9.785   8.501  0.1110  0.0476  0.0093
  641ERGO    C110033  13.366   9.974   8.172 -0.1905  0.1218  0.0852
  641ERGO    C210034  13.341  10.034   7.840  0.2900 -0.0543  0.0356
  642ERGO   ROH10035  14.331  18.288   9.384  0.1169  0.3498  0.0874
  642ERGO    R110036  14.295  18.403   9.128  0.0454  0.1260 -0.0042
  642ERGO    R210037  14.493  18.545   8.999 -0.0275  0.1024 -0.1364
  642ERGO    R310038  14.445  18.368   8.798  0.0281 -0.0795  0.0077
  642ERGO    R410039  14.558  18.602   8.664 -0.3575 -0.0104 -0.2241
  642ERGO    R510040  14.370  18.503   8.616 -0.2828 -0.2721 -0.0188
  642ERGO    C110041  14.551  18.469   8.281 -0.4976 -0.2469 -0.1400
  642ERGO    C210042  14.462  18.520   7.968 -0.0388  0.1681  0.2656
  643ERGO   ROH10043  10.125   5.577   9.397  0.2701 -0.4139  0.0801
  643ERGO    R110044  10.202   5.479   9.143 -0.0780 -0.4520 -0.0146
  643ERGO    R210045  10.019   5.385   8.958 -0.4159  0.2144 -0.0445
  643ERGO    R310046  10.138   5.567   8.796  0.0794  0.0040  0.0644
  643ERGO    R410047  10.030   5.366   8.613 -0.2320  0.2509 -0.0420
  643ERGO    R510048  10.235   5.437   8.620 -0.0745 -0.1771  0.1062
  643ERGO    C110049  10.149   5.527   8.260  0.3402  0.0746  0.0619
  643ERGO    C210050  10.090   5.421   7.872  0.2169  0.2566  0.1089
  644ERGO   ROH10051   8.058  13.624   9.321  0.1801  0.1014  0.1075
  644ERGO    R110052   7.928  13.766   9.114  0.0620  0.0931  0.1759
  644ERGO    R210053   7.994  14.027   9.049  0.1286  0.0376  0.0328
  644ERGO    R310054   8.025  13.923   8.800 -0.1455 -0.0563  0.0328
  644ERGO    R410055   7.982  14.210   8.756  0.3464  0.0324  0.0180
  644ERGO    R510056   7.871  14.046   8.665  0.0152  0.2087  0.0768
  644ERGO    C110057   8.004  14.219   8.352  0.2157 -0.0587  0.0094
  644ERGO    C210058   8.220  14.224   8.041  0.2460  0.1987 -0.0358
  645ERGO   ROH10059   4.171   9.354   9.702  0.0943 -0.0105  0.0008
  645ERGO    R110060   3.997   9.410   9.486  0.0964 -0.1420 -0.0368
  645ERGO    R210061   4.027   9.633   9.325 -0.1074 -0.0532  0.0418
  645ERGO    R310062   4.028   9.449   9.125  0.1697  0.0060 -0.0147
  645ERGO    R410063   3.927   9.694   9.000 -0.1142 -0.0842  0.0385
  645ERGO    R510064   3.831   9.499   8.998  0.1338 -0.2063 -0.0423
  645ERGO    C110065   3.870   9.557   8.623  0.1420 -0.0468 -0.0165
  645ERGO    C210066   3.814   9.527   8.241 -0.2486  0.4778  0.0414
  646ERGO   ROH10067   0.388  15.973   9.620 -0.0180 -0.0949  0.1212
  646ERGO    R110068   0.479  16.006   9.354  0.1450 -0.0120  0.1859
  646ERGO    R210069   0.307  16.050   9.142  0.2478 -0.2635  0.0475
  646ERGO    R310070   0.465  16.267   9.100  0.0006 -0.0603  0.1426
  646ERGO    R410071   0.355  16.203   8.836  0.5436 -0.4623 -0.0105
  646ERGO    R510072   0.565  16.227   8.886  0.4342 -0.1053  0.3420
  646ERGO    C110073   0.531  16.497   8.619  0.4838 -0.3877  0.0449
  646ERGO    C210074   0.667  16.680   8.464  0.3828  0.0000 -0.1426
  647ERGO   ROH10075   9.240   2.538   9.355  0.0440 -0.1238  0.0844
  647ERGO    R110076   9.414   2.564   9.133  0.0502 -0.0586  0.0963
  647ERGO    R210077   9.407   2.391   8.917  0.0558  0.0038  0.0433
  647ERGO    R310078   9.379   2.621   8.775  0.0586  0.0468  0.1126
  647ERGO    R410079   9.480   2.425   8.581  0.0501  0.1062  0.0525
  647ERGO    R510080   9.566   2.621   8.625  0.0541  0.0896  0.1093
  647ERGO    C110081   9.497   2.661   8.252  0.0494  0.2062  0.1228
  647ERGO    C210082   9.492   2.723   7.978  0.0993 -0.3378  0.0348
  648ERGO   ROH10083  15.437   2.000   9.262 -0.0583 -0.0102 -0.0473
  648ERGO    R110084  15.540   1.983   8.999 -0.1492  0.0842 -0.0904
  648ERGO    R210085  15.612   1.743   8.883  0.0295  0.1458 -0.1187
  648ERGO    R310086  15.442   1.824   8.687 -0.1313 -0.0116 -0.0460
  648ERGO    R410087  15.652   1.679   8.545  0.0215  0.3192 -0.1532
  648ERGO    R510088  15.584   1.881   8.503 -0.2581  0.2424 -0.0655
  648ERGO    C110089  15.516   1.718   8.166 -0.1342  0.2724 -0.1049
  648ERGO    C210090  15.483   1.590   7.917  0.1339  0.1748  0.2100
  649ERGO   ROH10091  14.875  14.002   9.455  0.1270  0.2670 -0.0036
  649ERGO    R110092  14.818  13.850   9.223  0.1199  0.0464  0.1387
  649ERGO    R210093  14.840  13.954   8.968 -0.1318 -0.1134  0.0455
  649ERGO    R310094  15.000  13.738   8.929  0.0423  0.0024  0.1075
  649ERGO    R410095  14.924  13.826   8.658  0.0437 -0.0835  0.0803
  649ERGO    R510096  14.901  13.625   8.741  0.1749 -0.0925  0.0944
  649ERGO    C110097  15.123  13.548   8.441  0.3095  0.0426  0.1587
  649ERGO    C210098  15.277  13.396   8.150  0.1355  0.2997 -0.2861
  650ERGO   ROH10099  10.759  17.374   9.137 -0.2564  0.0086 -0.0164
  650ERGO    R110100  10.880  17.288   8.896 -0.1694 -0.0067  0.0324
  650ERGO    R210101  10.761  17.106   8.726 -0.1208  0.0040 -0.0134
  650ERGO    R310102  10.802  17.301   8.541 -0.0269 -0.0026  0.0002
  650ERGO    R410103  10.705  17.072   8.387  0.0787 -0.0196 -0.0451
  650ERGO    R510104  10.887  17.185   8.350  0.0933 -0.0078  0.0552
  650ERGO    C110105  10.710  17.236   8.016  0.2828 -0.0396 -0.0508
  650ERGO    C210106  10.640  17.241   7.595 -0.0196  0.2582 -0.1891
  651ERGO   ROH10107  11.056   3.695   9.526  0.1048  0.0611 -0.1056
  651ERGO    R110108  10.902   3.728   9.291  0.0746 -0.1680 -0.1212
  651ERGO    R210109  10.953   3.928   9.107 -0.1993 -0.0917 -0.1224
  651ERGO    R310110  10.963   3.720   8.933  0.1232 -0.0868 -0.1139
  651ERGO    R410111  10.974   3.957   8.763  0.0836 -0.0880 -0.1067
  651ERGO    R510112  10.834   3.792   8.745  0.2337 -0.1982 -0.2305
  651ERGO    C110113  10.996   3.779   8.400  0.5512 -0.0813 -0.0895
  651ERGO    C210114  11.081   3.831   8.153  0.0946 -0.2248  0.0698
  652ERGO   ROH10115   8.474  10.333   7.731  0.0319 -0.0759  0.0781
  652ERGO    R110116   8.312  10.225   7.936 -0.1256  0.0074 -0.0010
  652ERGO    R210117   8.407  10.041   8.120 -0.3405 -0.1268 -0.0239
  652ERGO    R310118   8.312  10.222   8.300 -0.2388 -0.0958 -0.0001
  652ERGO    R410119   8.376   9.984   8.459 -0.1771 -0.0866 -0.0010
  652ERGO    R510120   8.185  10.090   8.455 -0.1744 -0.0708  0.0783
  652ERGO    C110121   8.269  10.120   8.826  0.0135 -0.0341  0.0347
  652ERGO    C210122   8.242  10.103   9.240 -0.0882 -0.0795 -0.0051
  653ERGO   ROH10123   0.889  14.357   9.863  0.0707 -0.0514 -0.0416
  653ERGO    R110124   0.909  14.459   9.600  0.1355 -0.0680 -0.0419
  653ERGO    R210125   1.107  14.380   9.424  0.0508 -0.2352 -0.0538
  653ERGO    R310126   0.896  14.325   9.262 -0.0078 -0.0542 -0.0447
  653ERGO    R410127   1.101  14.430   9.082  0.1635 -0.4068 -0.0826
  653ERGO    R510128   0.896  14.501   9.100  0.2418 -0.1307 -0.1402
  653ERGO    C110129   0.900  14.406   8.731  0.1741 -0.3367 -0.0909
  653ERGO    C210130   0.810  14.455   8.402  0.0431 -0.1245  0.2495
  654PSPI    C110131   0.616   3.745   5.689 -0.1225 -0.2332 -0.0213
  654PSPI    C210132   0.771   3.621   5.341  0.0227  0.2193 -0.1249
  654PSPI    C310133   0.723   3.362   5.643  0.3873 -0.0665 -0.3039
  654PSPI   PO410134   0.349   3.844   5.693 -0.0121  0.0053 -0.1330
  654PSPI   GL110135  -0.029   3.848   6.024  0.1624  0.0395  0.5220
  654PSPI   GL210136  -0.305   3.570   6.077  0.0698  0.0284  0.0532
  654PSPI   C1A10137  -0.156   3.894   6.493 -0.1222 -0.0983  0.3840
  654PSPI   C2A10138  -0.534   3.854   6.721 -0.0869  0.0870 -0.0535
  654PSPI   C3A10139  -0.898   3.713   6.995  0.2498 -0.0076  0.3154
  654PSPI   C4A10140  -1.347   3.766   7.071  0.0596  0.0302  0.5011
  654PSPI   C1B10141  -0.680   3.456   6.366  0.2532  0.2107  0.0400
  654PSPI   C2B10142  -0.960   3.353   6.653  0.0496 -0.0763  0.1525
  654PSPI   C3B10143  -1.070   3.254   7.034 -0.0926 -0.0661 -0.0376
  654PSPI   C4B10144  -1.046   3.261   7.446 -0.2918  0.4891 -0.0297
  655PSPI    C110145   0.724   5.334   5.629  0.2571 -0.3343 -0.1670
  655PSPI    C210146   0.989   5.619   5.533 -0.0931 -0.0090 -0.1905
  655PSPI    C310147   0.832   5.387   5.247  0.0079 -0.0632 -0.2026
  655PSPI   PO410148   0.847   5.182   5.861  0.0138 -0.1415  0.2800
  655PSPI   GL110149   0.668   4.891   6.149  0.2199 -0.2528  0.3024
  655PSPI   GL210150   0.532   4.607   6.180 -0.0358  0.2106 -0.4470
  655PSPI   C1A10151   0.657   4.881   6.589 -0.1825 -0.1184  0.0537
  655PSPI   C2A10152   0.538   4.814   7.004  0.3193 -0.1104 -0.1682
  655PSPI   C3A10153   0.688   4.585   7.342  0.0164  0.0570  0.2572
  655PSPI   C4A10154   0.745   4.665   7.738 -0.0203  0.0363 -0.1403
  655PSPI   C1B10155   0.654   4.347   6.582 -0.0448  0.0861  0.1762
  655PSPI   C2B10156   0.631   4.124   6.998  0.1639 -0.1574 -0.4038
  655PSPI   C3B10157   0.413   4.018   7.375  0.2046 -0.1903 -0.0596
  655PSPI   C4B10158   0.017   3.995   7.510 -0.2254 -0.1049 -0.2118
  656PSPI    C110159  14.321   9.211   5.052  0.1762 -0.0688  0.0874
  656PSPI    C210160  14.476   9.576   5.101 -0.1233  0.0926 -0.1352
  656PSPI    C310161  14.468   9.410   4.737 -0.0557 -0.1065 -0.0471
  656PSPI   PO410162  14.057   9.282   5.279 -0.1737 -0.0043  0.0789
  656PSPI   GL110163  14.035   9.193   5.654  0.2845  0.0311 -0.0083
  656PSPI   GL210164  13.704   9.258   5.613 -0.2049 -0.2359 -0.0845
  656PSPI   C1A10165  14.096   8.983   5.954  0.0255 -0.0723  0.0369
  656PSPI   C2A10166  13.849   8.733   6.249  0.0369  0.0981  0.0444
  656PSPI   C3A10167  13.526   8.766   6.441 -0.0581  0.1420 -0.0345
  656PSPI   C4A10168  13.267   8.768   6.804 -0.0620  0.0148 -0.2469
  656PSPI   C1B10169  13.577   9.109   6.032  0.0789 -0.0361  0.0296
  656PSPI   C2B10170  13.792   9.206   6.412 -0.2854  0.1289  0.1122
  656PSPI   C3B10171  13.732   9.042   6.774 -0.0701  0.0733  0.3152
  656PSPI   C4B10172  13.599   8.982   7.064 -0.2870  0.0496 -0.0153
  657PSPI    C110173  16.894  11.686   5.811  0.0562  0.1595 -0.1557
  657PSPI    C210174  16.919  11.325   5.641  0.0150  0.1088 -0.0557
  657PSPI    C310175  17.142  11.627   5.503 -0.2112  0.1375 -0.3704
  657PSPI   PO410176  16.941  11.654   6.114  0.0998  0.1566 -0.0563
  657PSPI   GL110177  17.008  11.472   6.518 -0.1431 -0.0371 -0.1840
  657PSPI   GL210178  16.719  11.445   6.489 -0.1209 -0.3253 -0.1950
  657PSPI   C1A10179  16.835  10.952   6.682 -0.1844 -0.0584 -0.2699
  657PSPI   C2A10180  16.776  10.797   7.010 -0.1248  0.1856 -0.4642
  657PSPI   C3A10181  16.747  11.040   7.456  0.3017  0.3439  0.0554
  657PSPI   C4A10182  16.988  11.095   7.800 -0.0756  0.0797 -0.1450
  657PSPI   C1B10183  16.736  11.457   6.923 -0.0525 -0.1101 -0.0091
  657PSPI   C2B10184  17.135  11.437   7.198 -0.0673  0.0377 -0.1156
  657PSPI   C3B10185  17.603  11.206   7.264 -0.1582  0.2278 -0.1037
  657PSPI   C4B10186  18.055  11.114   7.317 -0.0865 -0.0086 -0.1698
  658PSPI    C110187   6.341  14.668   5.195  0.0433  0.2752  0.2562
  658PSPI    C210188   6.420  15.056   5.138  0.1644  0.1959 -0.1543
  658PSPI    C310189   6.262  14.838   4.842  0.0273 -0.0539  0.0968
  658PSPI   PO410190   6.214  14.658   5.502 -0.3762 -0.3130  0.1584
  658PSPI   GL110191   6.073  14.345   5.787 -0.2136  0.0976 -0.3591
  658PSPI   GL210192   6.261  14.181   6.059 -0.1214 -0.0044  0.3825
  658PSPI   C1A10193   5.800  14.531   6.097 -0.1448 -0.1535 -0.0710
  658PSPI   C2A10194   5.691  14.516   6.541 -0.1578 -0.0504  0.0353
  658PSPI   C3A10195   5.940  14.369   6.920  0.0728  0.0542 -0.1940
  658PSPI   C4A10196   5.802  14.509   7.328  0.1391 -0.0457 -0.0559
  658PSPI   C1B10197   6.317  14.321   6.446  0.1159 -0.0112  0.3568
  658PSPI   C2B10198   6.419  14.342   6.832 -0.0835  0.2021  0.0505
  658PSPI   C3B10199   6.349  14.641   7.137  0.1457  0.0815 -0.0605
  658PSPI   C4B10200   6.447  14.786   7.594  0.0023 -0.1530  0.2580
  659PSPI    C110201  11.171   1.630   5.163  0.0810 -0.0419  0.1322
  659PSPI    C210202  10.998   1.923   5.374  0.0642  0.0648 -0.0279
  659PSPI    C310203  11.367   1.972   5.227  0.0232  0.0443 -0.1388
  659PSPI   PO410204  11.058   1.369   5.328  0.0484 -0.0266 -0.1812
  659PSPI   GL110205  10.833   1.511   5.657  0.0015  0.0341 -0.0680
  659PSPI   GL210206  10.419   1.569   5.814  0.0745  0.1891  0.1246
  659PSPI   C1A10207  11.029   1.502   6.086 -0.1232  0.1034  0.1105
  659PSPI   C2A10208  11.092   1.634   6.510  0.1694  0.0037  0.1676
  659PSPI   C3A10209  11.035   1.853   6.836  0.2926 -0.1200 -0.0871
  659PSPI   C4A10210  11.043   2.220   7.016  0.1747 -0.2182 -0.0566
  659PSPI   C1B10211  10.615   1.680   6.219  0.2128 -0.0675  0.1267
  659PSPI   C2B10212  10.764   1.971   6.350 -0.0714 -0.1088 -0.0148
  659PSPI   C3B10213  10.647   2.262   6.648  0.0683  0.3292 -0.2906
  659PSPI   C4B10214  10.661   2.436   7.170  0.0644  0.0450  0.1665
  660PSPI    C110215   4.597  14.639   5.430  0.0321 -0.0081 -0.0442
  660PSPI    C210216   4.696  14.725   5.052 -0.2269  0.0859 -0.0933
  660PSPI    C310217   4.931  14.844   5.353 -0.0308  0.0298 -0.2221
  660PSPI   PO410218   4.378  14.648   5.522 -0.0770  0.3880  0.1781
  660PSPI   GL110219   4.324  14.549   5.965 -0.2902 -0.1797 -0.3923
  660PSPI   GL210220   3.984  14.421   5.817  0.0534  0.2242 -0.2078
  660PSPI   C1A10221   4.463  14.362   6.308  0.1396  0.0141 -0.0162
  660PSPI   C2A10222   4.584  14.130   6.612 -0.0050 -0.0986 -0.1311
  660PSPI   C3A10223   4.515  13.970   6.944 -0.4113 -0.0960 -0.3364
  660PSPI   C4A10224   4.426  13.807   7.389  0.1150  0.0895  0.0371
  660PSPI   C1B10225   3.933  14.609   6.300  0.2903 -0.2026 -0.1001
  660PSPI   C2B10226   3.853  14.789   6.663 -0.0557  0.0644 -0.2433
  660PSPI   C3B10227   3.702  14.624   7.142 -0.0680  0.0318  0.0165
  660PSPI   C4B10228   3.390  14.852   7.341  0.0306 -0.0327  0.0703
  661PSPI    C110229   3.404  13.097   5.433  0.0202  0.0237 -0.0146
  661PSPI    C210230   3.363  12.766   5.213  0.1322 -0.0092  0.0132
  661PSPI    C310231   3.047  12.919   5.404  0.0377  0.0109 -0.1571
  661PSPI   PO410232   3.604  13.025   5.539 -0.1995  0.1162  0.0247
  661PSPI   GL110233   3.709  13.069   5.925  0.1238  0.1067 -0.0327
  661PSPI   GL210234   3.951  13.017   6.206 -0.2386  0.0457 -0.1969
  661PSPI   C1A10235   3.458  13.186   6.271  0.1447 -0.0346  0.0276
  661PSPI   C2A10236   3.299  13.158   6.759  0.2302 -0.2560  0.1853
  661PSPI   C3A10237   3.115  12.950   7.078  0.1284  0.1245  0.0466
  661PSPI   C4A10238   2.929  12.851   7.373  0.2010 -0.4245  0.4763
  661PSPI   C1B10239   3.841  12.963   6.677  0.4090 -0.3027  0.0217
  661PSPI   C2B10240   4.080  13.020   7.079  0.2338 -0.2176 -0.1227
  661PSPI   C3B10241   4.005  13.307   7.376 -0.2084  0.0635  0.0055
  661PSPI   C4B10242   3.977  13.300   7.885  0.1813 -0.0702  0.1605
  662PSPI    C110243  18.586   2.643   5.659  0.1841  0.1866 -0.1027
  662PSPI    C210244  18.920   2.577   5.450  0.2052 -0.0323 -0.0023
  662PSPI    C310245  18.692   2.894   5.366  0.2203 -0.1085 -0.3477
  662PSPI   PO410246  18.426   2.345   5.643 -0.1589 -0.0943  0.1581
  662PSPI   GL110247  18.376   2.198   5.966  0.0502 -0.1328  0.1759
  662PSPI   GL210248  18.241   2.619   6.080 -0.0590  0.0344 -0.3323
  662PSPI   C1A10249  18.217   1.878   6.272  0.0104  0.0617  0.1811
  662PSPI   C2A10250  18.013   1.789   6.606 -0.0662  0.1817  0.3463
  662PSPI   C3A10251  17.912   1.834   7.087 -0.2038 -0.1183  0.3004
  662PSPI   C4A10252  17.605   1.877   7.356  0.1023 -0.0805 -0.1540
  662PSPI   C1B10253  18.179   2.815   6.424 -0.1462 -0.0062 -0.3179
  662PSPI   C2B10254  18.253   2.897   6.853  0.2386  0.0661 -0.1313
  662PSPI   C3B10255  18.172   2.845   7.266  0.0943  0.1107  0.1094
  662PSPI   C4B10256  17.880   2.725   7.639  0.1075  0.1782  0.3086
  663PSPI    C110257  14.792   8.611   5.180  0.0790  0.2257  0.0796
  663PSPI    C210258  15.148   8.444   5.250  0.0286  0.0863  0.0082
  663PSPI    C310259  14.939   8.340   4.926 -0.0966  0.1356  0.0725
  663PSPI   PO410260  14.742   8.793   5.272 -0.0302  0.2177 -0.1574
  663PSPI   GL110261  14.638   8.915   5.647 -0.0921  0.2331  0.2120
  663PSPI   GL210262  14.714   9.251   5.556  0.3057 -0.2428 -0.0573
  663PSPI   C1A10263  14.625   8.767   5.990  0.0189  0.1682  0.3712
  663PSPI   C2A10264  14.306   8.706   6.275 -0.1716  0.3262  0.0560
  663PSPI   C3A10265  14.152   8.829   6.633  0.2245  0.3676  0.1473
  663PSPI   C4A10266  14.093   8.702   7.049  0.1025 -0.0018  0.3666
  663PSPI   C1B10267  14.583   9.302   6.003  0.1405  0.0787  0.1848
  663PSPI   C2B10268  14.566   9.714   6.402  0.3229  0.0317 -0.2121
  663PSPI   C3B10269  14.463   9.675   6.814  0.1270  0.1917  0.0795
  663PSPI   C4B10270  14.730   9.391   6.815  0.2147  0.1952  0.0763
  664PSPI    C110271   8.700  15.971   5.184  0.0690 -0.2093  0.0459
  664PSPI    C210272   8.408  15.702   5.137 -0.0091 -0.1105 -0.0382
  664PSPI    C310273   8.450  16.000   4.874 -0.0571  0.0844  0.1711
  664PSPI   PO410274   8.812  15.790   5.482 -0.3668  0.2905 -0.1176
  664PSPI   GL110275   9.080  15.868   5.786 -0.3028 -0.2092  0.0304
  664PSPI   GL210276   9.241  16.196   5.694 -0.0691 -0.1439 -0.0577
  664PSPI   C1A10277   8.777  15.962   6.146 -0.3591  0.2931  0.1711
  664PSPI   C2A10278   8.369  16.099   6.319  0.1778 -0.0705 -0.1787
  664PSPI   C3A10279   8.144  16.057   6.785  0.0849 -0.3469 -0.3152
  664PSPI   C4A10280   8.128  16.092   7.205 -0.0096 -0.2636  0.0126
  664PSPI   C1B10281   9.060  16.386   5.954  0.0774  0.4260 -0.0601
  664PSPI   C2B10282   9.158  16.302   6.355 -0.1722  0.1299 -0.2662
  664PSPI   C3B10283   9.438  16.203   6.562 -0.0600  0.0152  0.0071
  664PSPI   C4B10284   9.667  15.888   6.807 -0.0411 -0.0219 -0.0584
  665PSPI    C110285  12.158  13.226   5.413  0.0288 -0.3132  0.0457
  665PSPI    C210286  11.847  13.052   5.595 -0.0994 -0.1091  0.0246
  665PSPI    C310287  11.796  13.233   5.242  0.0767 -0.2061 -0.0518
  665PSPI   PO410288  12.183  13.401   5.634 -0.1727 -0.0278 -0.1579
  665PSPI   GL110289  11.948  13.578   6.026 -0.2546  0.2227 -0.2004
  665PSPI   GL210290  11.953  13.202   6.149  0.2817  0.4024  0.0270
  665PSPI   C1A10291  12.129  13.581   6.348 -0.1448  0.2414 -0.0894
  665PSPI   C2A10292  12.065  13.700   6.745 -0.2442 -0.1064 -0.0604
  665PSPI   C3A10293  11.901  13.415   7.124 -0.0633 -0.1531  0.0465
  665PSPI   C4A10294  11.650  13.135   7.458  0.1798  0.0119  0.3312
  665PSPI   C1B10295  11.732  13.268   6.538  0.0686 -0.0265  0.2924
  665PSPI   C2B10296  11.733  12.916   6.921  0.1589  0.1920 -0.2929
  665PSPI   C3B10297  11.660  12.645   7.231 -0.2654  0.0629 -0.1221
  665PSPI   C4B10298  11.468  12.697   7.587 -0.3840  0.0805 -0.2317
  666PSPI    C110299  13.772  17.676   5.052  0.2483 -0.0330  0.2128
  666PSPI    C210300  13.656  17.307   5.151  0.1218 -0.0947 -0.1512
  666PSPI    C310301  14.028  17.371   5.021  0.2636 -0.0265  0.2711
  666PSPI   PO410302  13.651  17.816   5.333  0.1139 -0.1895 -0.1880
  666PSPI   GL110303  13.713  17.620   5.601 -0.0481  0.1560  0.0657
  666PSPI   GL210304  13.611  17.414   5.764 -0.0967 -0.1018  0.1997
  666PSPI   C1A10305  13.926  17.760   5.944  0.2154 -0.2217 -0.0830
  666PSPI   C2A10306  14.087  17.661   6.368  0.3197 -0.0499 -0.0135
  666PSPI   C3A10307  14.415  17.487   6.443  0.4147 -0.0835  0.3221
  666PSPI   C4A10308  14.445  17.359   6.813 -0.1967 -0.1769  0.1279
  666PSPI   C1B10309  13.697  17.383   6.114 -0.1978  0.3252  0.0449
  666PSPI   C2B10310  13.719  17.376   6.613 -0.1437  0.1505 -0.1106
  666PSPI   C3B10311  13.909  17.706   6.803 -0.1058 -0.1983  0.1764
  666PSPI   C4B10312  14.245  17.824   6.951 -0.2017  0.0323 -0.1470
  667PSPI    C110313   3.355   5.876   5.297  0.1195  0.1264  0.1270
  667PSPI    C210314   3.003   5.916   5.110  0.0356 -0.2049  0.2077
  667PSPI    C310315   3.322   5.781   4.910  0.1118  0.0642  0.1428
  667PSPI   PO410316   3.325   6.172   5.441  0.1041 -0.0956 -0.0498
  667PSPI   GL110317   3.063   6.580   5.651 -0.0632 -0.3517 -0.0699
  667PSPI   GL210318   2.976   6.477   5.950  0.0979  0.4186 -0.0433
  667PSPI   C1A10319   3.071   6.941   5.983 -0.1930  0.4715 -0.2264
  667PSPI   C2A10320   3.070   7.113   6.460 -0.2099 -0.2858 -0.2876
  667PSPI   C3A10321   2.984   7.185   6.823  0.1771 -0.2722  0.2126
  667PSPI   C4A10322   3.066   7.114   7.289  0.0237 -0.1478 -0.1607
  667PSPI   C1B10323   2.916   6.630   6.326  0.0367 -0.0422 -0.0042
  667PSPI   C2B10324   3.003   6.613   6.635  0.0684 -0.2670  0.1866
  667PSPI   C3B10325   2.986   6.721   7.003  0.1024 -0.2112 -0.0384
  667PSPI   C4B10326   2.581   7.034   7.125 -0.1343 -0.1790  0.2756
  668PSPI    C110327   9.601  11.139   5.437  0.1009  0.2047  0.1401
  668PSPI    C210328   9.710  10.856   5.698 -0.2685  0.0044  0.0831
  668PSPI    C310329   9.326  10.892   5.590 -0.1548  0.2306 -0.2622
  668PSPI   PO410330   9.700  11.396   5.533  0.1871  0.0392  0.1962
  668PSPI   GL110331   9.966  11.598   5.815  0.1052  0.1006  0.0128
  668PSPI   GL210332  10.288  11.443   5.817  0.0668  0.1092 -0.1658
  668PSPI   C1A10333   9.804  11.500   6.118 -0.0721  0.0677 -0.0190
  668PSPI   C2A10334   9.443  11.397   6.373 -0.0214  0.2204 -0.1641
  668PSPI   C3A10335   9.391  11.137   6.678 -0.0302  0.1157 -0.1211
  668PSPI   C4A10336   9.374  10.769   6.953 -0.0992  0.3913 -0.0355
  668PSPI   C1B10337  10.381  11.274   6.309  0.0056 -0.0652 -0.0331
  668PSPI   C2B10338   9.977  11.263   6.594 -0.1586 -0.1204 -0.1802
  668PSPI   C3B10339   9.875  11.036   6.979  0.3377 -0.0440 -0.0054
  668PSPI   C4B10340   9.829  11.418   7.307 -0.0695  0.4000  0.2216
  669PSPI    C110341   1.949   4.073   5.637  0.0731 -0.0314 -0.0669
  669PSPI    C210342   2.024   3.698   5.521  0.0630 -0.0714  0.0550
  669PSPI    C310343   1.652   3.843   5.502  0.0356 -0.1255  0.1722
  669PSPI   PO410344   2.238   4.053   5.804  0.3016  0.2374  0.2329
  669PSPI   GL110345   2.212   4.248   6.199  0.1840  0.0668  0.1632
  669PSPI   GL210346   2.144   4.166   6.577 -0.0879 -0.0818  0.2087
  669PSPI   C1A10347   2.518   3.842   6.352 -0.0922  0.0598  0.0585
  669PSPI   C2A10348   2.456   3.757   6.712 -0.2675 -0.2711  0.2430
  669PSPI   C3A10349   2.417   3.764   7.026  0.2426  0.4421  0.1130
  669PSPI   C4A10350   2.409   3.873   7.437 -0.0588  0.1911 -0.1014
  669PSPI   C1B10351   2.019   4.110   6.845  0.1682 -0.1680 -0.4507
  669PSPI   C2B10352   2.043   4.214   7.314  0.0064  0.0208 -0.2512
  669PSPI   C3B10353   1.966   3.965   7.697 -0.1960 -0.0843  0.1880
  669PSPI   C4B10354   1.687   3.645   7.956 -0.0508  0.2065  0.0607
  670PSPI    C110355   4.895   1.373   5.388 -0.0238  0.1762 -0.0099
  670PSPI    C210356   4.610   1.097   5.440  0.1310 -0.0085 -0.1271
  670PSPI    C310357   4.544   1.409   5.199 -0.0086  0.0044 -0.0732
  670PSPI   PO410358   4.995   1.432   5.624 -0.1900  0.5287 -0.0280
  670PSPI   GL110359   4.816   1.457   6.105 -0.3872 -0.0155  0.1598
  670PSPI   GL210360   4.720   1.043   5.953  0.1572  0.0796 -0.2720
  670PSPI   C1A10361   5.061   1.580   6.391  0.1443 -0.3881 -0.1089
  670PSPI   C2A10362   5.025   1.529   6.846 -0.3300 -0.0948 -0.1419
  670PSPI   C3A10363   5.016   1.445   7.378  0.1383 -0.0389 -0.1495
  670PSPI   C4A10364   4.647   1.457   7.709 -0.2140 -0.0029 -0.1733
  670PSPI   C1B10365   4.818   1.033   6.345 -0.0457  0.1095  0.1617
  670PSPI   C2B10366   4.652   1.145   6.792 -0.2587  0.0681  0.1990
  670PSPI   C3B10367   4.520   1.538   7.132 -0.0070  0.1936  0.0603
  670PSPI   C4B10368   4.272   1.803   7.428 -0.0557  0.0700  0.1255
  671PSPI    C110369  16.763  15.811   5.560 -0.3229 -0.0844 -0.2102
  671PSPI    C210370  16.698  16.199   5.633 -0.2181 -0.1309  0.1493
  671PSPI    C310371  16.591  16.041   5.281 -0.3251  0.2064  0.0263
  671PSPI   PO410372  16.632  15.706   5.734 -0.2450 -0.0026  0.2807
  671PSPI   GL110373  16.498  16.006   6.033  0.1849 -0.2785  0.0685
  671PSPI   GL210374  16.610  15.621   6.230  0.0578 -0.1829 -0.0709
  671PSPI   C1A10375  16.474  16.051   6.446 -0.1033  0.0911 -0.1526
  671PSPI   C2A10376  16.727  15.929   6.819  0.3156 -0.4511  0.0691
  671PSPI   C3A10377  16.871  16.034   7.118  0.0844 -0.4703 -0.0053
  671PSPI   C4A10378  16.560  16.178   7.500 -0.0820 -0.5704 -0.2405
  671PSPI   C1B10379  16.618  15.520   6.662  0.1702 -0.1316 -0.0976
  671PSPI   C2B10380  16.379  15.343   7.044  0.1908  0.1125  0.0691
  671PSPI   C3B10381  16.249  15.339   7.444 -0.2281  0.3144  0.0833
  671PSPI   C4B10382  16.341  15.297   7.844  0.0464  0.1514 -0.3433
  672PSPI    C110383  12.429  12.393   5.476 -0.1564 -0.0534 -0.0511
  672PSPI    C210384  12.094  12.593   5.566  0.0491  0.1991  0.1731
  672PSPI    C310385  12.323  12.713   5.261 -0.1976 -0.1353 -0.1532
  672PSPI   PO410386  12.548  12.410   5.686 -0.1933  0.5192  0.0887
  672PSPI   GL110387  12.343  12.385   6.127  0.0512 -0.1871  0.3169
  672PSPI   GL210388  12.039  12.275   6.279  0.0430 -0.0203  0.1956
  672PSPI   C1A10389  12.453  12.373   6.573 -0.0065 -0.0043  0.3050
  672PSPI   C2A10390  12.417  12.247   6.961  0.0169 -0.1211  0.0678
  672PSPI   C3A10391  12.275  12.231   7.296  0.2141 -0.0238  0.0135
  672PSPI   C4A10392  12.213  11.964   7.531  0.1169  0.1194 -0.1509
  672PSPI   C1B10393  12.109  11.992   6.557  0.1114  0.0593 -0.1374
  672PSPI   C2B10394  12.077  11.787   7.012 -0.0939  0.1438 -0.1290
  672PSPI   C3B10395  11.847  11.543   7.393  0.3387 -0.0345  0.0431
  672PSPI   C4B10396  11.629  11.427   7.646 -0.1668  0.1962 -0.0466
  673PSPI    C110397  15.195  13.272   5.470  0.1906 -0.0309 -0.0321
  673PSPI    C210398  15.019  13.322   5.114 -0.0282 -0.0750  0.0680
  673PSPI    C310399  15.417  13.291   5.138  0.0160  0.2835 -0.1353
  673PSPI   PO410400  15.023  13.165   5.611  0.0668 -0.1860 -0.1361
  673PSPI   GL110401  14.681  13.062   6.140 -0.1676 -0.1109  0.0778
  673PSPI   GL210402  14.932  13.295   6.142 -0.3307  0.2578 -0.0450
  673PSPI   C1A10403  14.529  12.650   6.333  0.3319  0.1086  0.1767
  673PSPI   C2A10404  14.619  12.229   6.623  0.1036  0.2340  0.2205
  673PSPI   C3A10405  14.611  11.789   6.604  0.0402 -0.0812  0.0944
  673PSPI   C4A10406  14.396  11.416   6.802  0.0081  0.0699 -0.1401
  673PSPI   C1B10407  15.235  13.300   6.463 -0.2768 -0.0154 -0.1795
  673PSPI   C2B10408  15.548  13.111   6.677 -0.1922 -0.1696  0.0577
  673PSPI   C3B10409  15.740  13.352   6.901  0.2309  0.0973 -0.1647
  673PSPI   C4B10410  15.616  13.576   7.237 -0.1518 -0.1222 -0.0465
  674POPI    C110411   8.858  17.005   4.868 -0.0146 -0.1455 -0.1109
  674POPI    C210412   8.605  16.867   4.590 -0.0934 -0.1374 -0.0436
  674POPI    C310413   8.583  17.248   4.709  0.0744 -0.0854 -0.1742
  674POPI   PO410414   9.018  16.816   5.127 -0.2670  0.0586  0.1560
  674POPI   GL110415   9.211  16.686   5.529  0.0688  0.2101  0.0435
  674POPI   GL210416   9.566  16.535   5.584 -0.2587  0.0855  0.2917
  674POPI   C1A10417   9.257  16.871   6.001 -0.0795 -0.3596  0.0703
  674POPI   D2A10418   9.322  16.771   6.391 -0.0849 -0.2358  0.2189
  674POPI   C3A10419   9.538  17.115   6.701 -0.0824 -0.2095  0.1255
  674POPI   C4A10420   9.449  17.500   6.850  0.2340  0.0805  0.1615
  674POPI   C1B10421   9.569  16.398   6.017  0.0556  0.0172 -0.1690
  674POPI   C2B10422   9.847  16.228   6.225  0.1958 -0.0536  0.0531
  674POPI   C3B10423   9.910  16.314   6.736 -0.2043  0.4029 -0.3222
  674POPI   C4B10424  10.246  16.200   7.053 -0.1129  0.1742  0.0505
  675POPI    C110425  10.597   3.370   5.021 -0.0892  0.0044  0.0355
  675POPI    C210426  10.247   3.532   4.914 -0.1506 -0.0667  0.1278
  675POPI    C310427  10.258   3.239   5.187 -0.0621 -0.3683 -0.1914
  675POPI   PO410428  10.767   3.554   5.027 -0.1840 -0.0843  0.0388
  675POPI   GL110429  10.952   3.711   5.395 -0.0424  0.1786 -0.1754
  675POPI   GL210430  10.828   4.028   5.497 -0.0968  0.3040  0.1830
  675POPI   C1A10431  10.859   3.546   5.818 -0.0416 -0.4101 -0.1189
  675POPI   D2A10432  10.708   3.117   6.111 -0.0796 -0.0110  0.0950
  675POPI   C3A10433  11.005   3.027   6.383 -0.2415 -0.0378 -0.1050
  675POPI   C4A10434  11.274   3.068   6.781 -0.2461 -0.0832  0.0216
  675POPI   C1B10435  10.547   4.028   5.752 -0.0796  0.1848 -0.1649
  675POPI   C2B10436  10.551   3.989   6.100 -0.0183  0.1313  0.1233
  675POPI   C3B10437  10.566   3.821   6.632 -0.0145  0.2039 -0.1161
  675POPI   C4B10438  10.807   3.397   6.737 -0.5059 -0.2129 -0.0893
  676POPI    C110439  16.371  11.619   5.681 -0.1362  0.3972  0.1770
  676POPI    C210440  16.325  11.682   5.289 -0.2523  0.0258  0.1266
  676POPI    C310441  16.086  11.425   5.479 -0.0964  0.0871  0.4111
  676POPI   PO410442  16.369  11.902   5.837  0.0625  0.0511  0.1284
  676POPI   GL110443  16.397  11.763   6.256 -0.1248  0.4456 -0.0377
  676POPI   GL210444  16.097  11.991   6.261  0.1972  0.2788 -0.0243
  676POPI   C1A10445  16.443  11.826   6.671  0.1866  0.1792 -0.1418
  676POPI   D2A10446  16.393  11.957   7.017 -0.1455 -0.1487  0.1853
  676POPI   C3A10447  16.371  11.634   7.308 -0.2169  0.0017  0.0550
  676POPI   C4A10448  16.120  11.714   7.690  0.0756 -0.0834 -0.0835
  676POPI   C1B10449  15.963  12.391   6.356  0.0749  0.0795 -0.0183
  676POPI   C2B10450  15.960  12.779   6.423 -0.0076  0.1454  0.1704
  676POPI   C3B10451  16.058  13.167   6.539  0.1350 -0.1428  0.5023
  676POPI   C4B10452  16.271  13.427   6.888  0.0176 -0.0180  0.0703
  677POPI    C110453   2.566   5.656   5.631  0.1425  0.0132 -0.0870
  677POPI    C210454   2.620   5.260   5.636 -0.1336 -0.0253  0.0316
  677POPI    C310455   2.872   5.493   5.432  0.0340 -0.2608 -0.0351
  677POPI   PO410456   2.581   5.771   5.873 -0.1578  0.2090 -0.0552
  677POPI   GL110457   2.810   5.995   6.162 -0.0713  0.1118 -0.3804
  677POPI   GL210458   3.110   5.903   5.965 -0.0064  0.0264  0.0754
  677POPI   C1A10459   2.810   6.187   6.521  0.0521 -0.0226 -0.1796
  677POPI   D2A10460   2.697   6.099   6.906 -0.2992 -0.2308 -0.0667
  677POPI   C3A10461   2.735   6.204   7.264 -0.2328 -0.2889 -0.1671
  677POPI   C4A10462   2.918   6.125   7.616  0.1959  0.0701 -0.0999
  677POPI   C1B10463   3.277   6.254   6.317 -0.1886  0.1025 -0.1251
  677POPI   C2B10464   3.478   6.587   6.315  0.0731  0.0394 -0.0513
  677POPI   C3B10465   3.544   7.062   6.290 -0.1618  0.1427  0.0225
  677POPI   C4B10466   3.409   7.386   6.033 -0.1441 -0.4118 -0.2542
  678POPI    C110467  16.334   0.712   5.009  0.0734  0.1105  0.1432
  678POPI    C210468  16.075   0.571   4.738  0.0935 -0.0452  0.2038
  678POPI    C310469  16.116   0.966   4.789 -0.0010 -0.0170  0.0681
  678POPI   PO410470  16.347   0.636   5.217  0.1248  0.1221 -0.2215
  678POPI   GL110471  16.407   0.518   5.679 -0.2190  0.0426 -0.3614
  678POPI   GL210472  16.518   0.417   5.988  0.2792  0.3414 -0.0122
  678POPI   C1A10473  16.123   0.674   6.076  0.1722 -0.1194  0.1601
  678POPI   D2A10474  16.126   0.725   6.527  0.0386 -0.2234 -0.0593
  678POPI   C3A10475  16.380   0.550   6.847 -0.2681  0.0128  0.0072
  678POPI   C4A10476  16.658   0.223   6.768 -0.3552  0.1282  0.0194
  678POPI   C1B10477  16.631   0.713   6.322 -0.3887  0.2383 -0.1445
  678POPI   C2B10478  16.802   0.788   6.711  0.0495  0.0030 -0.0283
  678POPI   C3B10479  16.812   0.846   7.140  0.1764  0.0273  0.2790
  678POPI   C4B10480  16.943   0.717   7.595 -0.0182 -0.0148 -0.2916
  679POPI    C110481   0.586  14.739   5.616 -0.2757  0.1316  0.0434
  679POPI    C210482   0.445  15.034   5.387 -0.0122  0.3103  0.1069
  679POPI    C310483   0.529  14.678   5.225 -0.2170  0.3064  0.0066
  679POPI   PO410484   0.860  14.774   5.823 -0.2539  0.1744  0.4120
  679POPI   GL110485   1.228  14.761   6.092 -0.1225 -0.1456 -0.2278
  679POPI   GL210486   1.542  14.830   6.030  0.1971 -0.0324  0.2693
  679POPI   C1A10487   1.241  14.594   6.452 -0.0529  0.4163  0.1477
  679POPI   D2A10488   1.071  14.601   6.835  0.2302 -0.0584  0.0186
  679POPI   C3A10489   1.296  14.253   7.083  0.3152 -0.1602  0.2773
  679POPI   C4A10490   1.605  14.066   7.276  0.4067 -0.0668  0.2766
  679POPI   C1B10491   1.808  14.665   6.256 -0.3006 -0.1391  0.0584
  679POPI   C2B10492   1.916  14.674   6.626 -0.1945 -0.2879 -0.2200
  679POPI   C3B10493   1.825  14.466   6.995 -0.3526  0.0374 -0.3187
  679POPI   C4B10494   2.034  14.253   7.455 -0.1026 -0.2926 -0.3891
  680POPI    C110495   3.063   2.381   5.796 -0.1170 -0.0108 -0.0324
  680POPI    C210496   2.686   2.512   5.818 -0.0624  0.1242  0.1228
  680POPI    C310497   2.829   2.371   5.472 -0.2666  0.0345  0.0733
  680POPI   PO410498   3.071   2.181   5.953  0.1375 -0.1845 -0.1141
  680POPI   GL110499   2.826   2.119   6.327 -0.2286 -0.0557 -0.2839
  680POPI   GL210500   2.609   2.275   6.261  0.0130  0.0835 -0.2542
  680POPI   C1A10501   3.056   2.011   6.684 -0.1351 -0.3129 -0.0240
  680POPI   D2A10502   2.901   2.066   7.190 -0.1829  0.2781  0.3428
  680POPI   C3A10503   3.186   1.699   7.233  0.0831  0.0977 -0.0374
  680POPI   C4A10504   3.286   1.375   7.537  0.3310  0.1533  0.2378
  680POPI   C1B10505   2.479   2.223   6.733 -0.2111 -0.3586 -0.3913
  680POPI   C2B10506   2.432   2.180   7.187 -0.0787  0.0647  0.1716
  680POPI   C3B10507   2.490   1.913   7.496 -0.0622 -0.0238  0.0450
  680POPI   C4B10508   2.586   1.950   7.951 -0.2369 -0.1810  0.3109
  681POPI    C110509   5.140   8.226   5.432 -0.1800 -0.0045 -0.0449
  681POPI    C210510   4.916   8.541   5.328 -0.1695 -0.0282 -0.1417
  681POPI    C310511   4.788   8.170   5.250 -0.2277 -0.0523  0.0620
  681POPI   PO410512   5.320   8.288   5.651 -0.1191 -0.0760  0.1311
  681POPI   GL110513   5.369   8.325   6.021  0.2249 -0.0789 -0.0135
  681POPI   GL210514   5.139   8.513   6.080  0.0054 -0.0210 -0.0211
  681POPI   C1A10515   5.377   8.151   6.397 -0.0392 -0.2800  0.2443
  681POPI   D2A10516   5.489   8.066   6.828  0.2136  0.2372 -0.3770
  681POPI   C3A10517   5.358   7.971   7.228  0.1668  0.2011  0.1885
  681POPI   C4A10518   4.966   8.041   7.449 -0.1197  0.0736 -0.1823
  681POPI   C1B10519   5.229   8.729   6.524  0.1343 -0.2233  0.1728
  681POPI   C2B10520   4.928   8.763   7.008  0.0415  0.2040 -0.0980
  681POPI   C3B10521   4.791   8.610   7.340  0.1565 -0.1095  0.1042
  681POPI   C4B10522   4.862   8.797   7.740  0.1559 -0.0461  0.4749
  682POPI    C110523   4.216  11.095   5.658 -0.0964 -0.0179  0.1903
  682POPI    C210524   4.381  10.735   5.607  0.1410  0.1369 -0.1792
  682POPI    C310525   3.993  10.790   5.530  0.0389 -0.0993  0.1464
  682POPI   PO410526   4.385  11.138   5.896 -0.0637 -0.4107  0.1932
  682POPI   GL110527   4.096  11.286   6.186  0.0736  0.0724  0.2769
  682POPI   GL210528   3.793  11.387   6.379  0.3091  0.2412  0.4361
  682POPI   C1A10529   4.307  11.661   6.334  0.2872  0.2221 -0.1470
  682POPI   D2A10530   4.405  12.167   6.370 -0.1642 -0.0258 -0.0105
  682POPI   C3A10531   4.363  12.180   6.827 -0.2759  0.2504 -0.2112
  682POPI   C4A10532   4.352  12.448   7.224  0.3600 -0.5479  0.1704
  682POPI   C1B10533   3.672  10.966   6.584  0.0757 -0.0347  0.3311
  682POPI   C2B10534   3.878  10.709   6.777  0.0041 -0.1050  0.0036
  682POPI   C3B10535   3.698  10.473   7.124 -0.0361  0.0402  0.2103
  682POPI   C4B10536   3.459  10.138   7.425  0.0888 -0.1610  0.3191
  683POPI    C110537   2.070  17.857   5.035 -0.1367 -0.1271 -0.2602
  683POPI    C210538   1.803  17.569   5.112 -0.1583 -0.0280  0.0526
  683POPI    C310539   1.683  17.949   5.084 -0.0956 -0.0208 -0.1298
  683POPI   PO410540   2.285  17.744   5.270  0.0762 -0.1652  0.1805
  683POPI   GL110541   2.251  17.641   5.734  0.0496 -0.1591  0.3146
  683POPI   GL210542   2.557  17.590   5.824 -0.2052 -0.1548 -0.3641
  683POPI   C1A10543   2.191  17.300   6.026 -0.0444 -0.1018 -0.1500
  683POPI   D2A10544   1.990  16.972   6.229  0.0613  0.1954  0.0592
  683POPI   C3A10545   1.914  17.126   6.719  0.2351  0.0638 -0.3902
  683POPI   C4A10546   1.762  17.289   7.083 -0.0509 -0.1742  0.0358
  683POPI   C1B10547   2.718  17.479   6.258  0.2416 -0.1473  0.0743
  683POPI   C2B10548   2.817  17.512   6.705 -0.0010 -0.1605 -0.0786
  683POPI   C3B10549   2.763  17.425   7.176 -0.1750 -0.4122 -0.1431
  683POPI   C4B10550   2.536  17.636   7.524  0.1229  0.3651  0.1015
  684POPI    C110551   0.727  15.864   5.573  0.0312  0.1033 -0.1162
  684POPI    C210552   1.119  15.786   5.569  0.0225  0.0540 -0.0326
  684POPI    C310553   0.986  16.146   5.457  0.1055  0.1297  0.1089
  684POPI   PO410554   0.658  15.742   5.851 -0.0111 -0.2346  0.0097
  684POPI   GL110555   0.351  15.471   6.069  0.3439 -0.3618  0.1414
  684POPI   GL210556   0.455  15.218   5.991  0.2316 -0.0024  0.0905
  684POPI   C1A10557   0.170  15.633   6.437  0.0355 -0.2983  0.2568
  684POPI   D2A10558   0.114  15.570   6.863 -0.0298  0.1007  0.5532
  684POPI   C3A10559  -0.180  15.809   7.224 -0.4205  0.2026 -0.3821
  684POPI   C4A10560  -0.604  15.634   7.445  0.0817 -0.0273 -0.3532
  684POPI   C1B10561   0.278  15.192   6.472  0.1096 -0.1393  0.0343
  684POPI   C2B10562   0.169  15.078   6.838 -0.0683 -0.0645  0.0952
  684POPI   C3B10563  -0.060  15.221   7.136  0.0133 -0.0170  0.0835
  684POPI   C4B10564  -0.241  15.371   7.568  0.0301  0.2012  0.0009
  685POPI    C110565  15.574   9.191   5.049  0.1511 -0.1217  0.0045
  685POPI    C210566  15.902   9.240   4.824  0.0744 -0.2087 -0.1281
  685POPI    C310567  15.696   9.559   4.950  0.2592 -0.1498  0.0308
  685POPI   PO410568  15.635   9.070   5.332 -0.5030  0.0613 -0.1023
  685POPI   GL110569  15.546   9.130   5.741  0.4852  0.0942 -0.2413
  685POPI   GL210570  15.538   9.426   5.995 -0.0943 -0.0859  0.0411
  685POPI   C1A10571  15.991   9.228   5.912 -0.0119 -0.0790 -0.1969
  685POPI   D2A10572  16.480   9.206   6.034  0.2107  0.1712  0.1127
  685POPI   C3A10573  16.602   9.387   6.484 -0.2906  0.1793  0.3135
  685POPI   C4A10574  16.557   9.809   6.687 -0.0298  0.0848 -0.0897
  685POPI   C1B10575  15.695   9.362   6.438 -0.0263  0.4384 -0.0606
  685POPI   C2B10576  15.723   9.151   6.897  0.0783  0.1452  0.0550
  685POPI   C3B10577  15.801   9.229   7.405  0.0283  0.1076 -0.0008
  685POPI   C4B10578  16.232   9.199   7.602  0.3290 -0.3298  0.1004
  686POPI    C110579  15.370   8.283   5.635 -0.2543  0.1939 -0.1718
  686POPI    C210580  15.302   8.641   5.800 -0.0154  0.1532  0.0188
  686POPI    C310581  15.559   8.607   5.495  0.1290  0.1136  0.1434
  686POPI   PO410582  15.169   8.083   5.570  0.0683 -0.0241 -0.4995
  686POPI   GL110583  14.789   7.911   5.771 -0.0035  0.1045  0.1424
  686POPI   GL210584  14.647   7.584   5.708 -0.0046  0.0244  0.0518
  686POPI   C1A10585  14.960   7.876   6.262  0.0255 -0.0108  0.2424
  686POPI   D2A10586  15.183   7.738   6.631  0.4199 -0.0321  0.0099
  686POPI   C3A10587  14.979   7.936   7.058  0.2970 -0.1828 -0.4826
  686POPI   C4A10588  14.882   8.158   7.415  0.2065  0.1459 -0.3742
  686POPI   C1B10589  14.855   7.404   6.066  0.2180  0.3134  0.0310
  686POPI   C2B10590  14.995   7.282   6.470 -0.1676 -0.0110  0.1354
  686POPI   C3B10591  15.377   7.027   6.590 -0.0193 -0.0045  0.1665
  686POPI   C4B10592  15.478   6.522   6.671  0.4061 -0.1680  0.0125
  687POPI    C110593  15.497  15.981   5.422  0.2145 -0.0080  0.0122
  687POPI    C210594  15.786  16.243   5.513  0.1493  0.1442 -0.2076
  687POPI    C310595  15.833  15.992   5.205  0.2556 -0.1797  0.0663
  687POPI   PO410596  15.372  15.954   5.603  0.0752  0.1669  0.0645
  687POPI   GL110597  15.231  15.884   6.031 -0.0309  0.2623 -0.0503
  687POPI   GL210598  15.387  15.611   6.262  0.0504  0.0064  0.0552
  687POPI   C1A10599  15.026  16.125   6.373  0.0082 -0.1016 -0.1818
  687POPI   D2A10600  14.748  16.268   6.693  0.0042 -0.0141 -0.1051
  687POPI   C3A10601  14.482  15.930   6.849 -0.4769 -0.4162 -0.1491
  687POPI   C4A10602  14.061  15.866   7.076 -0.0871 -0.1015 -0.0087
  687POPI   C1B10603  15.657  15.480   6.582  0.0634  0.2302  0.1362
  687POPI   C2B10604  15.529  15.283   6.915 -0.2209  0.0517 -0.1285
  687POPI   C3B10605  15.391  15.183   7.338 -0.0909 -0.2743  0.0762
  687POPI   C4B10606  15.249  15.296   7.733 -0.1174 -0.2911 -0.0349
  688POPI    C110607  14.024   7.650   5.156  0.0386 -0.1899 -0.1422
  688POPI    C210608  14.196   7.475   5.471  0.1608  0.1714 -0.0033
  688POPI    C310609  14.416   7.693   5.218 -0.0157  0.2615 -0.0808
  688POPI   PO410610  13.736   7.728   5.311  0.0600  0.0200  0.1620
  688POPI   GL110611  13.386   7.776   5.619 -0.2048 -0.0198 -0.4022
  688POPI   GL210612  13.713   7.591   5.782  0.0047 -0.0819 -0.0337
  688POPI   C1A10613  13.658   8.131   5.854  0.0629 -0.2989 -0.1183
  688POPI   D2A10614  13.556   8.210   6.120  0.0397  0.2467  0.1359
  688POPI   C3A10615  13.605   8.119   6.549 -0.0820  0.0382 -0.3003
  688POPI   C4A10616  13.604   8.397   6.884 -0.1244 -0.1432 -0.1844
  688POPI   C1B10617  13.764   7.739   6.168 -0.0828 -0.2703  0.2832
  688POPI   C2B10618  13.811   7.660   6.576 -0.0566 -0.1294 -0.1523
  688POPI   C3B10619  14.208   7.648   6.830  0.0393 -0.0185 -0.1008
  688POPI   C4B10620  14.439   7.928   6.953  0.2471  0.0832 -0.3106
  689POPI    C110621   9.662   4.113   5.162  0.0735 -0.1347 -0.0064
  689POPI    C210622   9.396   4.051   4.869 -0.0454 -0.0096  0.0740
  689POPI    C310623   9.689   4.319   4.820  0.0357 -0.1103  0.0053
  689POPI   PO410624   9.461   4.018   5.433  0.1050  0.0722  0.2641
  689POPI   GL110625   9.586   3.635   5.642 -0.0125 -0.1285  0.0720
  689POPI   GL210626   9.473   3.589   5.889 -0.1126  0.1722  0.0255
  689POPI   C1A10627  10.064   3.450   5.644 -0.0327 -0.1989 -0.0812
  689POPI   D2A10628  10.351   3.485   5.990 -0.3014  0.0054 -0.1296
  689POPI   C3A10629  10.330   3.378   6.492 -0.0304  0.2929 -0.1597
  689POPI   C4A10630  10.280   3.254   6.841  0.1010  0.0966 -0.3118
  689POPI   C1B10631   9.487   3.799   6.211  0.0089 -0.1178 -0.0851
  689POPI   C2B10632   9.666   4.136   6.368  0.0976  0.2133 -0.2575
  689POPI   C3B10633   9.784   4.268   6.794 -0.2102 -0.0768  0.2554
  689POPI   C4B10634  10.065   4.352   7.136  0.1428 -0.2160  0.5214
  690POPI    C110635  14.920  11.119   5.061  0.1047 -0.0822 -0.0009
  690POPI    C210636  14.948  10.761   4.884  0.2600 -0.0946  0.0474
  690POPI    C310637  15.071  11.089   4.692  0.0563 -0.0577 -0.0229
  690POPI   PO410638  14.655  11.032   5.188  0.0279  0.1110  0.0267
  690POPI   GL110639  14.494  11.286   5.450 -0.0174  0.2381  0.0314
  690POPI   GL210640  14.402  11.002   5.604 -0.0663 -0.2310  0.0572
  690POPI   C1A10641  14.124  11.462   5.715  0.1037  0.0452  0.1795
  690POPI   D2A10642  13.908  11.605   6.131  0.3327 -0.1076  0.3026
  690POPI   C3A10643  13.563  11.353   6.238  0.3380 -0.3494 -0.2375
  690POPI   C4A10644  13.240  11.335   6.573  0.0829 -0.5947 -0.4661
  690POPI   C1B10645  14.521  11.172   5.925  0.1437  0.1270  0.0197
  690POPI   C2B10646  14.968  11.227   6.262 -0.1340 -0.1886  0.0672
  690POPI   C3B10647  14.954  11.460   6.643 -0.0446 -0.0144 -0.3356
  690POPI   C4B10648  14.818  11.517   7.079  0.0391 -0.1003  0.0070
  691POPI    C110649   3.892  17.455   5.432  0.1803  0.1536  0.3516
  691POPI    C210650   4.125  17.131   5.442  0.1709  0.1334  0.0235
  691POPI    C310651   3.782  17.124   5.237  0.2360  0.3922 -0.0978
  691POPI   PO410652   3.873  17.598   5.647 -0.1420  0.2508 -0.2236
  691POPI   GL110653   3.724  17.700   6.138  0.2285  0.1567  0.1016
  691POPI   GL210654   3.557  17.498   6.006  0.0331  0.0358  0.3819
  691POPI   C1A10655   3.636  17.671   6.551 -0.2289 -0.1716 -0.1471
  691POPI   D2A10656   3.777  17.622   6.927  0.0908 -0.1223 -0.0266
  691POPI   C3A10657   3.623  17.662   7.287 -0.3450  0.0142 -0.4041
  691POPI   C4A10658   3.167  17.717   7.461 -0.0339  0.2290 -0.1045
  691POPI   C1B10659   3.468  17.214   6.266 -0.1608 -0.1169  0.3697
  691POPI   C2B10660   3.358  17.325   6.752  0.1842  0.1349  0.0644
  691POPI   C3B10661   3.291  17.256   7.234  0.5870 -0.0584  0.1409
  691POPI   C4B10662   3.311  16.915   7.546 -0.0517 -0.1399  0.0186
  692POPI    C110663  16.275  12.377   5.567  0.1986 -0.1142  0.1692
  692POPI    C210664  16.356  12.204   5.215 -0.3584 -0.0907  0.0202
  692POPI    C310665  16.070  12.053   5.452 -0.0445 -0.0575  0.4308
  692POPI   PO410666  16.537  12.463   5.611 -0.1335 -0.1945  0.0250
  692POPI   GL110667  16.731  12.655   6.004  0.1305  0.1663 -0.2967
  692POPI   GL210668  16.374  12.471   6.086  0.0824  0.0692 -0.1283
  692POPI   C1A10669  16.901  12.749   6.340  0.3814 -0.2105  0.3922
  692POPI   D2A10670  17.018  12.576   6.705  0.1236 -0.0748  0.0409
  692POPI   C3A10671  16.883  12.651   7.085  0.0411 -0.0011  0.0025
  692POPI   C4A10672  16.794  12.714   7.509 -0.1537  0.0103 -0.1849
  692POPI   C1B10673  16.399  12.500   6.575 -0.0593 -0.1287 -0.1953
  692POPI   C2B10674  16.409  12.479   7.081 -0.1792 -0.1039  0.0378
  692POPI   C3B10675  16.548  12.342   7.391 -0.7379  0.3615  0.1634
  692POPI   C4B10676  16.559  12.038   7.668  0.0680  0.3750  0.0980
  693POPI    C110677   6.717   2.636   5.298  0.0885  0.2076 -0.0529
  693POPI    C210678   6.675   2.372   5.000 -0.0826  0.1397  0.0299
  693POPI    C310679   6.644   2.764   4.926 -0.1814  0.1205 -0.0324
  693POPI   PO410680   6.509   2.539   5.575 -0.0722 -0.1566  0.1886
  693POPI   GL110681   6.645   2.339   5.963 -0.3197  0.2878  0.0272
  693POPI   GL210682   6.690   1.963   5.861 -0.2311  0.1954 -0.0139
  693POPI   C1A10683   6.373   2.413   6.363 -0.1630 -0.0541 -0.0445
  693POPI   D2A10684   6.337   2.784   6.597  0.0131  0.1132  0.1387
  693POPI   C3A10685   6.272   2.762   6.981 -0.0759 -0.1618 -0.0386
  693POPI   C4A10686   6.240   2.656   7.355  0.0650 -0.0353 -0.0810
  693POPI   C1B10687   6.847   1.932   6.362  0.1787 -0.1877  0.0596
  693POPI   C2B10688   7.232   2.009   6.642  0.0581 -0.1476  0.0740
  693POPI   C3B10689   7.664   1.910   6.857 -0.1646 -0.0052  0.0480
  693POPI   C4B10690   7.754   1.840   7.307 -0.0540 -0.0290 -0.0068
  694POPI    C110691   5.157   3.649   5.465  0.1080  0.1465  0.1670
  694POPI    C210692   4.977   3.417   5.737  0.2818 -0.1883  0.0016
  694POPI    C310693   4.849   3.418   5.358  0.0572  0.2569  0.0724
  694POPI   PO410694   5.135   3.895   5.582 -0.2152 -0.1290 -0.0247
  694POPI   GL110695   5.090   3.914   6.131  0.2064 -0.1508  0.1103
  694POPI   GL210696   5.006   4.178   6.079 -0.0415 -0.0214  0.1071
  694POPI   C1A10697   4.820   3.868   6.452  0.1962  0.0367 -0.1365
  694POPI   D2A10698   4.747   3.779   6.919 -0.0848  0.0843  0.0712
  694POPI   C3A10699   4.930   4.012   7.297 -0.0952  0.1223 -0.1560
  694POPI   C4A10700   4.744   4.232   7.661  0.0318 -0.2486 -0.1357
  694POPI   C1B10701   5.259   4.367   6.314  0.0313  0.1013 -0.0287
  694POPI   C2B10702   5.284   4.560   6.684 -0.2966 -0.1634  0.0484
  694POPI   C3B10703   5.131   4.839   6.906 -0.0028 -0.1210  0.2283
  694POPI   C4B10704   4.863   5.157   7.107  0.0259  0.5631  0.0219
  695POPI    C110705   1.536   0.395   5.653 -0.0053 -0.1117 -0.1442
  695POPI    C210706   1.599   0.596   5.313 -0.1702 -0.0887 -0.1619
  695POPI    C310707   1.262   0.385   5.362 -0.0789 -0.2153 -0.0722
  695POPI   PO410708   1.757   0.516   5.790 -0.1024 -0.1227 -0.2681
  695POPI   GL110709   1.960   0.736   6.226 -0.2332 -0.0299 -0.0226
  695POPI   GL210710   1.987   0.358   6.228  0.0562 -0.1759 -0.0059
  695POPI   C1A10711   1.820   1.126   6.482 -0.1915  0.0033 -0.5368
  695POPI   D2A10712   1.585   1.155   6.875 -0.0030 -0.0845 -0.1599
  695POPI   C3A10713   1.574   0.850   7.209  0.0136  0.1927 -0.1394
  695POPI   C4A10714   1.770   0.521   7.376 -0.0527  0.2601  0.1406
  695POPI   C1B10715   1.841   0.180   6.573 -0.0111 -0.0618  0.0849
  695POPI   C2B10716   1.885   0.148   6.990 -0.1679  0.1719  0.1371
  695POPI   C3B10717   1.911  -0.075   7.331  0.2621 -0.1701 -0.1640
  695POPI   C4B10718   2.015  -0.091   7.740  0.0737 -0.0298 -0.0946
  696POPI    C110719  14.483   0.724   5.036 -0.1270 -0.2465 -0.0180
  696POPI    C210720  14.217   0.956   4.848 -0.0598 -0.0331  0.1469
  696POPI    C310721  14.608   1.003   4.778 -0.0448 -0.0823  0.1963
  696POPI   PO410722  14.288   0.745   5.308 -0.1650 -0.0047 -0.0163
  696POPI   GL110723  14.149   0.540   5.689 -0.2507  0.2267  0.0589
  696POPI   GL210724  13.938   0.700   5.619 -0.1265  0.1278  0.0055
  696POPI   C1A10725  14.564   0.416   5.923 -0.1898  0.1285  0.1485
  696POPI   D2A10726  14.556   0.607   6.272  0.3247 -0.1808  0.2056
  696POPI   C3A10727  14.811   1.000   6.202 -0.0852 -0.0541  0.4178
  696POPI   C4A10728  14.879   1.419   6.218 -0.2656 -0.1175 -0.2406
  696POPI   C1B10729  14.085   0.814   6.148 -0.1232  0.1411  0.2882
  696POPI   C2B10730  14.097   0.712   6.582 -0.0803  0.1819 -0.0331
  696POPI   C3B10731  14.225   0.759   7.044  0.0269 -0.0975 -0.1096
  696POPI   C4B10732  14.209   0.889   7.375  0.3463  0.0594 -0.2044
  697POPI    C110733   8.867   1.934   5.312 -0.0671 -0.0140 -0.1932
  697POPI    C210734   8.513   1.749   5.278  0.0140 -0.1419 -0.3533
  697POPI    C310735   8.611   2.042   5.024 -0.0392 -0.0009 -0.2130
  697POPI   PO410736   9.016   1.636   5.433  0.0523  0.2185  0.1753
  697POPI   GL110737   9.263   1.534   5.814 -0.0289  0.0476 -0.1341
  697POPI   GL210738   8.858   1.402   5.875 -0.4019 -0.1696  0.3967
  697POPI   C1A10739   9.242   1.935   6.127  0.1455  0.0114  0.0361
  697POPI   D2A10740   9.392   1.814   6.541  0.1598 -0.0321  0.2325
  697POPI   C3A10741   9.456   2.161   6.903  0.2514  0.1054 -0.0491
  697POPI   C4A10742   9.776   2.146   7.214  0.1062  0.1291 -0.0181
  697POPI   C1B10743   9.092   1.454   6.273 -0.0881  0.2677  0.0107
  697POPI   C2B10744   9.281   1.355   6.627 -0.0610  0.0830  0.0246
  697POPI   C3B10745   9.248   1.099   6.866  0.2636  0.1172 -0.1156
  697POPI   C4B10746   9.115   0.743   6.767  0.1307 -0.0288 -0.1601
  698POPI    C110747  11.641  11.303   5.109  0.3895 -0.0162  0.0709
  698POPI    C210748  11.710  11.361   4.719  0.0380  0.0967  0.0226
  698POPI    C310749  11.673  10.989   4.862 -0.1927  0.0632 -0.1194
  698POPI   PO410750  11.382  11.407   5.197 -0.1049 -0.2988 -0.2376
  698POPI   GL110751  11.210  11.577   5.636  0.0362 -0.3072 -0.0915
  698POPI   GL210752  11.392  11.292   5.688  0.0623 -0.2021 -0.1030
  698POPI   C1A10753  11.301  11.499   6.238 -0.0091 -0.1994  0.0430
  698POPI   D2A10754  11.128  11.535   6.672  0.3723  0.0847 -0.2680
  698POPI   C3A10755  10.988  12.009   6.747 -0.1778 -0.0201  0.0359
  698POPI   C4A10756  10.983  12.379   6.514  0.3024 -0.2679  0.0426
  698POPI   C1B10757  11.251  11.038   6.017  0.0369  0.0829  0.1221
  698POPI   C2B10758  11.276  10.837   6.403  0.1689 -0.0635  0.0026
  698POPI   C3B10759  11.233  10.505   6.617  0.0950  0.2062  0.0763
  698POPI   C4B10760  11.093  10.227   6.912 -0.0181  0.1694 -0.1811
  699POPI    C110761  16.293   5.304   5.076 -0.1178 -0.1680  0.3066
  699POPI    C210762  15.965   5.074   5.083 -0.2973  0.0791  0.1601
  699POPI    C310763  15.930   5.473   5.086 -0.0109  0.1122 -0.2075
  699POPI   PO410764  16.456   5.131   5.324 -0.2801  0.0610  0.0171
  699POPI   GL110765  16.429   5.046   5.757 -0.0279 -0.2278 -0.0314
  699POPI   GL210766  16.220   4.689   5.822 -0.0513  0.0952  0.2936
  699POPI   C1A10767  16.410   5.513   6.109 -0.2542  0.0640  0.2310
  699POPI   D2A10768  16.423   5.696   6.616 -0.1633 -0.1513 -0.2508
  699POPI   C3A10769  16.515   5.509   7.052  0.2422 -0.1380  0.0099
  699POPI   C4A10770  16.337   5.529   7.462  0.0584 -0.0101  0.0568
  699POPI   C1B10771  16.362   4.552   6.126 -0.3384 -0.0160  0.0218
  699POPI   C2B10772  16.293   4.683   6.559  0.0475 -0.1566  0.3206
  699POPI   C3B10773  16.135   4.603   6.913 -0.0296 -0.0664 -0.1367
  699POPI   C4B10774  16.251   4.383   7.372 -0.0886  0.0074  0.2370
  700POPI    C110775  17.701   1.696   5.226 -0.0064 -0.1559 -0.2283
  700POPI    C210776  17.665   1.997   4.965 -0.1420  0.0786  0.0556
  700POPI    C310777  17.432   1.674   4.930 -0.0319  0.0266 -0.2201
  700POPI   PO410778  17.808   1.760   5.536  0.1283  0.0132 -0.2496
  700POPI   GL110779  17.698   1.529   5.864 -0.1337  0.0032 -0.1039
  700POPI   GL210780  17.856   1.690   6.039  0.3781  0.1524 -0.1688
  700POPI   C1A10781  17.275   1.452   6.073 -0.2679 -0.0743 -0.2070
  700POPI   D2A10782  17.132   1.656   6.410 -0.3846  0.2478  0.0082
  700POPI   C3A10783  16.811   1.774   6.490 -0.0607  0.0014  0.2404
  700POPI   C4A10784  16.462   2.087   6.385  0.2817 -0.0114 -0.1923
  700POPI   C1B10785  17.607   1.839   6.327 -0.0947 -0.0284  0.2377
  700POPI   C2B10786  17.524   1.856   6.739  0.3611 -0.2485 -0.1591
  700POPI   C3B10787  17.180   1.735   6.975 -0.2029 -0.0231 -0.1256
  700POPI   C4B10788  16.690   1.714   6.927  0.2936 -0.0572 -0.2402
  701POPI    C110789  16.762   1.080   5.164  0.0641  0.2666  0.0076
  701POPI    C210790  16.982   1.125   4.834  0.0042  0.2137 -0.0395
  701POPI    C310791  16.583   1.135   4.811 -0.0090 -0.1561 -0.0263
  701POPI   PO410792  16.884   1.188   5.419 -0.1267  0.2515  0.1927
  701POPI   GL110793  16.966   1.187   5.747  0.0552 -0.1597 -0.0285
  701POPI   GL210794  16.829   0.928   5.936 -0.1059 -0.1919 -0.3049
  701POPI   C1A10795  16.756   1.480   6.010 -0.0021 -0.1238 -0.5438
  701POPI   D2A10796  16.252   1.571   6.207  0.0333 -0.2228 -0.0500
  701POPI   C3A10797  16.210   1.569   6.648  0.0771 -0.1687  0.0281
  701POPI   C4A10798  16.282   1.512   7.082 -0.0737 -0.2801 -0.0630
  701POPI   C1B10799  16.978   1.107   6.294  0.0535 -0.3044 -0.0637
  701POPI   C2B10800  16.883   1.285   6.728 -0.1241 -0.1607  0.0504
  701POPI   C3B10801  16.803   1.328   7.186 -0.1344 -0.1805  0.0144
  701POPI   C4B10802  16.604   1.496   7.477 -0.2295 -0.0962  0.2136
  702POPI    C110803   0.114   6.391   5.909  0.1729  0.1065  0.0056
  702POPI    C210804  -0.283   6.404   5.860  0.1877  0.0677 -0.1292
  702POPI    C310805  -0.043   6.583   5.596  0.2580  0.1554 -0.0071
  702POPI   PO410806   0.146   6.103   5.949  0.2297  0.1204 -0.0937
  702POPI   GL110807   0.411   5.934   6.193 -0.1874  0.0314 -0.1790
  702POPI   GL210808   0.607   5.678   6.102 -0.1378  0.0420  0.0725
  702POPI   C1A10809   0.294   5.855   6.525 -0.1911  0.2257 -0.0543
  702POPI   D2A10810   0.239   6.068   6.921 -0.3383  0.2103  0.1996
  702POPI   C3A10811   0.158   5.814   7.284  0.2747 -0.2720  0.4005
  702POPI   C4A10812   0.269   5.592   7.744 -0.0488 -0.0054  0.2836
  702POPI   C1B10813   0.567   5.395   6.466  0.0271  0.4008 -0.0258
  702POPI   C2B10814   0.495   5.585   6.926  0.0862  0.2666  0.1607
  702POPI   C3B10815   0.668   5.682   7.330  0.0958  0.1814 -0.0045
  702POPI   C4B10816   1.039   5.477   7.577  0.0743 -0.0461 -0.1130
  703POPI    C110817   9.869  13.929   4.867  0.0605  0.1189 -0.0587
  703POPI    C210818  10.033  13.665   4.615  0.0821 -0.0209  0.1007
  703POPI    C310819   9.774  13.937   4.478  0.2752  0.0581 -0.1139
  703POPI   PO410820   9.779  13.806   5.061  0.1426 -0.1127 -0.3186
  703POPI   GL110821   9.758  13.904   5.491  0.0996  0.1834 -0.2871
  703POPI   GL210822   9.349  14.105   5.370 -0.1779 -0.0215  0.3214
  703POPI   C1A10823  10.128  14.041   5.756 -0.0857  0.0664 -0.1920
  703POPI   D2A10824  10.481  14.103   5.902 -0.2742  0.1346 -0.0196
  703POPI   C3A10825  10.424  14.134   6.288 -0.0122 -0.0473 -0.1761
  703POPI   C4A10826  10.718  14.291   6.623  0.0043  0.1722  0.2519
  703POPI   C1B10827   9.529  14.284   5.793  0.1182  0.3781  0.2477
  703POPI   C2B10828   9.591  14.718   5.884 -0.4243 -0.0754 -0.1483
  703POPI   C3B10829   9.546  14.735   6.285  0.0780 -0.4418  0.2328
  703POPI   C4B10830   9.806  14.590   6.514  0.1240  0.2728 -0.1319
  704POPI    C110831   9.015  11.322   5.155  0.2783  0.0676  0.1987
  704POPI    C210832   9.231  11.028   4.992  0.3030  0.1660  0.0514
  704POPI    C310833   9.114  11.337   4.768 -0.0262  0.0941  0.1190
  704POPI   PO410834   9.150  11.353   5.418 -0.0706 -0.1318 -0.1906
  704POPI   GL110835   8.967  11.621   5.694 -0.0865  0.1620  0.4334
  704POPI   GL210836   8.865  11.301   5.836  0.2582  0.1247 -0.0934
  704POPI   C1A10837   8.586  11.834   5.933  0.0063 -0.0157  0.1059
  704POPI   D2A10838   8.132  11.820   6.012 -0.1762 -0.0545 -0.2300
  704POPI   C3A10839   8.110  11.851   6.340 -0.0988 -0.1374 -0.1758
  704POPI   C4A10840   8.016  11.810   6.717  0.1641 -0.3698  0.0402
  704POPI   C1B10841   8.946  11.418   6.231  0.0750  0.0604 -0.3698
  704POPI   C2B10842   9.042  11.502   6.679  0.0616 -0.0330  0.0471
  704POPI   C3B10843   9.166  11.668   7.058  0.1321  0.2916  0.3708
  704POPI   C4B10844   9.381  11.659   7.420  0.0005  0.2785  0.3202
  705POPI    C110845  14.203   4.909   5.699  0.3383 -0.0871 -0.1279
  705POPI    C210846  14.301   4.825   5.320  0.0661 -0.1579 -0.1851
  705POPI    C310847  13.925   4.928   5.411  0.1982  0.1602  0.0195
  705POPI   PO410848  14.385   4.729   5.812 -0.1205  0.1374 -0.1442
  705POPI   GL110849  14.246   4.433   6.065 -0.2905 -0.1385 -0.4189
  705POPI   GL210850  14.033   4.127   6.090 -0.1022  0.4721  0.0304
  705POPI   C1A10851  14.410   4.521   6.511 -0.3443  0.1715 -0.4237
  705POPI   D2A10852  14.426   4.692   6.862  0.3099  0.1684  0.1987
  705POPI   C3A10853  14.247   4.729   7.206 -0.0868 -0.0558  0.1039
  705POPI   C4A10854  14.182   4.975   7.590 -0.2429  0.2491  0.1628
  705POPI   C1B10855  13.974   4.345   6.429 -0.0447 -0.1027  0.2433
  705POPI   C2B10856  13.980   4.517   6.740  0.0934  0.0520  0.1436
  705POPI   C3B10857  13.891   4.364   7.144  0.0349  0.0149 -0.0587
  705POPI   C4B10858  13.731   4.445   7.483  0.1272 -0.2845 -0.1670
  706POPI    C110859   0.595  18.910   5.548 -0.0929 -0.2957  0.0895
  706POPI    C210860   0.859  19.120   5.333 -0.0800 -0.1718  0.2255
  706POPI    C310861   0.470  19.210   5.315 -0.1217 -0.3903 -0.0180
  706POPI   PO410862   0.616  18.892   5.710  0.0325 -0.0178  0.2497
  706POPI   GL110863   0.512  18.993   6.071  0.1061  0.0795 -0.0544
  706POPI   GL210864   0.804  19.184   6.232 -0.2295 -0.0688  0.1409
  706POPI   C1A10865   0.599  18.683   6.492  0.0454  0.3132 -0.0860
  706POPI   D2A10866   0.748  18.739   6.906 -0.1031  0.1682 -0.2347
  706POPI   C3A10867   0.554  18.505   7.212  0.0134 -0.1390 -0.1705
  706POPI   C4A10868   0.667  18.406   7.631 -0.0162  0.0361  0.0298
  706POPI   C1B10869   1.250  19.306   6.417  0.0246 -0.2711 -0.1297
  706POPI   C2B10870   1.508  19.578   6.463 -0.1661  0.3377  0.0090
  706POPI   C3B10871   1.905  19.660   6.797  0.4094 -0.1044  0.0531
  706POPI   C4B10872   2.290  19.610   6.551 -0.0716  0.2274  0.3323
  707POPI    C110873  12.175   1.727   5.174  0.2026 -0.4579  0.0252
  707POPI    C210874  12.513   1.811   4.978  0.0929 -0.1078 -0.0221
  707POPI    C310875  12.184   1.710   4.774  0.0574 -0.0342 -0.0018
  707POPI   PO410876  12.301   1.886   5.477 -0.0619  0.0141  0.1573
  707POPI   GL110877  12.623   1.927   5.831  0.2998 -0.0829 -0.1396
  707POPI   GL210878  12.949   1.742   5.940  0.1013  0.4054  0.0379
  707POPI   C1A10879  12.517   1.725   6.238 -0.1436  0.2815  0.2572
  707POPI   D2A10880  12.486   1.719   6.642 -0.1549 -0.1259 -0.0069
  707POPI   C3A10881  12.653   1.852   6.949  0.1111  0.0843  0.1904
  707POPI   C4A10882  12.666   1.994   7.374  0.1851 -0.2553 -0.0682
  707POPI   C1B10883  12.982   1.506   6.410 -0.1611 -0.0230  0.4310
  707POPI   C2B10884  13.052   1.403   6.871 -0.1144  0.0105 -0.0930
  707POPI   C3B10885  13.136   1.443   7.336 -0.1061 -0.1256 -0.0439
  707POPI   C4B10886  13.328   1.282   7.664 -0.2310  0.1853 -0.1286
  708POPI    C110887  10.922  14.528   5.078  0.0868 -0.0944  0.2730
  708POPI    C210888  10.742  14.829   4.887  0.4055 -0.0561  0.0241
  708POPI    C310889  10.552  14.480   4.933  0.2049  0.0366 -0.0833
  708POPI   PO410890  11.003  14.554   5.328 -0.1014  0.0943 -0.2565
  708POPI   GL110891  11.365  14.488   5.672  0.0709 -0.0701  0.0827
  708POPI   GL210892  11.297  14.824   5.585 -0.0398 -0.3333 -0.1359
  708POPI   C1A10893  11.626  14.568   6.087  0.1396  0.4241 -0.0290
  708POPI   D2A10894  11.638  14.455   6.456  0.0462 -0.2519 -0.1798
  708POPI   C3A10895  11.259  14.256   6.690  0.1092  0.0486 -0.2312
  708POPI   C4A10896  11.005  14.289   7.108  0.0493 -0.0818 -0.0455
  708POPI   C1B10897  11.132  14.813   5.946 -0.1735 -0.2225 -0.2197
  708POPI   C2B10898  10.930  15.105   6.147 -0.0215 -0.0147  0.3285
  708POPI   C3B10899  10.778  15.194   6.496  0.0794 -0.3405 -0.0339
  708POPI   C4B10900  11.007  15.254   6.899  0.0587  0.2519 -0.1927
  709POPI    C110901   0.572  13.683   5.636 -0.0813  0.0819  0.3291
  709POPI    C210902   0.630  14.031   5.446  0.1432 -0.0895  0.0763
  709POPI    C310903   0.910  13.745   5.432 -0.1608 -0.3921  0.0372
  709POPI   PO410904   0.386  13.747   5.843  0.0073 -0.1096 -0.0004
  709POPI   GL110905   0.335  13.605   6.218  0.2298  0.0108  0.2265
  709POPI   GL210906   0.145  13.833   6.435 -0.0704  0.0887  0.2752
  709POPI   C1A10907   0.635  13.624   6.581 -0.0760 -0.1734  0.1123
  709POPI   D2A10908   0.826  13.507   6.830  0.0516 -0.0168  0.0271
  709POPI   C3A10909   0.926  13.587   7.223 -0.1452 -0.2549 -0.1586
  709POPI   C4A10910   1.388  13.620   7.268  0.0064 -0.2203 -0.0228
  709POPI   C1B10911   0.200  13.863   6.833  0.0087 -0.3102  0.2281
  709POPI   C2B10912  -0.154  13.915   7.150 -0.5386 -0.3145  0.0791
  709POPI   C3B10913  -0.255  13.918   7.596 -0.1557  0.1997  0.2276
  709POPI   C4B10914  -0.070  13.562   7.822  0.3412 -0.2038 -0.3569
  710POPI    C110915  14.134   7.089   5.078  0.0737  0.0547 -0.3209
  710POPI    C210916  13.767   6.931   5.089  0.0830  0.0499  0.0083
  710POPI    C310917  13.833   7.270   4.887 -0.1616  0.1972  0.1698
  710POPI   PO410918  14.210   6.988   5.392  0.1035  0.0651  0.1783
  710POPI   GL110919  14.300   6.844   5.802  0.1675  0.4170 -0.5154
  710POPI   GL210920  14.390   7.158   5.905 -0.0640 -0.1672 -0.1342
  710POPI   C1A10921  13.941   6.764   6.088  0.0825  0.0509 -0.3109
  710POPI   D2A10922  13.863   6.551   6.493  0.1023  0.0164  0.3117
  710POPI   C3A10923  13.938   6.274   6.952 -0.0291 -0.2126 -0.2279
  710POPI   C4A10924  14.169   5.840   6.964 -0.0469 -0.0546 -0.2029
  710POPI   C1B10925  14.487   7.065   6.339  0.0995 -0.1454  0.1587
  710POPI   C2B10926  14.518   7.101   6.701 -0.3136  0.2843  0.0499
  710POPI   C3B10927  14.445   7.264   7.143 -0.2024  0.1822  0.1784
  710POPI   C4B10928  14.362   7.168   7.555 -0.0609 -0.4034 -0.2762
  711POPI    C110929   5.085  16.744   5.396  0.1747  0.0423  0.0933
  711POPI    C210930   5.421  16.830   5.197  0.0166  0.1331 -0.1386
  711POPI    C310931   5.083  17.026   5.113 -0.1569 -0.1403 -0.0931
  711POPI   PO410932   5.175  16.750   5.628  0.0116  0.3977 -0.0552
  711POPI   GL110933   5.314  16.743   5.978  0.0239 -0.1415 -0.0750
  711POPI   GL210934   5.394  17.031   5.977 -0.2448  0.2560 -0.0589
  711POPI   C1A10935   5.308  16.642   6.544  0.0882 -0.0854  0.0494
  711POPI   D2A10936   5.538  16.659   6.912 -0.0987 -0.1654  0.0804
  711POPI   C3A10937   5.397  16.755   7.301  0.1531  0.0400 -0.1221
  711POPI   C4A10938   5.502  16.894   7.673  0.2076 -0.4055  0.3668
  711POPI   C1B10939   5.123  17.090   6.384  0.0510 -0.1566 -0.0128
  711POPI   C2B10940   5.210  17.049   6.905  0.1396  0.0236 -0.2114
  711POPI   C3B10941   5.459  17.239   7.214  0.4344  0.0479 -0.0847
  711POPI   C4B10942   5.644  17.341   7.451  0.0455  0.2170 -0.3000
  712POPI    C110943  16.160   9.791   5.124 -0.0454  0.0260  0.0645
  712POPI    C210944  16.446   9.532   5.019  0.0112  0.0294  0.2074
  712POPI    C310945  16.456   9.907   4.880 -0.1031 -0.0592 -0.0463
  712POPI   PO410946  16.206   9.791   5.374 -0.1805 -0.0573 -0.0185
  712POPI   GL110947  16.194   9.720   5.875 -0.3607 -0.0689 -0.1215
  712POPI   GL210948  16.366   9.923   5.844  0.3848  0.0931 -0.0347
  712POPI   C1A10949  16.174   9.632   6.234 -0.1894  0.1718  0.0703
  712POPI   D2A10950  16.134   9.526   6.703 -0.0266 -0.1690 -0.0847
  712POPI   C3A10951  16.322   9.172   6.893 -0.0225  0.0905 -0.2692
  712POPI   C4A10952  16.719   9.140   6.944 -0.2712 -0.1314  0.1883
  712POPI   C1B10953  16.480  10.068   6.277  0.1411  0.0258 -0.0151
  712POPI   C2B10954  16.350  10.349   6.534 -0.3968 -0.0310 -0.0748
  712POPI   C3B10955  16.356  10.722   6.715  0.0877 -0.0771  0.0202
  712POPI   C4B10956  16.362  11.065   7.068  0.1205 -0.1100 -0.0601
  713POPI    C110957  12.679  18.984   5.095 -0.0728 -0.1255  0.0874
  713POPI    C210958  12.333  18.909   4.910  0.0550 -0.0083 -0.2060
  713POPI    C310959  12.668  18.730   4.786  0.1240 -0.0154 -0.0124
  713POPI   PO410960  12.648  18.935   5.293 -0.0577 -0.2511 -0.1458
  713POPI   GL110961  12.785  18.691   5.643 -0.1025 -0.1115 -0.4479
  713POPI   GL210962  12.508  18.629   5.669  0.0677 -0.1605 -0.2567
  713POPI   C1A10963  13.115  18.705   5.889  0.0232 -0.1115  0.2715
  713POPI   D2A10964  13.350  18.891   6.206  0.1895 -0.2952 -0.2514
  713POPI   C3A10965  13.222  18.754   6.714 -0.0696 -0.0260 -0.2879
  713POPI   C4A10966  13.096  18.599   7.188  0.0356 -0.0327 -0.0980
  713POPI   C1B10967  12.375  18.720   6.124  0.2653  0.0971  0.2749
  713POPI   C2B10968  12.287  18.896   6.504 -0.0468  0.2994  0.0113
  713POPI   C3B10969  12.414  19.084   6.879  0.5343  0.0569 -0.1375
  713POPI   C4B10970  12.152  19.437   7.157 -0.3485 -0.0667 -0.0779
  714POPI    C110971   1.902   3.175   5.408  0.0636  0.0965  0.0935
  714POPI    C210972   1.830   3.049   5.035  0.0202  0.1586  0.0809
  714POPI    C310973   1.957   3.423   5.099 -0.2868  0.2540  0.1530
  714POPI   PO410974   2.047   2.931   5.554  0.2830 -0.1161 -0.0039
  714POPI   GL110975   2.216   2.644   5.960  0.3269  0.0838  0.1936
  714POPI   GL210976   2.244   2.311   5.915 -0.1742 -0.2915 -0.0195
  714POPI   C1A10977   2.137   2.445   6.344  0.0265  0.0765  0.0273
  714POPI   D2A10978   2.009   2.241   6.792 -0.1241 -0.3032 -0.0144
  714POPI   C3A10979   1.612   2.050   6.983  0.0279  0.0343 -0.0423
  714POPI   C4A10980   1.559   1.601   7.068  0.2463  0.1413  0.1711
  714POPI   C1B10981   2.245   1.963   6.269  0.1589 -0.4350  0.3400
  714POPI   C2B10982   2.181   1.524   6.453 -0.0157 -0.3330 -0.0581
  714POPI   C3B10983   2.125   1.226   6.919  0.1157 -0.0178  0.2304
  714POPI   C4B10984   2.387   1.165   7.186  0.0568 -0.1771 -0.1270
  715POPI    C110985   1.683   9.865   5.032  0.0019 -0.1821 -0.2595
  715POPI    C210986   1.916   9.716   4.743  0.2550  0.0721 -0.1911
  715POPI    C310987   1.661  10.014   4.661  0.5008  0.3104 -0.1059
  715POPI   PO410988   1.555   9.667   5.225 -0.0274 -0.0834  0.2761
  715POPI   GL110989   1.707   9.704   5.565  0.2268  0.3932 -0.1145
  715POPI   GL210990   1.848   9.966   5.710 -0.4396  0.0351  0.1367
  715POPI   C1A10991   1.588   9.545   5.963  0.1352  0.0633  0.5593
  715POPI   D2A10992   1.487   9.665   6.383  0.2317 -0.2191 -0.0105
  715POPI   C3A10993   1.791   9.870   6.674  0.0358 -0.2517  0.0161
  715POPI   C4A10994   2.076   9.833   6.906 -0.0361 -0.3190  0.1354
  715POPI   C1B10995   1.955   9.844   6.182 -0.0383  0.2883 -0.0980
  715POPI   C2B10996   1.926   9.447   6.319  0.0958  0.4060  0.0548
  715POPI   C3B10997   1.886   9.392   6.720  0.1121  0.0328  0.0693
  715POPI   C4B10998   1.768   9.471   7.075  0.0362  0.1288  0.0050
  716POPI    C110999  16.201  16.392   5.784  0.3639  0.1294  0.0245
  716POPI    C211000  16.208  16.737   5.987 -0.1268  0.1594  0.0013
  716POPI    C311001  16.233  16.739   5.588 -0.3830  0.1903 -0.0162
  716POPI   PO411002  16.003  16.254   5.954 -0.1547  0.1618 -0.1420
  716POPI   GL111003  15.808  16.031   6.338  0.0974 -0.3052 -0.0355
  716POPI   GL211004  16.057  15.815   6.248 -0.0871  0.1965  0.0822
  716POPI   C1A11005  15.985  16.109   6.760  0.1327  0.3102  0.2288
  716POPI   D2A11006  16.297  16.114   6.959  0.3587  0.3432  0.0620
  716POPI   C3A11007  16.444  15.784   7.177  0.4201 -0.3557  0.1533
  716POPI   C4A11008  16.604  15.639   7.573  0.1251 -0.1285  0.1798
  716POPI   C1B11009  16.115  15.668   6.565  0.1026 -0.1084 -0.1961
  716POPI   C2B11010  16.007  15.654   6.953 -0.0791 -0.0997 -0.2390
  716POPI   C3B11011  15.802  15.543   7.346 -0.0828 -0.0143 -0.0746
  716POPI   C4B11012  15.606  15.666   7.691 -0.0831 -0.0274  0.0140
  717POPI    C111013  10.710   7.885   5.514 -0.0582 -0.1334  0.1948
  717POPI    C211014  10.753   7.863   5.117 -0.1651  0.0603  0.1713
  717POPI    C311015  10.847   7.549   5.346 -0.0408 -0.0298 -0.0010
  717POPI   PO411016  10.722   8.137   5.534  0.0619 -0.0117  0.0842
  717POPI   GL111017  10.569   8.153   5.977 -0.1441 -0.3662 -0.1417
  717POPI   GL211018  10.529   8.409   6.127 -0.1327  0.2879  0.1686
  717POPI   C1A11019  10.490   8.016   6.466 -0.0901 -0.1161 -0.1591
  717POPI   D2A11020  10.428   7.896   7.013 -0.0842 -0.1034 -0.0842
  717POPI   C3A11021  10.110   8.080   7.181  0.2508  0.2813  0.1067
  717POPI   C4A11022  10.012   8.284   7.484  0.1286 -0.0381 -0.0102
  717POPI   C1B11023  10.821   8.471   6.428  0.2225  0.0781  0.2029
  717POPI   C2B11024  10.703   8.374   6.854 -0.0007  0.0890  0.0528
  717POPI   C3B11025  10.825   8.227   7.158  0.1956  0.1809 -0.0318
  717POPI   C4B11026  11.233   8.056   7.202  0.0259  0.2232 -0.1200
  718POPI    C111027  11.588   1.356   4.857 -0.0414  0.1440  0.1096
  718POPI    C211028  11.269   1.493   4.658 -0.1388 -0.0341  0.1411
  718POPI    C311029  11.238   1.165   4.886  0.0840 -0.0937  0.0883
  718POPI   PO411030  11.723   1.627   5.054 -0.1324  0.0545  0.5454
  718POPI   GL111031  11.816   1.905   5.526  0.0677 -0.0975  0.0428
  718POPI   GL211032  11.844   1.876   5.870  0.2472  0.1309 -0.0781
  718POPI   C1A11033  11.525   2.178   5.641  0.3417  0.0598 -0.0380
  718POPI   D2A11034  11.353   2.501   5.793 -0.0565  0.0618  0.1035
  718POPI   C3A11035  11.406   2.693   6.119 -0.0501 -0.0153 -0.1328
  718POPI   C4A11036  11.422   2.644   6.540 -0.2107  0.0055  0.0100
  718POPI   C1B11037  12.071   1.954   6.283 -0.0680 -0.0958  0.0268
  718POPI   C2B11038  12.343   2.212   6.604  0.2112  0.1954 -0.2433
  718POPI   C3B11039  12.596   2.420   7.010  0.1412 -0.1625  0.1913
  718POPI   C4B11040  12.424   2.492   7.400 -0.1771 -0.0172  0.1923
  719POPI    C111041  18.172   4.919   5.208  0.0663 -0.0206 -0.1202
  719POPI    C211042  17.819   5.093   5.138  0.0439 -0.0060  0.0262
  719POPI    C311043  18.146   5.317   5.183  0.0857 -0.0230 -0.1810
  719POPI   PO411044  18.146   4.774   5.474  0.0027 -0.2539 -0.4020
  719POPI   GL111045  18.349   4.622   5.791  0.1350 -0.1945  0.1616
  719POPI   GL211046  18.559   4.784   5.963  0.1125 -0.1436  0.0170
  719POPI   C1A11047  18.285   4.476   6.195 -0.3223  0.0308 -0.0330
  719POPI   D2A11048  18.456   4.403   6.586  0.0617 -0.0194  0.1677
  719POPI   C3A11049  18.196   4.292   7.007  0.0241 -0.0021  0.1179
  719POPI   C4A11050  17.998   4.109   7.279  0.0448 -0.1086 -0.2386
  719POPI   C1B11051  18.690   5.136   6.220 -0.1137  0.1263 -0.0941
  719POPI   C2B11052  18.675   5.250   6.615  0.0159  0.4044 -0.0828
  719POPI   C3B11053  18.404   5.613   6.867 -0.1272  0.2476  0.1896
  719POPI   C4B11054  18.213   5.980   6.946  0.1944  0.0351  0.1448
  720POPI    C111055   3.091  16.470   5.415  0.0244 -0.2164 -0.1501
  720POPI    C211056   2.719  16.423   5.276 -0.0194  0.0055 -0.1124
  720POPI    C311057   2.966  16.683   5.100 -0.0036  0.1287  0.0891
  720POPI   PO411058   3.090  16.236   5.494 -0.3700  0.2620  0.1572
  720POPI   GL111059   3.180  16.137   5.856  0.0069 -0.2668 -0.0469
  720POPI   GL211060   2.882  15.798   5.856 -0.0712 -0.2547 -0.0304
  720POPI   C1A11061   3.441  16.069   6.183  0.0323 -0.2388 -0.1605
  720POPI   D2A11062   3.386  16.299   6.573 -0.2953 -0.0118 -0.0625
  720POPI   C3A11063   3.578  16.500   6.725  0.0167  0.0737  0.2820
  720POPI   C4A11064   3.979  16.520   6.797  0.1382 -0.0247 -0.0122
  720POPI   C1B11065   2.973  15.999   6.330 -0.0558 -0.0228 -0.2662
  720POPI   C2B11066   2.934  16.366   6.534 -0.1003 -0.3436 -0.1928
  720POPI   C3B11067   2.896  16.485   6.935  0.2965 -0.3287  0.0141
  720POPI   C4B11068   3.068  16.403   7.374  0.0682 -0.2151 -0.0183
  721POPS   CNO11069   0.205   9.836   4.701 -0.1714 -0.0430 -0.5187
  721POPS   PO411070   0.038   9.850   5.178  0.0224 -0.1844  0.2221
  721POPS   GL111071   0.119   9.851   5.609 -0.0307 -0.2553 -0.1161
  721POPS   GL211072   0.324  10.018   5.836  0.0687 -0.0289 -0.0299
  721POPS   C1A11073  -0.237   9.829   5.799 -0.0151 -0.1420  0.0129
  721POPS   D2A11074  -0.574   9.817   5.965  0.2595  0.1116 -0.0892
  721POPS   C3A11075  -0.639   9.450   6.279 -0.2621  0.0449  0.0370
  721POPS   C4A11076  -0.775   9.086   6.405  0.1824 -0.2420 -0.0417
  721POPS   C1B11077   0.062   9.953   6.149  0.3024 -0.0724  0.1568
  721POPS   C2B11078  -0.199   9.973   6.469  0.1518  0.1733 -0.0792
  721POPS   C3B11079  -0.561   9.758   6.703 -0.1539  0.1622 -0.1363
  721POPS   C4B11080  -0.786   9.535   6.870 -0.1309 -0.0140 -0.0475
  722POPS   CNO11081  17.540  10.498   5.400  0.0725 -0.1622  0.0301
  722POPS   PO411082  17.500  10.457   5.700 -0.1421  0.1580  0.0692
  722POPS   GL111083  17.298  10.092   5.975  0.5051 -0.1122  0.0136
  722POPS   GL211084  17.521   9.776   5.972  0.3044 -0.0862  0.0775
  722POPS   C1A11085  17.034   9.936   6.348  0.1364  0.0150 -0.0680
  722POPS   D2A11086  17.012   9.631   6.743 -0.2284 -0.2078  0.1691
  722POPS   C3A11087  17.392   9.422   6.913  0.4551 -0.4739  0.2128
  722POPS   C4A11088  17.626   9.557   7.372  0.0069 -0.1854  0.1362
  722POPS   C1B11089  17.812   9.507   6.178  0.0628  0.0413  0.2229
  722POPS   C2B11090  17.814   9.261   6.616  0.0561 -0.0257 -0.0325
  722POPS   C3B11091  17.856   9.185   6.968 -0.4933  0.0529  0.0094
  722POPS   C4B11092  17.798   8.746   7.154 -0.2590  0.2514  0.4253
  723POPS   CNO11093  10.830   7.005   5.419  0.1033 -0.0789 -0.2100
  723POPS   PO411094  10.884   6.551   5.378 -0.1562 -0.1109 -0.1370
  723POPS   GL111095  10.910   6.640   5.824  0.1423  0.3726 -0.1598
  723POPS   GL211096  10.670   6.583   6.073  0.1107 -0.1170  0.0844
  723POPS   C1A11097  11.124   6.486   6.164 -0.1514  0.1871 -0.0340
  723POPS   D2A11098  11.247   6.576   6.530 -0.2797 -0.3351  0.0195
  723POPS   C3A11099  11.097   6.507   6.927  0.3530  0.0153  0.0255
  723POPS   C4A11100  10.751   6.497   7.299  0.1785  0.1207 -0.3189
  723POPS   C1B11101  10.710   6.468   6.446  0.2512  0.0095 -0.2684
  723POPS   C2B11102  10.567   6.521   6.861 -0.0679 -0.2079  0.2335
  723POPS   C3B11103  10.160   6.541   7.032  0.0049 -0.1257  0.0264
  723POPS   C4B11104  10.093   6.467   7.482  0.0407 -0.1694  0.0042
  724POPS   CNO11105  14.343   1.581   5.140  0.1912 -0.0999 -0.0748
  724POPS   PO411106  13.933   1.663   5.430 -0.1109  0.0546  0.1756
  724POPS   GL111107  13.856   2.028   5.704 -0.0150  0.2965 -0.0180
  724POPS   GL211108  14.109   2.152   5.842 -0.0138  0.0621 -0.3348
  724POPS   C1A11109  13.595   2.225   6.021 -0.1354 -0.3208  0.0022
  724POPS   D2A11110  13.392   2.205   6.484 -0.1159  0.0056 -0.0979
  724POPS   C3A11111  13.377   1.725   6.591  0.0659 -0.0239  0.3143
  724POPS   C4A11112  13.556   1.420   6.791 -0.2190  0.1813 -0.2924
  724POPS   C1B11113  14.077   2.079   6.166  0.2416 -0.0596 -0.4266
  724POPS   C2B11114  13.861   2.220   6.527 -0.3004  0.1077 -0.4747
  724POPS   C3B11115  13.814   2.280   6.960 -0.2273 -0.0149  0.0937
  724POPS   C4B11116  13.585   2.224   7.364 -0.2556  0.3204  0.0611
  725POPS   CNO11117   4.318   6.945   5.231 -0.0767  0.0865 -0.2582
  725POPS   PO411118   4.039   6.917   5.672 -0.1159 -0.0770 -0.0843
  725POPS   GL111119   4.175   7.021   6.088 -0.2550  0.0960  0.4758
  725POPS   GL211120   4.357   6.741   6.129 -0.3477  0.2158  0.3042
  725POPS   C1A11121   4.010   7.053   6.493 -0.0501 -0.0269  0.0315
  725POPS   D2A11122   4.180   6.878   6.920 -0.0649  0.0173  0.5182
  725POPS   C3A11123   4.332   7.022   7.340 -0.5066  0.2447 -0.3225
  725POPS   C4A11124   4.363   6.908   7.716 -0.2698 -0.0877  0.0920
  725POPS   C1B11125   4.504   6.955   6.467  0.3007  0.2066 -0.1543
  725POPS   C2B11126   4.581   7.056   6.840 -0.2919 -0.1154 -0.7679
  725POPS   C3B11127   4.581   7.353   7.080 -0.3961 -0.2244 -0.0836
  725POPS   C4B11128   4.584   7.815   7.200  0.0827  0.0463 -0.0736
  726POPS   CNO11129  16.054   7.531   4.934 -0.3002 -0.0888  0.0115
  726POPS   PO411130  16.130   7.227   5.304 -0.0132 -0.4262 -0.0447
  726POPS   GL111131  16.241   7.265   5.724 -0.0063 -0.0339 -0.0518
  726POPS   GL211132  16.445   7.532   5.671  0.0639  0.0972 -0.0110
  726POPS   C1A11133  16.385   7.216   6.096  0.1292 -0.1795 -0.2820
  726POPS   D2A11134  16.400   7.273   6.582  0.2458 -0.2559  0.1604
  726POPS   C3A11135  16.067   7.433   6.770  0.2765 -0.2769 -0.0835
  726POPS   C4A11136  15.831   7.784   6.799 -0.0530 -0.4588 -0.0726
  726POPS   C1B11137  16.749   7.637   6.047  0.1050 -0.0393  0.0314
  726POPS   C2B11138  17.036   7.937   6.340  0.0453 -0.0776 -0.1019
  726POPS   C3B11139  17.132   8.250   6.649  0.0963  0.2111  0.0669
  726POPS   C4B11140  17.012   8.296   6.971  0.0325  0.0965 -0.0593
  727POPS   CNO11141  13.006   6.098   5.754  0.1500  0.0516 -0.3684
  727POPS   PO411142  12.557   6.236   5.500  0.0812  0.0598 -0.2639
  727POPS   GL111143  12.485   6.193   5.983  0.1048 -0.0428  0.1146
  727POPS   GL211144  12.158   5.993   6.019 -0.0806  0.0463 -0.0499
  727POPS   C1A11145  12.375   5.924   6.491  0.1018  0.0676  0.0996
  727POPS   D2A11146  12.312   5.743   7.004  0.3971  0.0848  0.3209
  727POPS   C3A11147  12.481   5.834   7.270 -0.5058  0.1070 -0.0141
  727POPS   C4A11148  12.889   6.020   7.461  0.1801  0.2074  0.2190
  727POPS   C1B11149  11.869   5.979   6.302 -0.3573  0.0861  0.1933
  727POPS   C2B11150  11.876   5.832   6.644  0.0581  0.1278  0.1061
  727POPS   C3B11151  11.775   5.826   7.005  0.5086 -0.0672 -0.3931
  727POPS   C4B11152  11.973   5.787   7.418  0.0273  0.2621  0.0831
  728POPS   CNO11153  16.407   1.926   5.390  0.2622 -0.2142 -0.2820
  728POPS   PO411154  16.432   2.329   5.433  0.3743  0.0465 -0.1445
  728POPS   GL111155  16.391   2.394   5.775  0.4318  0.3642  0.0953
  728POPS   GL211156  16.637   2.524   5.837  0.1291  0.2278 -0.0384
  728POPS   C1A11157  16.276   2.542   6.218  0.1728 -0.1973 -0.2227
  728POPS   D2A11158  16.202   2.490   6.598 -0.1479 -0.2396 -0.0794
  728POPS   C3A11159  15.962   2.430   6.965  0.0460 -0.2734 -0.2694
  728POPS   C4A11160  15.908   2.804   7.237  0.1769  0.1150  0.0801
  728POPS   C1B11161  16.755   2.387   6.179 -0.1491  0.0449  0.2331
  728POPS   C2B11162  16.681   2.544   6.550  0.1839  0.0322  0.3532
  728POPS   C3B11163  16.507   2.906   6.616  0.2730  0.0982  0.0329
  728POPS   C4B11164  16.146   3.117   6.857 -0.1958  0.0189  0.2850
  729POPS   CNO11165  13.657   6.639   5.520 -0.3542 -0.1699 -0.2727
  729POPS   PO411166  13.302   6.765   5.653 -0.0811 -0.1307  0.0829
  729POPS   GL111167  13.437   6.696   6.016  0.2469  0.2015  0.2072
  729POPS   GL211168  13.119   6.431   6.130  0.0672  0.1722 -0.1098
  729POPS   C1A11169  13.529   6.916   6.384  0.0344 -0.2266  0.4238
  729POPS   D2A11170  13.504   6.878   6.720  0.0681 -0.1240  0.1188
  729POPS   C3A11171  13.576   7.005   7.254  0.2415 -0.1059 -0.1710
  729POPS   C4A11172  13.806   7.118   7.589 -0.1361 -0.2828  0.2108
  729POPS   C1B11173  13.114   6.658   6.459 -0.1039  0.0110 -0.1476
  729POPS   C2B11174  12.753   6.718   6.818 -0.1869  0.0266  0.2379
  729POPS   C3B11175  12.514   6.959   7.025 -0.1348  0.1383  0.1470
  729POPS   C4B11176  12.201   7.060   7.106  0.0692 -0.1648  0.1788
  730POPS   CNO11177   1.642   3.408   5.757 -0.0900 -0.1289  0.1699
  730POPS   PO411178   1.947   3.242   5.944  0.0705  0.0501  0.1738
  730POPS   GL111179   2.150   3.179   6.323  0.1971 -0.1245  0.0316
  730POPS   GL211180   2.221   3.492   6.338 -0.3125 -0.0319 -0.0839
  730POPS   C1A11181   2.161   2.971   6.633  0.0325 -0.0054  0.0457
  730POPS   D2A11182   2.274   2.646   6.977  0.1957  0.0976 -0.3740
  730POPS   C3A11183   2.388   2.612   7.408  0.2494  0.0077  0.1029
  730POPS   C4A11184   2.633   2.486   7.694  0.2970  0.4719  0.1101
  730POPS   C1B11185   1.994   3.634   6.709 -0.2531  0.1050 -0.1467
  730POPS   C2B11186   1.925   3.737   7.210  0.3067  0.1495  0.0076
  730POPS   C3B11187   2.047   3.513   7.556  0.0109  0.0348  0.2985
  730POPS   C4B11188   2.208   3.692   8.038 -0.0703  0.0736  0.0320
  731POPS   CNO11189  18.264   8.456   4.876 -0.1524 -0.1392  0.0839
  731POPS   PO411190  18.362   8.774   5.206 -0.1153 -0.1070  0.1174
  731POPS   GL111191  18.441   8.823   5.610 -0.0388  0.1522 -0.2654
  731POPS   GL211192  18.711   8.828   5.775  0.0497  0.2550 -0.0967
  731POPS   C1A11193  18.215   8.663   5.976 -0.0254 -0.0567 -0.3300
  731POPS   D2A11194  18.167   8.323   6.332 -0.0397  0.0252 -0.3224
  731POPS   C3A11195  18.020   7.961   6.402  0.3448 -0.4415  0.1534
  731POPS   C4A11196  17.920   7.724   6.700 -0.0185 -0.1081  0.1834
  731POPS   C1B11197  18.612   8.936   6.158  0.0302  0.3441  0.0370
  731POPS   C2B11198  18.678   9.014   6.583 -0.3387 -0.0073  0.2555
  731POPS   C3B11199  18.332   9.022   6.965  0.1329  0.2258  0.0832
  731POPS   C4B11200  18.113   9.055   7.434 -0.1658  0.1304  0.2690
  732POPS   CNO11201   3.457   1.711   5.205 -0.0591 -0.2579  0.1607
  732POPS   PO411202   3.133   1.972   5.507  0.1877  0.1688 -0.0795
  732POPS   GL111203   3.009   1.663   5.895  0.2581 -0.0415  0.0905
  732POPS   GL211204   3.154   1.761   6.232  0.3254  0.0845  0.0870
  732POPS   C1A11205   3.021   1.311   6.257 -0.1872 -0.0418  0.1940
  732POPS   D2A11206   3.030   1.010   6.551 -0.1337 -0.0309  0.3212
  732POPS   C3A11207   3.372   1.003   6.713  0.2845 -0.3308  0.4071
  732POPS   C4A11208   3.744   0.931   7.043  0.0529 -0.2744  0.2286
  732POPS   C1B11209   3.188   1.517   6.699 -0.0916 -0.2766 -0.1529
  732POPS   C2B11210   2.981   1.198   7.017 -0.1996 -0.0700 -0.1999
  732POPS   C3B11211   2.843   1.061   7.481 -0.0779  0.2177 -0.0321
  732POPS   C4B11212   2.491   0.955   7.654 -0.3121  0.1977 -0.0298
  733POPS   CNO11213   6.294   1.372   5.209  0.3510 -0.0618  0.0696
  733POPS   PO411214   6.588   1.272   5.478 -0.0740 -0.1528  0.0293
  733POPS   GL111215   6.498   1.219   5.945  0.0750  0.0705  0.1702
  733POPS   GL211216   6.502   1.445   6.119 -0.1522 -0.5071 -0.0894
  733POPS   C1A11217   6.254   0.913   6.210  0.3311  0.0330 -0.0847
  733POPS   D2A11218   5.964   0.718   6.577 -0.1155  0.0993  0.0862
  733POPS   C3A11219   5.727   1.023   6.810 -0.0880  0.0227  0.0049
  733POPS   C4A11220   5.802   1.112   7.202 -0.0160  0.0308  0.0972
  733POPS   C1B11221   6.669   1.096   6.358  0.1694  0.0650 -0.1829
  733POPS   C2B11222   7.015   1.002   6.623  0.2287 -0.1214 -0.1694
  733POPS   C3B11223   6.881   0.632   6.766  0.3846 -0.2729 -0.0245
  733POPS   C4B11224   6.936   0.393   7.275  0.0227  0.0625  0.0314
  734POPS   CNO11225   5.987  17.722   5.909  0.1329 -0.1555  0.0227
  734POPS   PO411226   5.721  17.370   5.837  0.2279  0.2501 -0.1063
  734POPS   GL111227   5.362  17.607   5.968 -0.0526 -0.1341  0.0638
  734POPS   GL211228   5.353  17.596   6.265 -0.0784  0.0743 -0.1698
  734POPS   C1A11229   4.902  17.498   6.124 -0.1815  0.1000 -0.0369
  734POPS   D2A11230   4.613  17.181   6.414 -0.1256  0.0574 -0.0337
  734POPS   C3A11231   4.696  17.299   6.672 -0.1376  0.0082 -0.3186
  734POPS   C4A11232   4.669  17.149   7.114 -0.1904 -0.0739  0.0106
  734POPS   C1B11233   5.220  17.502   6.631  0.0609  0.1462  0.1955
  734POPS   C2B11234   5.204  17.633   7.016  0.0412  0.1064 -0.0494
  734POPS   C3B11235   5.136  17.842   7.418  0.4453  0.1898  0.0285
  734POPS   C4B11236   4.848  17.900   7.660 -0.0034  0.0518  0.2339
  735POPS   CNO11237   1.871   4.529   5.630  0.1608  0.1579 -0.0905
  735POPS   PO411238   1.479   4.290   5.736  0.4859 -0.1409 -0.6392
  735POPS   GL111239   1.223   4.243   6.184  0.2436 -0.2003  0.1417
  735POPS   GL211240   1.074   3.973   6.427  0.1367 -0.1003  0.0080
  735POPS   C1A11241   1.043   4.636   6.391 -0.1243 -0.0447  0.0237
  735POPS   D2A11242   1.160   5.106   6.289 -0.0659 -0.2549  0.1575
  735POPS   C3A11243   1.021   5.329   6.693  0.0792 -0.1888 -0.0393
  735POPS   C4A11244   0.794   5.237   7.051 -0.1248  0.0337  0.1539
  735POPS   C1B11245   1.014   3.868   6.817 -0.1208  0.0751 -0.0503
  735POPS   C2B11246   1.059   4.072   7.230 -0.0940 -0.0306 -0.0970
  735POPS   C3B11247   1.191   4.396   7.506  0.3479 -0.2127 -0.2740
  735POPS   C4B11248   1.176   4.543   7.959  0.0707  0.0365 -0.0975
  736POPS   CNO11249   2.125  11.196   5.112  0.1599 -0.1578 -0.3029
  736POPS   PO411250   2.179  11.398   5.591 -0.0957  0.1222 -0.1433
  736POPS   GL111251   2.126  11.152   5.904  0.3750  0.1891  0.2706
  736POPS   GL211252   1.784  10.990   5.922 -0.0272  0.2159  0.2065
  736POPS   C1A11253   2.350  11.122   6.326 -0.3820 -0.0180  0.0019
  736POPS   D2A11254   2.293  11.539   6.460  0.0601 -0.4043  0.0480
  736POPS   C3A11255   2.419  11.767   6.817 -0.0752 -0.0009  0.4316
  736POPS   C4A11256   2.340  11.995   7.125  0.0929  0.0892 -0.3543
  736POPS   C1B11257   1.797  11.256   6.308 -0.1317  0.0077  0.1329
  736POPS   C2B11258   1.589  11.609   6.226  0.3083 -0.2917 -0.0485
  736POPS   C3B11259   1.403  11.936   6.330  0.0301  0.0837 -0.1455
  736POPS   C4B11260   1.550  12.186   6.569 -0.3122  0.0136  0.1483
  737POPS   CNO11261   6.670  14.864   5.583  0.1900 -0.0551  0.3755
  737POPS   PO411262   6.994  15.018   5.370 -0.0796  0.0950 -0.0297
  737POPS   GL111263   6.971  15.235   5.696 -0.0360  0.1800  0.0894
  737POPS   GL211264   7.044  15.562   5.748 -0.1613 -0.0480 -0.0761
  737POPS   C1A11265   6.973  15.334   6.253 -0.0633  0.3500 -0.1001
  737POPS   D2A11266   7.191  15.417   6.625  0.1140 -0.0268  0.0689
  737POPS   C3A11267   6.868  15.402   6.944 -0.5629 -0.1788 -0.1562
  737POPS   C4A11268   6.685  15.225   7.328 -0.1388  0.1860  0.0135
  737POPS   C1B11269   7.014  15.820   6.018 -0.4909  0.2895 -0.0177
  737POPS   C2B11270   7.151  16.184   6.273 -0.0448 -0.2147 -0.2666
  737POPS   C3B11271   7.217  16.380   6.787  0.0310 -0.1154  0.2587
  737POPS   C4B11272   6.855  16.553   6.976 -0.1243  0.1632  0.1370
  738POPS   CNO11273  11.941  18.422   4.698 -0.0726  0.1559  0.2055
  738POPS   PO411274  11.837  18.394   5.163  0.2323  0.2443  0.0152
  738POPS   GL111275  11.558  18.036   5.406 -0.1597 -0.2196  0.0945
  738POPS   GL211276  11.622  17.723   5.415 -0.0405 -0.1618 -0.2363
  738POPS   C1A11277  11.288  17.894   5.857 -0.0803 -0.1807 -0.0457
  738POPS   D2A11278  11.097  18.121   6.151  0.1029 -0.0095 -0.0538
  738POPS   C3A11279  11.268  18.385   6.490  0.1657  0.0146 -0.0326
  738POPS   C4A11280  11.622  18.532   6.646 -0.1873  0.2284  0.0759
  738POPS   C1B11281  11.692  17.577   5.853 -0.3248 -0.3754 -0.2743
  738POPS   C2B11282  11.677  17.442   6.255  0.2568  0.0980 -0.1194
  738POPS   C3B11283  11.907  17.543   6.654 -0.0151  0.1453 -0.2856
  738POPS   C4B11284  12.002  17.782   6.928 -0.2664 -0.1730 -0.0544
  739POPS   CNO11285  18.163  18.434   5.556  0.1679  0.1484 -0.2667
  739POPS   PO411286  18.153  18.814   5.747 -0.2676  0.1613 -0.1609
  739POPS   GL111287  18.264  18.627   6.193 -0.0143  0.0500 -0.0397
  739POPS   GL211288  17.913  18.445   6.151 -0.5392  0.1469 -0.2199
  739POPS   C1A11289  18.246  18.654   6.611 -0.0883 -0.1383 -0.0039
  739POPS   D2A11290  18.103  18.637   6.922  0.0714  0.1280  0.1047
  739POPS   C3A11291  18.401  18.823   7.265  0.4921 -0.0688  0.1410
  739POPS   C4A11292  18.716  18.969   7.487 -0.0131 -0.0834 -0.3312
  739POPS   C1B11293  17.804  18.416   6.595 -0.0333 -0.1437  0.0707
  739POPS   C2B11294  17.692  18.439   7.102 -0.3378  0.0150 -0.1477
  739POPS   C3B11295  17.443  18.633   7.416  0.0710 -0.1790 -0.1200
  739POPS   C4B11296  17.103  18.515   7.392  0.0618 -0.1227 -0.0773
  740POPS   CNO11297  17.402  14.628   5.209  0.5002 -0.0318 -0.2409
  740POPS   PO411298  17.732  14.768   5.485  0.3987  0.2344 -0.0001
  740POPS   GL111299  17.894  14.775   5.825 -0.1281 -0.1653 -0.1983
  740POPS   GL211300  17.732  14.923   6.071 -0.3216  0.2113 -0.1680
  740POPS   C1A11301  17.671  14.414   6.141  0.0743  0.0418 -0.1085
  740POPS   D2A11302  17.628  14.570   6.529  0.0922  0.2962  0.0866
  740POPS   C3A11303  17.852  14.492   6.868  0.4710 -0.1135  0.1875
  740POPS   C4A11304  17.978  14.644   7.306 -0.0490  0.0676  0.1421
  740POPS   C1B11305  17.695  15.038   6.429 -0.1547  0.1793 -0.0128
  740POPS   C2B11306  17.742  14.973   6.881 -0.1017 -0.1266 -0.0721
  740POPS   C3B11307  17.550  14.890   7.339  0.0808  0.1470 -0.2571
  740POPS   C4B11308  17.565  14.662   7.751 -0.2746 -0.2900 -0.1385
  741POPS   CNO11309  18.919  18.736   5.259 -0.2643 -0.0331 -0.1159
  741POPS   PO411310  19.120  18.723   5.519  0.1793  0.1246  0.4895
  741POPS   GL111311  19.127  18.736   5.925 -0.0405  0.0733  0.3162
  741POPS   GL211312  19.320  18.539   5.998 -0.0965 -0.2163  0.2588
  741POPS   C1A11313  19.082  18.814   6.401 -0.0749  0.3290 -0.0263
  741POPS   D2A11314  19.123  18.719   6.749  0.0077 -0.0528  0.2229
  741POPS   C3A11315  19.115  18.803   7.170  0.0803 -0.0384  0.2690
  741POPS   C4A11316  19.131  18.561   7.623 -0.0997  0.1298  0.0133
  741POPS   C1B11317  19.202  18.260   6.408 -0.3952  0.1486  0.1735
  741POPS   C2B11318  19.335  18.289   6.793 -0.0255  0.2302 -0.0800
  741POPS   C3B11319  19.149  18.187   7.202 -0.0731  0.1070 -0.1531
  741POPS   C4B11320  19.070  17.907   7.452 -0.2207 -0.1806 -0.2213
  742POPS   CNO11321   0.364  15.941   5.166 -0.1967 -0.2118 -0.5440
  742POPS   PO411322   0.515  16.251   5.395 -0.0127  0.1212  0.0094
  742POPS   GL111323   0.221  16.463   5.661 -0.1263 -0.0616 -0.2130
  742POPS   GL211324   0.402  16.724   5.762 -0.0636 -0.1761  0.0811
  742POPS   C1A11325  -0.056  16.662   5.951 -0.0662  0.0706 -0.1561
  742POPS   D2A11326  -0.125  16.633   6.335  0.0820  0.0596 -0.0414
  742POPS   C3A11327  -0.046  17.014   6.566 -0.1569 -0.1432  0.0978
  742POPS   C4A11328  -0.155  17.375   6.715 -0.1257 -0.0354  0.1747
  742POPS   C1B11329   0.305  16.968   6.171  0.1133  0.0131 -0.0352
  742POPS   C2B11330   0.441  17.110   6.651 -0.1723  0.2137  0.0903
  742POPS   C3B11331   0.366  17.228   6.999 -0.0701 -0.0039 -0.0261
  742POPS   C4B11332   0.233  17.554   7.135  0.1372  0.0245 -0.0420
  743POPS   CNO11333  17.715  18.208   5.723  0.1056  0.1558  0.1550
  743POPS   PO411334  17.657  17.710   5.770  0.2213  0.0760  0.0117
  743POPS   GL111335  17.928  17.791   6.128 -0.1316 -0.1947  0.2505
  743POPS   GL211336  18.015  17.426   6.212  0.1644  0.1267 -0.0356
  743POPS   C1A11337  18.168  18.149   6.443 -0.1589 -0.2843 -0.1318
  743POPS   D2A11338  18.034  18.134   6.905 -0.1428 -0.1250  0.1398
  743POPS   C3A11339  18.127  17.968   7.373  0.1661 -0.1574 -0.1226
  743POPS   C4A11340  18.167  18.144   7.824  0.1048 -0.3173  0.3767
  743POPS   C1B11341  18.028  17.474   6.682  0.1115 -0.0213 -0.1684
  743POPS   C2B11342  17.922  17.145   7.031 -0.0021  0.1353  0.0019
  743POPS   C3B11343  18.083  16.748   7.049  0.3075  0.0635  0.1328
  743POPS   C4B11344  18.237  16.484   7.061  0.1213 -0.1918  0.1326
  744POPS   CNO11345   5.901  14.986   5.225  0.1169  0.1936  0.0538
  744POPS   PO411346   5.475  14.958   5.419 -0.1834 -0.0333  0.3388
  744POPS   GL111347   5.315  14.961   5.866  0.0182 -0.0583  0.2897
  744POPS   GL211348   5.322  15.253   5.888 -0.1092  0.2235  0.1791
  744POPS   C1A11349   5.296  14.705   6.293  0.0256  0.4618 -0.2036
  744POPS   D2A11350   4.933  14.737   6.496  0.2915 -0.1241 -0.3952
  744POPS   C3A11351   4.713  14.567   6.865 -0.0913  0.0498 -0.2833
  744POPS   C4A11352   4.509  14.385   7.268 -0.1021  0.0414  0.2245
  744POPS   C1B11353   5.229  15.242   6.331  0.1160 -0.1205  0.0783
  744POPS   C2B11354   5.101  15.190   6.597 -0.3656 -0.1176 -0.1678
  744POPS   C3B11355   4.675  15.153   6.746 -0.0893 -0.0429  0.1639
  744POPS   C4B11356   4.285  15.213   6.989 -0.1441 -0.0127 -0.1810
  745POPS   CNO11357   9.054  14.316   4.954  0.1036  0.4742  0.0570
  745POPS   PO411358   9.299  14.607   5.120  0.0930 -0.2762  0.1867
  745POPS   GL111359   9.343  14.810   5.488  0.1568  0.1124 -0.1083
  745POPS   GL211360   9.696  14.877   5.413  0.1019 -0.0617 -0.3112
  745POPS   C1A11361   9.177  14.971   5.932 -0.1193 -0.2217 -0.1771
  745POPS   D2A11362   9.034  15.144   6.333  0.2234  0.2722  0.1032
  745POPS   C3A11363   9.282  15.074   6.586 -0.0726  0.0857 -0.2513
  745POPS   C4A11364   9.453  14.951   6.970  0.1612  0.4911 -0.0837
  745POPS   C1B11365   9.615  15.188   5.661 -0.1652 -0.2545 -0.0603
  745POPS   C2B11366   9.994  15.459   5.872 -0.2162  0.1113 -0.3927
  745POPS   C3B11367  10.116  15.778   6.210 -0.1896 -0.1377  0.4403
  745POPS   C4B11368  10.263  15.998   6.544  0.1037 -0.1819 -0.3806
  746POPS   CNO11369  16.858  17.352   5.046  0.0171 -0.0366  0.1417
  746POPS   PO411370  16.557  17.178   5.416 -0.2901 -0.0267 -0.1278
  746POPS   GL111371  16.328  17.322   5.749  0.0954  0.1361  0.1737
  746POPS   GL211372  16.399  17.700   5.920 -0.4320  0.0065 -0.2444
  746POPS   C1A11373  16.251  17.280   6.088  0.0124  0.1726 -0.1070
  746POPS   D2A11374  16.420  16.972   6.418 -0.1778 -0.0251  0.1828
  746POPS   C3A11375  16.515  16.969   6.821  0.2368 -0.0586  0.1891
  746POPS   C4A11376  16.947  16.967   7.046 -0.1123  0.0435 -0.1666
  746POPS   C1B11377  16.363  18.061   6.254  0.2647  0.0325 -0.0141
  746POPS   C2B11378  16.421  18.039   6.684  0.0673 -0.0289  0.1369
  746POPS   C3B11379  16.601  17.744   6.856 -0.1010  0.1560 -0.0783
  746POPS   C4B11380  16.731  17.414   7.077 -0.0494  0.0595 -0.0025
  747POPS   CNO11381   5.948  13.260   5.421  0.1036  0.1938  0.1542
  747POPS   PO411382   5.992  13.595   5.532  0.2707 -0.2321 -0.0896
  747POPS   GL111383   6.087  13.388   5.939 -0.1013  0.1666  0.0938
  747POPS   GL211384   5.896  13.085   5.939  0.2315 -0.1924 -0.0087
  747POPS   C1A11385   6.294  13.276   6.296  0.1639  0.1202 -0.1493
  747POPS   D2A11386   6.131  13.432   6.555  0.0334 -0.1778 -0.1788
  747POPS   C3A11387   6.006  13.400   6.906  0.2731  0.0580  0.0468
  747POPS   C4A11388   5.700  13.386   7.107 -0.1224  0.0887  0.1048
  747POPS   C1B11389   5.818  13.089   6.377 -0.2144 -0.0094  0.2055
  747POPS   C2B11390   5.639  12.889   6.615 -0.1587 -0.0465 -0.2614
  747POPS   C3B11391   5.667  12.923   7.016  0.3674  0.0549  0.0107
  747POPS   C4B11392   5.508  12.993   7.393  0.1237  0.1976  0.0631
  748POPS   CNO11393   4.208  16.492   5.187 -0.0354  0.1283  0.1062
  748POPS   PO411394   4.337  16.125   5.498  0.0431 -0.2239 -0.0058
  748POPS   GL111395   4.225  16.354   5.845  0.0821 -0.0800  0.3052
  748POPS   GL211396   3.954  16.240   6.006  0.1100  0.2608  0.0169
  748POPS   C1A11397   4.203  16.642   6.164  0.1424 -0.1743  0.1975
  748POPS   D2A11398   4.280  16.861   6.505 -0.0069  0.2687  0.0345
  748POPS   C3A11399   4.239  16.912   6.963  0.1025 -0.0907 -0.0676
  748POPS   C4A11400   4.264  16.992   7.465  0.1554 -0.2663 -0.3611
  748POPS   C1B11401   3.882  16.235   6.400  0.2375 -0.0963 -0.0353
  748POPS   C2B11402   3.803  16.015   6.694  0.0504 -0.0745  0.1194
  748POPS   C3B11403   3.997  16.086   7.047 -0.0912 -0.2018 -0.3453
  748POPS   C4B11404   4.096  16.494   7.265 -0.0904 -0.0521  0.2769
  749POPS   CNO11405   7.335   6.054   5.206  0.3564 -0.1983  0.1034
  749POPS   PO411406   7.123   5.972   5.587  0.2065  0.1273  0.0792
  749POPS   GL111407   7.264   5.689   5.905 -0.0106  0.0548  0.0275
  749POPS   GL211408   7.546   5.728   5.694 -0.0413 -0.1738  0.1446
  749POPS   C1A11409   7.587   5.494   6.188 -0.1273  0.1246  0.0500
  749POPS   D2A11410   7.892   5.179   6.257 -0.1579 -0.4111 -0.1341
  749POPS   C3A11411   7.697   4.956   6.478  0.1450  0.0123  0.0125
  749POPS   C4A11412   7.536   4.585   6.720  0.1798  0.3663 -0.0847
  749POPS   C1B11413   7.717   6.045   6.063 -0.1626  0.1550 -0.1151
  749POPS   C2B11414   7.728   6.407   6.367  0.2142 -0.0472  0.0595
  749POPS   C3B11415   7.565   6.814   6.540 -0.1394 -0.0089  0.0583
  749POPS   C4B11416   7.679   7.288   6.509 -0.1853 -0.0731  0.2103
  750POPS   CNO11417  14.276  18.811   5.264  0.1758 -0.1106  0.1492
  750POPS   PO411418  14.798  18.903   5.310 -0.0526 -0.1130 -0.1972
  750POPS   GL111419  14.844  19.023   5.810 -0.2940  0.3121  0.1185
  750POPS   GL211420  15.094  18.897   5.952 -0.1160 -0.3653  0.1820
  750POPS   C1A11421  14.720  18.949   6.281 -0.1688 -0.0396  0.1588
  750POPS   D2A11422  14.738  18.912   6.765 -0.0429 -0.1814 -0.0229
  750POPS   C3A11423  14.542  18.642   6.992 -0.1640  0.1208  0.0252
  750POPS   C4A11424  14.509  18.204   7.144 -0.0553 -0.2565 -0.0082
  750POPS   C1B11425  15.275  18.921   6.380  0.1574  0.0480  0.0942
  750POPS   C2B11426  15.268  18.724   6.687  0.2898 -0.2443  0.0988
  750POPS   C3B11427  15.425  18.648   6.997 -0.2575 -0.2956  0.0203
  750POPS   C4B11428  15.705  18.437   7.321  0.1930  0.3997 -0.3123
  751POPS   CNO11429   4.956  12.791   5.360 -0.2808  0.0598  0.1664
  751POPS   PO411430   5.043  12.611   5.721  0.1247 -0.4476 -0.1904
  751POPS   GL111431   5.286  12.709   5.992 -0.1307  0.0684  0.0064
  751POPS   GL211432   5.419  12.946   6.125  0.1273 -0.1193 -0.0284
  751POPS   C1A11433   5.296  12.523   6.430  0.1565  0.0471 -0.2950
  751POPS   D2A11434   5.284  12.113   6.786  0.0136 -0.1310  0.1660
  751POPS   C3A11435   5.687  12.055   7.061  0.1811  0.1125  0.4068
  751POPS   C4A11436   5.992  12.380   7.171 -0.3214  0.2981 -0.0467
  751POPS   C1B11437   5.185  13.030   6.435 -0.0949 -0.0843 -0.0402
  751POPS   C2B11438   5.244  13.074   6.840  0.3355 -0.0984  0.1766
  751POPS   C3B11439   5.047  13.099   7.146  0.0703 -0.1447 -0.1842
  751POPS   C4B11440   4.915  13.169   7.503  0.1412  0.0955  0.0321
  752POPS   CNO11441  16.376  18.258   4.942  0.3297  0.0685 -0.0897
  752POPS   PO411442  16.693  18.270   5.272 -0.0678  0.0109 -0.0114
  752POPS   GL111443  16.664  18.364   5.671  0.1348 -0.1618  0.0591
  752POPS   GL211444  16.616  18.131   5.861 -0.1800 -0.0715 -0.1646
  752POPS   C1A11445  16.884  18.611   5.935  0.2725  0.0962  0.0514
  752POPS   D2A11446  17.236  18.654   6.132  0.0716  0.0946 -0.0830
  752POPS   C3A11447  17.310  18.382   6.431 -0.0955  0.0236 -0.1004
  752POPS   C4A11448  17.230  18.336   6.904  0.1488 -0.1292 -0.1056
  752POPS   C1B11449  16.806  18.212   6.255 -0.0877 -0.0305 -0.2716
  752POPS   C2B11450  16.995  18.041   6.577 -0.2004  0.3007 -0.3297
  752POPS   C3B11451  17.109  17.644   6.564  0.0988  0.0029 -0.1213
  752POPS   C4B11452  16.963  17.311   6.560  0.0125 -0.0323  0.3708
  753POPS   CNO11453   3.472   4.132   5.238 -0.1728  0.1499 -0.1222
  753POPS   PO411454   3.706   3.964   5.636  0.1374 -0.3039  0.1457
  753POPS   GL111455   3.609   4.099   6.124 -0.1518  0.0666  0.0536
  753POPS   GL211456   3.843   4.023   6.190 -0.2009 -0.2657 -0.3600
  753POPS   C1A11457   3.569   3.969   6.592 -0.0571  0.0238 -0.1387
  753POPS   D2A11458   3.407   3.828   6.910 -0.1372  0.1560  0.0803
  753POPS   C3A11459   3.282   3.669   7.343 -0.4067 -0.3026 -0.1930
  753POPS   C4A11460   3.044   3.160   7.436  0.0315 -0.0469 -0.0465
  753POPS   C1B11461   4.032   4.084   6.622  0.0096 -0.1816 -0.1521
  753POPS   C2B11462   4.320   4.142   6.987  0.2432 -0.0032  0.1342
  753POPS   C3B11463   4.348   4.305   7.353 -0.0696 -0.2610  0.3619
  753POPS   C4B11464   4.136   4.112   7.596 -0.0031 -0.1501 -0.2194
  754POPS   CNO11465   1.312   7.851   5.276  0.2582 -0.2256  0.1962
  754POPS   PO411466   1.525   8.284   5.356 -0.1227  0.0166  0.0029
  754POPS   GL111467   1.368   8.136   5.695  0.0467 -0.2511  0.2862
  754POPS   GL211468   1.538   7.897   5.714 -0.2706 -0.1578  0.0365
  754POPS   C1A11469   1.206   8.184   6.182 -0.2553  0.0313 -0.0569
  754POPS   D2A11470   1.147   8.324   6.589 -0.1371 -0.1413 -0.2227
  754POPS   C3A11471   1.219   8.718   6.505  0.1988 -0.1357 -0.2156
  754POPS   C4A11472   1.192   8.937   6.061 -0.1662 -0.1675  0.1730
  754POPS   C1B11473   1.780   7.899   6.064  0.1110  0.0284 -0.0174
  754POPS   C2B11474   2.138   7.794   6.362 -0.0345  0.0612 -0.2194
  754POPS   C3B11475   2.230   7.848   6.730  0.2925  0.0021  0.0993
  754POPS   C4B11476   2.435   8.087   6.891 -0.2900 -0.0221 -0.1270
  755POPS   CNO11477   9.304   8.578   5.252 -0.0158  0.2072  0.1708
  755POPS   PO411478   9.075   8.698   5.625 -0.0116 -0.2765 -0.1206
  755POPS   GL111479   9.025   8.412   5.981 -0.0546  0.2079  0.1744
  755POPS   GL211480   8.958   8.079   6.038  0.0445  0.3326 -0.0657
  755POPS   C1A11481   9.231   8.404   6.395  0.1494 -0.0868  0.0969
  755POPS   D2A11482   9.369   8.716   6.650  0.1995  0.2146 -0.0624
  755POPS   C3A11483   9.389   8.678   7.039  0.0124 -0.2257  0.1015
  755POPS   C4A11484   9.027   8.746   7.197  0.1927 -0.0182  0.0241
  755POPS   C1B11485   9.198   7.874   6.393 -0.2817  0.2924  0.0821
  755POPS   C2B11486   9.332   7.630   6.788  0.1429 -0.0106 -0.2925
  755POPS   C3B11487   9.633   7.288   7.038 -0.1433 -0.2018 -0.0847
  755POPS   C4B11488   9.725   6.779   6.883 -0.0982 -0.0794 -0.0771
  756POPS   CNO11489   6.537  11.185   5.404  0.1504 -0.2032  0.0606
  756POPS   PO411490   6.337  11.312   5.730  0.2146 -0.2055  0.1230
  756POPS   GL111491   6.475  11.087   6.135 -0.2941  0.1255 -0.1172
  756POPS   GL211492   6.873  11.018   6.214 -0.0603 -0.0070 -0.3166
  756POPS   C1A11493   6.441  10.903   6.571 -0.1385 -0.2700  0.2372
  756POPS   D2A11494   6.471  10.757   6.942 -0.4688 -0.0185  0.3772
  756POPS   C3A11495   6.484  10.855   7.310  0.1682  0.2763 -0.1988
  756POPS   C4A11496   6.666  10.614   7.688  0.1236 -0.0003 -0.1462
  756POPS   C1B11497   6.906  10.958   6.681  0.4684 -0.0527 -0.1399
  756POPS   C2B11498   6.651  11.222   7.040  0.0847 -0.1122 -0.0366
  756POPS   C3B11499   6.383  11.546   6.970  0.0103 -0.3427  0.1104
  756POPS   C4B11500   6.172  11.926   7.069  0.0034  0.1876 -0.0685
  757POPS   CNO11501   3.782   0.816   5.666  0.0390  0.3263  0.0745
  757POPS   PO411502   4.208   0.753   5.416 -0.3331 -0.1122 -0.0956
  757POPS   GL111503   4.229   0.883   5.842 -0.2293  0.0869  0.2169
  757POPS   GL211504   4.187   0.785   6.149  0.0570 -0.1016  0.0997
  757POPS   C1A11505   3.899   1.174   6.025  0.4079  0.0359  0.0554
  757POPS   D2A11506   3.567   1.288   6.307  0.1270 -0.4321  0.1357
  757POPS   C3A11507   3.694   1.358   6.636 -0.2034 -0.2101 -0.0077
  757POPS   C4A11508   3.470   1.347   7.037  0.2530 -0.0493  0.1587
  757POPS   C1B11509   4.039   0.861   6.560 -0.0185  0.0135  0.0100
  757POPS   C2B11510   4.271   0.920   7.012 -0.1038  0.1592  0.1829
  757POPS   C3B11511   4.414   0.709   7.426  0.1249 -0.0214  0.2314
  757POPS   C4B11512   4.463   0.506   7.862  0.1796  0.0498  0.3511
  758POPS   CNO11513   0.528   2.757   6.097  0.0917 -0.4461 -0.1924
  758POPS   PO411514   0.735   3.171   6.098 -0.0343 -0.1178 -0.0622
  758POPS   GL111515   0.401   3.153   6.397 -0.2253  0.0295  0.0695
  758POPS   GL211516   0.122   3.191   6.204  0.5068 -0.3274 -0.0830
  758POPS   C1A11517   0.282   3.122   6.764 -0.3322 -0.4297  0.1868
  758POPS   D2A11518   0.355   2.952   7.081  0.0275 -0.0462 -0.0922
  758POPS   C3A11519   0.378   3.289   7.339 -0.1050 -0.1794 -0.1002
  758POPS   C4A11520   0.325   3.492   7.674 -0.0571 -0.2212  0.1284
  758POPS   C1B11521  -0.200   3.321   6.549 -0.1356 -0.1135  0.1867
  758POPS   C2B11522  -0.489   3.387   6.822  0.0217  0.1491 -0.1404
  758POPS   C3B11523  -0.560   3.445   7.318  0.1094 -0.0687  0.2574
  758POPS   C4B11524  -0.619   3.354   7.827 -0.2529  0.0842  0.1808
  759POPS   CNO11525   4.287  15.589   5.537  0.0743 -0.2294  0.0514
  759POPS   PO411526   4.678  15.684   5.599 -0.3240  0.4096  0.2982
  759POPS   GL111527   4.600  15.368   5.923  0.0016  0.1677  0.2231
  759POPS   GL211528   4.830  15.249   6.047  0.0355 -0.2150  0.2310
  759POPS   C1A11529   4.440  15.481   6.379 -0.0778  0.1962  0.3028
  759POPS   D2A11530   4.387  15.720   6.823 -0.0768 -0.1011  0.0901
  759POPS   C3A11531   3.981  15.589   7.207  0.2594  0.2609 -0.1927
  759POPS   C4A11532   3.707  15.525   7.603  0.1593  0.0489 -0.0366
  759POPS   C1B11533   4.519  14.987   6.218  0.2980 -0.2261 -0.0338
  759POPS   C2B11534   4.315  14.782   6.518  0.2942  0.2384  0.1316
  759POPS   C3B11535   4.285  14.740   6.977  0.0561 -0.1996 -0.0135
  759POPS   C4B11536   4.337  14.801   7.559 -0.0090  0.0738  0.1314
  760POPS   CNO11537  17.691  14.171   5.687 -0.0811  0.1589 -0.3050
  760POPS   PO411538  17.372  14.127   5.577 -0.1005  0.1189  0.0338
  760POPS   GL111539  17.366  14.056   6.045 -0.2017 -0.0316 -0.2194
  760POPS   GL211540  17.037  13.940   6.084  0.0393 -0.1812 -0.0516
  760POPS   C1A11541  17.470  14.111   6.504 -0.4375 -0.1594  0.0577
  760POPS   D2A11542  17.832  13.820   6.700 -0.0583 -0.2565 -0.0939
  760POPS   C3A11543  18.034  14.049   7.048 -0.3590 -0.2342  0.0603
  760POPS   C4A11544  18.292  13.821   7.399  0.3558 -0.0799 -0.2514
  760POPS   C1B11545  17.056  13.885   6.466  0.0196  0.0798 -0.4109
  760POPS   C2B11546  17.091  13.869   6.887 -0.1323  0.0746 -0.0460
  760POPS   C3B11547  17.366  13.905   7.236 -0.0189  0.0693  0.0716
  760POPS   C4B11548  17.730  13.776   7.370 -0.0930  0.3060  0.3702
  761POPS   CNO11549  11.688   7.431   5.320 -0.0069  0.1918  0.3031
  761POPS   PO411550  11.378   7.703   5.241 -0.1549  0.0633  0.3475
  761POPS   GL111551  11.271   7.531   5.575  0.1491 -0.1963 -0.0392
  761POPS   GL211552  11.033   7.606   5.893 -0.3188 -0.3935  0.0041
  761POPS   C1A11553  11.512   7.395   5.967 -0.0358 -0.1120 -0.1505
  761POPS   D2A11554  11.734   7.418   6.265 -0.2254  0.1662  0.0450
  761POPS   C3A11555  11.521   7.202   6.593  0.1837 -0.3504 -0.0673
  761POPS   C4A11556  11.426   6.896   6.959  0.1549 -0.2282 -0.0101
  761POPS   C1B11557  11.122   7.424   6.285 -0.1802 -0.1014  0.3822
  761POPS   C2B11558  11.062   7.463   6.663  0.0838 -0.1415  0.3391
  761POPS   C3B11559  11.288   7.381   6.983  0.1242  0.0339 -0.1384
  761POPS   C4B11560  11.408   7.263   7.444  0.0113  0.3816 -0.2096
  762POPS   CNO11561  11.839   9.081   4.921 -0.0300 -0.1144 -0.0923
  762POPS   PO411562  11.896   9.025   5.422 -0.1810 -0.3920  0.2819
  762POPS   GL111563  12.040   9.050   5.788  0.0420 -0.0637 -0.1585
  762POPS   GL211564  11.803   8.795   5.885 -0.1823  0.2138 -0.3312
  762POPS   C1A11565  12.015   9.238   6.191 -0.1271 -0.1644 -0.0987
  762POPS   D2A11566  12.111   9.455   6.544 -0.0208  0.3284 -0.2076
  762POPS   C3A11567  11.776   9.709   6.823 -0.1328 -0.1130 -0.3669
  762POPS   C4A11568  11.586  10.037   7.038 -0.1499  0.3035 -0.2287
  762POPS   C1B11569  11.629   8.904   6.264  0.1865 -0.0466  0.2325
  762POPS   C2B11570  11.684   9.125   6.692  0.1305  0.3914  0.0432
  762POPS   C3B11571  11.730   9.271   7.108  0.1031  0.3083 -0.0144
  762POPS   C4B11572  11.853   9.647   7.318 -0.2275 -0.0418  0.2329
  763POPS   CNO11573   2.319  16.212   5.028  0.0056 -0.0380  0.1823
  763POPS   PO411574   1.973  15.951   5.284  0.2677 -0.1769  0.0980
  763POPS   GL111575   2.005  15.939   5.781  0.1381 -0.1974  0.0364
  763POPS   GL211576   1.855  15.666   5.941 -0.1222 -0.0477  0.0397
  763POPS   C1A11577   2.111  16.198   6.247 -0.3490  0.0682  0.0826
  763POPS   D2A11578   1.992  16.562   6.517 -0.0942  0.4259  0.0193
  763POPS   C3A11579   2.067  16.488   6.951  0.3758 -0.1262 -0.0695
  763POPS   C4A11580   1.809  16.137   7.318  0.6373  0.0109 -0.1130
  763POPS   C1B11581   1.921  15.728   6.383 -0.1145  0.0939 -0.0995
  763POPS   C2B11582   2.097  16.003   6.757  0.1834  0.0505 -0.1497
  763POPS   C3B11583   2.311  16.098   7.117  0.3464 -0.1307 -0.1223
  763POPS   C4B11584   2.693  16.118   7.330 -0.1590  0.1591  0.1140
  764POPS   CNO11585  15.666   6.983   5.534 -0.0253 -0.3063  0.0966
  764POPS   PO411586  15.456   7.117   5.805  0.1817 -0.1752 -0.0699
  764POPS   GL111587  15.608   7.310   6.090  0.1826  0.1756 -0.0748
  764POPS   GL211588  15.816   7.410   5.853 -0.1252  0.1376 -0.1048
  764POPS   C1A11589  15.521   7.476   6.461 -0.2002  0.1182 -0.0586
  764POPS   D2A11590  15.487   7.450   6.901  0.3412 -0.1684  0.2377
  764POPS   C3A11591  15.184   7.447   7.134  0.1594  0.0194  0.0014
  764POPS   C4A11592  14.902   7.043   7.023 -0.0823  0.0059  0.2483
  764POPS   C1B11593  16.008   7.529   6.224  0.0623 -0.0230 -0.0818
  764POPS   C2B11594  16.298   7.699   6.402 -0.0074 -0.0469 -0.1301
  764POPS   C3B11595  16.573   7.654   6.824 -0.1882 -0.1586  0.4528
  764POPS   C4B11596  16.812   7.901   7.186 -0.2004 -0.0003  0.0008
  765POPS   CNO11597   7.870   4.391   5.257 -0.4899 -0.0529 -0.3567
  765POPS   PO411598   7.721   4.051   5.485 -0.0455  0.2575  0.3300
  765POPS   GL111599   7.580   4.307   5.869  0.0998  0.2169 -0.2634
  765POPS   GL211600   7.777   4.125   6.041  0.3141 -0.1213 -0.0809
  765POPS   C1A11601   7.448   4.722   6.116 -0.3916 -0.2742 -0.0629
  765POPS   D2A11602   7.246   5.031   6.131 -0.0673  0.0715  0.0263
  765POPS   C3A11603   7.101   5.415   6.377  0.1216  0.3830 -0.1913
  765POPS   C4A11604   6.864   5.717   6.246 -0.1878 -0.0120  0.0216
  765POPS   C1B11605   7.608   4.167   6.500 -0.4489  0.0454  0.1449
  765POPS   C2B11606   7.490   4.073   6.974 -0.0626  0.1408 -0.0381
  765POPS   C3B11607   7.505   4.023   7.415 -0.1190  0.0981 -0.0233
  765POPS   C4B11608   7.428   4.311   7.716 -0.1273  0.2517 -0.3020
  766POPS   CNO11609   9.300   0.180   5.215  0.1382 -0.0366  0.0901
  766POPS   PO411610   9.383   0.650   5.180  0.0312  0.0563  0.2020
  766POPS   GL111611   9.238   0.633   5.615 -0.1819  0.1246  0.2180
  766POPS   GL211612   9.180   0.315   5.785 -0.0066 -0.0650  0.3210
  766POPS   C1A11613   8.882   0.857   5.816  0.2854  0.0354  0.1676
  766POPS   D2A11614   8.750   1.060   6.163  0.0732  0.0609  0.0973
  766POPS   C3A11615   8.552   0.837   6.498 -0.1125 -0.1527 -0.1969
  766POPS   C4A11616   8.109   0.876   6.504 -0.3536 -0.3508 -0.1399
  766POPS   C1B11617   9.317   0.233   6.241 -0.0077 -0.3499 -0.3134
  766POPS   C2B11618   9.400   0.221   6.766 -0.2400  0.1539 -0.0076
  766POPS   C3B11619   9.208   0.045   7.123  0.1138 -0.1615 -0.1837
  766POPS   C4B11620   8.886  -0.164   7.004  0.2546 -0.0350  0.0196
  767POPS   CNO11621   6.016   0.093   5.054  0.3440 -0.0989 -0.0648
  767POPS   PO411622   6.324  -0.252   5.152 -0.0277 -0.0013 -0.3495
  767POPS   GL111623   6.188  -0.351   5.623 -0.1044 -0.1879 -0.2824
  767POPS   GL211624   6.115  -0.705   5.773 -0.0893  0.1239 -0.0684
  767POPS   C1A11625   6.054  -0.278   6.081  0.1599 -0.0395  0.2521
  767POPS   D2A11626   6.029  -0.452   6.576 -0.0147 -0.1008  0.0440
  767POPS   C3A11627   5.673  -0.788   6.673  0.4026  0.2679 -0.0938
  767POPS   C4A11628   5.608  -0.987   7.154  0.3320 -0.1398 -0.1375
  767POPS   C1B11629   6.272  -1.034   6.130  0.0544 -0.2178 -0.1010
  767POPS   C2B11630   6.533  -1.287   6.416 -0.2266 -0.1285  0.1854
  767POPS   C3B11631   6.640  -1.201   6.826 -0.1696 -0.2009  0.2408
  767POPS   C4B11632   6.803  -1.320   7.251 -0.0400 -0.2167 -0.1782
  768POPS   CNO11633  12.030  11.039   5.292  0.1518 -0.1254 -0.0060
  768POPS   PO411634  11.562  10.911   5.401  0.3782  0.1277 -0.1051
  768POPS   GL111635  11.937  10.638   5.572  0.2566  0.0924  0.1776
  768POPS   GL211636  12.137  10.765   5.823 -0.0322  0.3835 -0.3665
  768POPS   C1A11637  11.966  10.331   5.590  0.1960  0.1777  0.0160
  768POPS   D2A11638  11.771   9.958   5.487 -0.0127 -0.1675 -0.1617
  768POPS   C3A11639  11.903   9.571   5.810 -0.1300  0.0668  0.0029
  768POPS   C4A11640  11.654   9.577   6.082 -0.0822 -0.2133 -0.1733
  768POPS   C1B11641  12.171  10.422   6.170  0.0663 -0.2796  0.0776
  768POPS   C2B11642  12.361  10.390   6.644  0.1508 -0.0640 -0.0374
  768POPS   C3B11643  12.150  10.305   6.999 -0.0022  0.1709  0.1799
  768POPS   C4B11644  11.955  10.283   7.353 -0.0854  0.0323 -0.2537
  769POPS   CNO11645   7.969  18.125   5.506 -0.2515 -0.4860  0.1748
  769POPS   PO411646   8.303  17.741   5.405  0.3355 -0.0474 -0.4138
  769POPS   GL111647   8.488  17.485   5.827  0.0015  0.0464 -0.0691
  769POPS   GL211648   8.862  17.476   5.772  0.1907  0.1203 -0.1097
  769POPS   C1A11649   8.381  17.427   6.209  0.0765  0.3485 -0.0420
  769POPS   D2A11650   8.268  17.726   6.483  0.3635 -0.1870  0.0436
  769POPS   C3A11651   8.001  17.648   6.821  0.2593 -0.0138 -0.0867
  769POPS   C4A11652   8.244  17.793   7.160 -0.2061  0.0217 -0.1218
  769POPS   C1B11653   9.102  17.324   6.109  0.3492  0.2518  0.1588
  769POPS   C2B11654   9.181  17.397   6.397  0.0734  0.2381  0.0922
  769POPS   C3B11655   9.047  17.167   6.792 -0.1745 -0.0804  0.0106
  769POPS   C4B11656   9.115  16.941   7.097  0.0192 -0.0790  0.2637
  770POPS   CNO11657   7.376   7.770   5.239 -0.0926  0.0650  0.0407
  770POPS   PO411658   7.556   7.900   5.675  0.0559 -0.1559  0.0908
  770POPS   GL111659   7.683   8.013   6.088  0.2264  0.1217  0.1531
  770POPS   GL211660   7.539   8.323   6.190  0.1162 -0.0647  0.0151
  770POPS   C1A11661   7.804   7.800   6.501  0.2393  0.1657  0.0071
  770POPS   D2A11662   7.715   7.667   6.961  0.1370 -0.0554 -0.0085
  770POPS   C3A11663   7.887   7.715   7.284 -0.1588  0.1601  0.2938
  770POPS   C4A11664   7.791   7.745   7.733  0.0346  0.2513  0.3489
  770POPS   C1B11665   7.615   8.316   6.636 -0.0232  0.2834  0.1662
  770POPS   C2B11666   7.691   8.171   7.029  0.0420  0.0149  0.3142
  770POPS   C3B11667   7.493   8.052   7.424  0.0284  0.4775  0.0245
  770POPS   C4B11668   7.196   7.799   7.247 -0.0530  0.1879 -0.0757
  771POPS   CNO11669  10.542  10.148   5.600 -0.0745  0.0834 -0.2973
  771POPS   PO411670  10.476   9.730   5.701 -0.0021 -0.0715  0.3383
  771POPS   GL111671  10.457   9.586   6.050 -0.1889 -0.0102  0.4140
  771POPS   GL211672  10.139   9.638   6.073 -0.5813  0.0947  0.0649
  771POPS   C1A11673  10.496   9.891   6.419  0.0788 -0.2525  0.1702
  771POPS   D2A11674  10.647  10.034   6.706  0.1005 -0.0654 -0.3478
  771POPS   C3A11675  10.981   9.741   6.791 -0.0637 -0.0054  0.1165
  771POPS   C4A11676  11.264   9.670   7.105 -0.2387 -0.1095  0.0448
  771POPS   C1B11677  10.035   9.832   6.496  0.3105 -0.2367 -0.0974
  771POPS   C2B11678   9.992   9.558   6.823  0.1702 -0.0395 -0.0285
  771POPS   C3B11679  10.017   9.340   7.197  0.1873 -0.1324 -0.2011
  771POPS   C4B11680   9.801   9.249   7.566  0.1848  0.1558 -0.0814
  772POPS   CNO11681  14.254   3.268   4.770 -0.0869  0.2501  0.2937
  772POPS   PO411682  14.089   3.131   5.136  0.0539 -0.3357 -0.5414
  772POPS   GL111683  13.880   3.073   5.523  0.0669 -0.3797 -0.0449
  772POPS   GL211684  14.044   3.132   5.757  0.1192 -0.0707 -0.3343
  772POPS   C1A11685  13.536   2.968   5.714 -0.0645 -0.1363  0.0674
  772POPS   D2A11686  13.282   3.082   6.121  0.4542  0.3557 -0.0004
  772POPS   C3A11687  13.335   3.252   6.414 -0.0202 -0.2226  0.0071
  772POPS   C4A11688  13.503   3.585   6.741  0.1394  0.0660  0.0875
  772POPS   C1B11689  14.166   3.023   6.148  0.2444 -0.1616  0.1379
  772POPS   C2B11690  14.238   2.948   6.567 -0.2513 -0.0847 -0.1521
  772POPS   C3B11691  14.466   3.060   6.842 -0.0987  0.2994  0.2784
  772POPS   C4B11692  14.598   3.223   7.200 -0.1711 -0.4273  0.3140
  773POPS   CNO11693  10.847  10.516   5.270 -0.0416 -0.2016 -0.1718
  773POPS   PO411694  10.471  10.707   5.274  0.1339 -0.3774 -0.1342
  773POPS   GL111695  10.407  10.936   5.795 -0.2273 -0.1940 -0.1248
  773POPS   GL211696  10.285  10.665   5.791 -0.0715  0.3482 -0.2720
  773POPS   C1A11697   9.989  11.072   6.024  0.0507 -0.4620  0.2128
  773POPS   D2A11698   9.682  10.949   6.331  0.0575  0.0521  0.2064
  773POPS   C3A11699   9.809  10.721   6.585  0.0091  0.0352  0.0267
  773POPS   C4A11700  10.073  10.464   6.532  0.0834  0.1688  0.1463
  773POPS   C1B11701  10.310  10.827   6.301  0.1970 -0.1804 -0.2295
  773POPS   C2B11702  10.322  10.900   6.719 -0.2027 -0.0603 -0.4152
  773POPS   C3B11703  10.448  10.924   7.120 -0.2847 -0.0882 -0.0653
  773POPS   C4B11704  10.233  11.101   7.394  0.0668  0.3379  0.2053
  774POPS   CNO11705   7.535   2.081   5.661 -0.2392 -0.2109  0.0197
  774POPS   PO411706   7.477   2.388   5.297  0.1857 -0.0926 -0.1137
  774POPS   GL111707   7.542   2.607   5.630 -0.0295  0.1118 -0.0316
  774POPS   GL211708   7.875   2.700   5.669 -0.0726  0.1521  0.2457
  774POPS   C1A11709   7.565   2.844   6.076  0.2841  0.3400 -0.1524
  774POPS   D2A11710   7.292   2.895   6.430 -0.1361 -0.0463  0.0025
  774POPS   C3A11711   7.486   2.793   6.924  0.1489  0.1596  0.2915
  774POPS   C4A11712   7.427   2.398   7.222 -0.2857 -0.0750  0.2478
  774POPS   C1B11713   8.027   2.440   6.055  0.0247 -0.0419  0.0290
  774POPS   C2B11714   7.886   2.219   6.473  0.0641 -0.0938  0.1564
  774POPS   C3B11715   7.552   2.362   6.595  0.0268 -0.0151 -0.2062
  774POPS   C4B11716   7.137   2.519   6.784  0.0850  0.3466  0.1262
  775POPS   CNO11717   7.725  18.582   5.529  0.0098  0.3739 -0.0966
  775POPS   PO411718   7.510  18.233   5.649  0.2531  0.2143  0.2543
  775POPS   GL111719   7.777  18.290   5.996  0.0903 -0.0601 -0.1782
  775POPS   GL211720   7.694  18.573   6.025 -0.2351 -0.3593  0.0648
  775POPS   C1A11721   7.932  18.120   6.460  0.4071 -0.3955 -0.1976
  775POPS   D2A11722   8.199  18.131   6.797 -0.0597 -0.1678  0.1842
  775POPS   C3A11723   8.129  18.374   7.202 -0.1415  0.0584  0.0928
  775POPS   C4A11724   7.833  18.301   7.619  0.0034  0.1819  0.0081
  775POPS   C1B11725   7.631  18.683   6.394 -0.1166 -0.0916  0.1051
  775POPS   C2B11726   7.775  18.997   6.553 -0.2829 -0.0366 -0.1124
  775POPS   C3B11727   7.745  19.270   7.011  0.0370 -0.1954  0.1191
  775POPS   C4B11728   7.928  19.698   7.039 -0.1050 -0.0637  0.1442
  776POPS   CNO11729   4.028   9.330   5.471 -0.2193  0.0020 -0.1178
  776POPS   PO411730   3.876   9.370   5.824  0.1182 -0.3514 -0.0927
  776POPS   GL111731   3.752   9.027   6.097 -0.1445  0.4578 -0.0529
  776POPS   GL211732   3.670   8.705   6.216  0.3016 -0.3845 -0.1980
  776POPS   C1A11733   3.703   9.017   6.653 -0.2352  0.0226  0.0703
  776POPS   D2A11734   3.739   9.271   7.056  0.1653 -0.1322  0.2499
  776POPS   C3A11735   3.598   9.689   7.150  0.2654  0.1669  0.0139
  776POPS   C4A11736   3.262  10.018   6.971 -0.1730  0.0457  0.0239
  776POPS   C1B11737   3.814   8.560   6.612  0.2988 -0.1439 -0.2809
  776POPS   C2B11738   3.939   8.793   7.010  0.0600  0.1610  0.0817
  776POPS   C3B11739   4.309   8.760   7.254  0.1630 -0.3031 -0.1280
  776POPS   C4B11740   4.721   9.094   7.350  0.0696  0.1961  0.0108
  777POPS   CNO11741  15.278   9.664   5.201  0.1627  0.1122 -0.3316
  777POPS   PO411742  15.244   9.452   5.563  0.0592 -0.2691 -0.3058
  777POPS   GL111743  15.142   9.720   5.940  0.1054 -0.4969 -0.0813
  777POPS   GL211744  15.045  10.047   5.893  0.0062 -0.0528  0.2060
  777POPS   C1A11745  15.108   9.532   6.335  0.3027 -0.1671  0.0628
  777POPS   D2A11746  15.222   9.323   6.673 -0.0963  0.1778  0.0062
  777POPS   C3A11747  15.023   9.076   6.948  0.2598  0.1704 -0.2715
  777POPS   C4A11748  14.889   8.730   7.264 -0.1215 -0.2717  0.5370
  777POPS   C1B11749  14.918  10.073   6.398 -0.1457 -0.1255 -0.3172
  777POPS   C2B11750  15.063   9.822   6.713 -0.2130  0.0844 -0.2231
  777POPS   C3B11751  15.090   9.723   7.049 -0.2927 -0.2960 -0.2502
  777POPS   C4B11752  14.846   9.711   7.351 -0.3034  0.0528 -0.0483
  778POPS   CNO11753  18.944  14.452   5.103 -0.0385  0.4981 -0.2335
  778POPS   PO411754  19.145  14.504   5.486 -0.2315  0.2057  0.2502
  778POPS   GL111755  18.898  14.554   5.870 -0.2008 -0.0329 -0.1174
  778POPS   GL211756  19.183  14.647   6.121 -0.2004  0.2575  0.3357
  778POPS   C1A11757  18.660  14.315   6.224 -0.2550 -0.0157  0.2534
  778POPS   D2A11758  18.771  14.105   6.630 -0.2039 -0.1634 -0.0793
  778POPS   C3A11759  18.466  13.843   6.943  0.4494  0.0759 -0.0762
  778POPS   C4A11760  18.286  13.510   6.945  0.2662 -0.2189  0.0344
  778POPS   C1B11761  19.019  14.563   6.581 -0.0299 -0.2042 -0.4636
  778POPS   C2B11762  18.996  14.362   6.956  0.1376 -0.1405  0.1428
  778POPS   C3B11763  19.291  14.237   7.124  0.0082 -0.0069  0.0922
  778POPS   C4B11764  19.770  14.155   7.046  0.0140 -0.3507 -0.1336
  779POPS   CNO11765   6.474  17.904   5.626 -0.2246 -0.2841 -0.0311
  779POPS   PO411766   6.801  18.230   5.563  0.1486 -0.1498 -0.1134
  779POPS   GL111767   6.673  18.446   5.908  0.0745  0.2528  0.1208
  779POPS   GL211768   6.549  18.764   5.962  0.0950 -0.2963  0.1828
  779POPS   C1A11769   6.471  18.447   6.301 -0.0791  0.0799  0.0612
  779POPS   D2A11770   6.479  18.824   6.607  0.1229  0.1873 -0.0495
  779POPS   C3A11771   6.373  18.697   6.991  0.0647  0.0837  0.2434
  779POPS   C4A11772   6.329  18.500   7.409  0.2637  0.1968  0.0650
  779POPS   C1B11773   6.333  19.125   6.225  0.0645 -0.0691  0.0460
  779POPS   C2B11774   6.381  19.513   6.450  0.0367 -0.1143  0.3116
  779POPS   C3B11775   6.412  19.881   6.673  0.1250 -0.2639  0.1014
  779POPS   C4B11776   6.297  20.089   7.072  0.1893  0.1512  0.0595
  780POPS   CNO11777   1.529   9.220   5.511 -0.0188  0.0424  0.2639
  780POPS   PO411778   1.720   8.884   5.305  0.0289 -0.1555 -0.1537
  780POPS   GL111779   2.000   8.921   5.612 -0.1141  0.1028  0.0092
  780POPS   GL211780   2.019   9.264   5.769  0.3102  0.2372 -0.0382
  780POPS   C1A11781   2.400   8.998   5.847  0.0602  0.2122  0.0387
  780POPS   D2A11782   2.799   9.185   5.967 -0.0091 -0.1070  0.0394
  780POPS   C3A11783   2.915   9.493   6.359  0.0265  0.1400  0.0667
  780POPS   C4A11784   3.134   9.865   6.456 -0.1119  0.2016  0.0559
  780POPS   C1B11785   1.725   9.054   6.022  0.0188 -0.1081  0.3274
  780POPS   C2B11786   1.473   9.195   6.390  0.3630 -0.0334  0.0306
  780POPS   C3B11787   1.290   9.174   6.722  0.2360 -0.2708 -0.1320
  780POPS   C4B11788   1.449   8.998   7.158 -0.0169 -0.3655  0.0589
  781POPS   CNO11789   4.354  17.703   5.148  0.0651  0.1955  0.3669
  781POPS   PO411790   3.949  17.863   5.233  0.0421 -0.5274 -0.0688
  781POPS   GL111791   4.232  17.955   5.668 -0.1021  0.1576 -0.0148
  781POPS   GL211792   4.082  18.097   5.892 -0.4166 -0.0321 -0.1524
  781POPS   C1A11793   4.595  17.967   5.883  0.2270 -0.4498 -0.2147
  781POPS   D2A11794   4.793  18.026   6.332  0.0625  0.4950 -0.0328
  781POPS   C3A11795   4.693  17.810   6.638  0.1310 -0.1798 -0.2357
  781POPS   C4A11796   4.696  17.713   7.069 -0.1178  0.2224  0.2596
  781POPS   C1B11797   3.910  18.420   6.236  0.1035 -0.2021  0.0536
  781POPS   C2B11798   4.148  18.691   6.550  0.2014 -0.0733 -0.0747
  781POPS   C3B11799   3.984  18.953   6.706 -0.2582  0.2705  0.0450
  781POPS   C4B11800   3.909  18.939   7.107 -0.0630 -0.0420 -0.0292
  782POPS   CNO11801  18.393   5.167   5.708 -0.0635  0.2416  0.3804
  782POPS   PO411802  18.782   5.484   5.636 -0.0590  0.4228  0.0993
  782POPS   GL111803  18.887   5.652   5.961  0.3678 -0.0016 -0.4287
  782POPS   GL211804  18.615   5.894   6.054  0.1141  0.0919 -0.0995
  782POPS   C1A11805  19.074   5.434   6.343  0.0149 -0.1759  0.0793
  782POPS   D2A11806  18.988   5.576   6.857  0.1732 -0.0461 -0.2395
  782POPS   C3A11807  18.712   5.535   7.220  0.1429  0.0756  0.2690
  782POPS   C4A11808  18.319   5.404   7.369  0.0743 -0.0333  0.0687
  782POPS   C1B11809  18.621   5.689   6.440  0.0615  0.0158 -0.3164
  782POPS   C2B11810  18.763   5.991   6.763  0.1658 -0.0887  0.2084
  782POPS   C3B11811  18.794   6.144   7.172 -0.0508 -0.4496 -0.4114
  782POPS   C4B11812  18.534   6.366   7.507  0.0028  0.2017  0.0063
  783POPS   CNO11813   7.536   0.141   5.468 -0.2792  0.0194  0.0556
  783POPS   PO411814   7.074   0.077   5.379  0.2307 -0.1408  0.3726
  783POPS   GL111815   7.087  -0.016   5.762 -0.5743 -0.3384  0.0497
  783POPS   GL211816   7.389  -0.142   5.806 -0.1605 -0.1695  0.0531
  783POPS   C1A11817   6.853   0.076   6.180  0.0470 -0.3100 -0.2490
  783POPS   D2A11818   6.770   0.195   6.569 -0.0617 -0.1225 -0.0927
  783POPS   C3A11819   6.693   0.054   6.996 -0.0595 -0.0466  0.1744
  783POPS   C4A11820   6.513  -0.035   7.352 -0.0957  0.2272  0.1752
  783POPS   C1B11821   7.424   0.110   6.181 -0.5019  0.0987 -0.1904
  783POPS   C2B11822   7.265   0.129   6.537  0.1247  0.0077  0.2807
  783POPS   C3B11823   7.165   0.244   6.913 -0.0945  0.0001  0.3403
  783POPS   C4B11824   7.399   0.524   7.261 -0.1966 -0.1304 -0.0468
  784POPS   CNO11825  16.554  10.642   5.366  0.1256  0.1924  0.0539
  784POPS   PO411826  16.329  10.612   5.726 -0.2095 -0.2377 -0.2361
  784POPS   GL111827  16.165  10.458   6.017 -0.0400 -0.0916  0.0555
  784POPS   GL211828  15.795  10.481   5.918 -0.3759  0.0302 -0.1942
  784POPS   C1A11829  15.946  10.645   6.435  0.3243 -0.1308  0.4217
  784POPS   D2A11830  15.926  10.472   6.762 -0.1254  0.0501  0.0359
  784POPS   C3A11831  16.215  10.494   7.117  0.0283  0.0094  0.2680
  784POPS   C4A11832  16.473  10.557   7.486  0.0335 -0.2089  0.2725
  784POPS   C1B11833  15.471  10.430   6.270 -0.1396 -0.1538  0.0125
  784POPS   C2B11834  15.400  10.380   6.699 -0.0481 -0.1436  0.3019
  784POPS   C3B11835  15.549  10.127   6.989 -0.1916  0.0884 -0.3304
  784POPS   C4B11836  15.561   9.807   7.278 -0.1263  0.0916  0.3319
  785POPS   CNO11837  10.239   2.033   4.914 -0.1561 -0.1547 -0.0193
  785POPS   PO411838   9.942   1.935   5.169 -0.5245 -0.0499  0.0508
  785POPS   GL111839   9.952   1.881   5.549 -0.0643  0.0315  0.1253
  785POPS   GL211840   9.596   1.952   5.729 -0.4596  0.2272 -0.0946
  785POPS   C1A11841  10.064   2.003   6.032  0.1181  0.1351  0.2732
  785POPS   D2A11842  10.312   2.169   6.301 -0.3448  0.2396 -0.1264
  785POPS   C3A11843  10.266   2.581   6.462  0.0546  0.2016 -0.0136
  785POPS   C4A11844  10.003   2.914   6.609  0.1736  0.0812  0.3012
  785POPS   C1B11845   9.690   1.626   6.135 -0.0390 -0.2031  0.2443
  785POPS   C2B11846   9.727   1.340   6.497  0.0419 -0.0924  0.1021
  785POPS   C3B11847   9.700   1.281   6.975  0.1471 -0.1336  0.2207
  785POPS   C4B11848   9.950   1.153   7.284 -0.0559  0.0537  0.2815
  786POPS   CNO11849   8.930  12.642   5.466  0.2127  0.1550 -0.0540
  786POPS   PO411850   8.654  12.937   5.544 -0.1244  0.1166 -0.0042
  786POPS   GL111851   8.790  13.213   5.810  0.0386  0.0979 -0.1429
  786POPS   GL211852   8.533  13.222   6.107  0.1194  0.1055 -0.0097
  786POPS   C1A11853   8.968  13.330   6.208  0.1367  0.0984 -0.2715
  786POPS   D2A11854   9.230  13.514   6.445 -0.2482 -0.0757 -0.0842
  786POPS   C3A11855   9.532  13.504   6.749  0.3452 -0.0772  0.3105
  786POPS   C4A11856   9.572  13.576   7.122  0.0322 -0.0595 -0.0069
  786POPS   C1B11857   8.436  13.283   6.428  0.4093  0.0609  0.0706
  786POPS   C2B11858   8.454  13.336   6.817 -0.2677 -0.1708  0.1871
  786POPS   C3B11859   8.443  13.344   7.292 -0.0872  0.1109  0.2503
  786POPS   C4B11860   8.323  13.554   7.721  0.3266 -0.1474  0.2358
  787POPS   CNO11861  11.053  12.971   5.810 -0.3403  0.2916 -0.0914
  787POPS   PO411862  11.348  13.101   5.435  0.0030 -0.1716  0.0856
  787POPS   GL111863  11.467  13.313   5.843  0.0404 -0.1398  0.1870
  787POPS   GL211864  11.505  12.985   6.046  0.1523  0.0169 -0.0585
  787POPS   C1A11865  11.470  13.502   6.212  0.1034  0.0259 -0.2164
  787POPS   D2A11866  11.604  13.729   6.631  0.1612  0.3380 -0.1566
  787POPS   C3A11867  11.489  13.924   7.040  0.0604 -0.2721  0.0232
  787POPS   C4A11868  11.489  14.359   7.172  0.0672  0.0367  0.2363
  787POPS   C1B11869  11.337  12.997   6.370  0.2891 -0.2480  0.1766
  787POPS   C2B11870  11.198  12.904   6.762 -0.0846 -0.1064  0.1500
  787POPS   C3B11871  11.235  12.919   7.196  0.1198 -0.1422  0.1104
  787POPS   C4B11872  10.987  12.740   7.400 -0.0435 -0.1214  0.0860
  788POPS   CNO11873  14.934  18.508   5.630  0.4829  0.2798 -0.1594
  788POPS   PO411874  15.279  18.767   5.465  0.0949 -0.1576  0.0613
  788POPS   GL111875  15.632  18.791   5.737 -0.0980  0.0152 -0.0048
  788POPS   GL211876  15.613  18.433   5.797  0.3952  0.3413 -0.2173
  788POPS   C1A11877  15.785  18.747   6.174  0.3388  0.1063 -0.0230
  788POPS   D2A11878  15.742  18.768   6.596  0.1227 -0.0193  0.0401
  788POPS   C3A11879  15.941  18.680   6.899 -0.2683  0.1544 -0.0896
  788POPS   C4A11880  16.104  18.777   7.278 -0.3187  0.0562 -0.0027
  788POPS   C1B11881  15.323  18.446   6.152 -0.2210  0.0928  0.1545
  788POPS   C2B11882  14.878  18.498   6.385 -0.1266 -0.2686  0.1523
  788POPS   C3B11883  14.674  18.305   6.654 -0.0750 -0.0482 -0.1927
  788POPS   C4B11884  14.330  18.152   6.563 -0.3820  0.0417 -0.0074
  789POPS   CNO11885   8.206   6.312   5.342 -0.0345 -0.2423 -0.0005
  789POPS   PO411886   8.245   6.782   5.358 -0.1190  0.2870  0.4111
  789POPS   GL111887   7.988   6.831   5.830 -0.1907  0.0614  0.2614
  789POPS   GL211888   7.841   6.526   5.894  0.1166 -0.0274  0.0744
  789POPS   C1A11889   8.022   7.119   6.206 -0.2901 -0.1029 -0.0458
  789POPS   D2A11890   8.105   7.489   6.240  0.1557  0.1985  0.0516
  789POPS   C3A11891   8.264   7.629   6.730  0.1146 -0.1647  0.0459
  789POPS   C4A11892   8.330   7.717   7.085 -0.1052 -0.2717 -0.3986
  789POPS   C1B11893   7.475   6.739   5.967 -0.0660 -0.0545  0.1626
  789POPS   C2B11894   7.380   7.077   6.190 -0.0594 -0.1728 -0.1769
  789POPS   C3B11895   6.978   7.171   6.417 -0.0804 -0.2690  0.2313
  789POPS   C4B11896   6.808   7.263   6.757 -0.4056  0.3553  0.0957
  790POPS   CNO11897  15.763   0.967   5.120  0.2086  0.1933 -0.2564
  790POPS   PO411898  15.945   0.944   5.419 -0.0449 -0.0002  0.1347
  790POPS   GL111899  16.095   1.185   5.832 -0.0757  0.2044  0.1392
  790POPS   GL211900  16.368   1.132   6.065 -0.2240 -0.0803 -0.1251
  790POPS   C1A11901  15.795   1.283   6.190 -0.2190 -0.0342 -0.0862
  790POPS   D2A11902  15.873   1.178   6.617  0.1241 -0.0159 -0.0679
  790POPS   C3A11903  15.814   1.533   6.976 -0.0490 -0.1532  0.2901
  790POPS   C4A11904  15.983   1.913   7.274  0.0007 -0.0153 -0.1039
  790POPS   C1B11905  16.487   1.179   6.479  0.2415  0.0651 -0.3953
  790POPS   C2B11906  16.349   1.041   6.897  0.1411 -0.1064 -0.0888
  790POPS   C3B11907  16.237   0.881   7.221 -0.0306 -0.1439  0.1006
  790POPS   C4B11908  16.466   0.595   7.494  0.0681  0.0433  0.1794
  791YOPS   CNO11909  16.311  14.388   5.733 -0.0032  0.1570  0.0733
  791YOPS   PO411910  15.847  14.593   5.813 -0.0571  0.0418  0.2595
  791YOPS   GL111911  15.596  14.388   6.080 -0.1725  0.1359 -0.2740
  791YOPS   GL211912  15.446  14.116   6.136 -0.2748  0.1084 -0.1966
  791YOPS   C1A11913  15.425  14.496   6.475 -0.3189 -0.2223 -0.0958
  791YOPS   D2A11914  15.331  14.356   6.767 -0.1945  0.2973 -0.0501
  791YOPS   C3A11915  15.154  14.277   7.170 -0.0463  0.1506  0.0589
  791YOPS   C4A11916  14.796  14.150   7.213 -0.0708 -0.0928 -0.3489
  791YOPS   C1B11917  15.650  14.075   6.543 -0.2256  0.1369  0.2599
  791YOPS   C2B11918  15.974  13.959   6.881 -0.1050  0.2163  0.0668
  791YOPS   D3B11919  16.073  13.716   7.200 -0.3242 -0.0164  0.0881
  791YOPS   C4B11920  16.345  13.744   7.618 -0.2234 -0.1844 -0.0939
  792YOPS   CNO11921   8.160   4.236   5.743 -0.0684  0.1629 -0.2030
  792YOPS   PO411922   8.623   4.028   5.528 -0.0081 -0.1153  0.2054
  792YOPS   GL111923   8.771   3.817   5.938  0.1255 -0.0519 -0.1028
  792YOPS   GL211924   8.994   3.966   6.065  0.0326  0.0769 -0.0476
  792YOPS   C1A11925   8.864   3.418   6.183 -0.2076  0.7266  0.2302
  792YOPS   D2A11926   8.884   3.245   6.614 -0.0798 -0.2395 -0.2566
  792YOPS   C3A11927   8.933   3.023   7.037  0.1321 -0.0310 -0.0562
  792YOPS   C4A11928   8.512   3.010   7.149 -0.1242  0.0840 -0.1029
  792YOPS   C1B11929   8.803   3.845   6.398  0.0754 -0.0762  0.1809
  792YOPS   C2B11930   8.753   3.730   6.787 -0.3111 -0.3513  0.0590
  792YOPS   D3B11931   8.557   3.953   7.052  0.2628  0.1459 -0.0496
  792YOPS   C4B11932   8.587   4.402   7.061 -0.1202 -0.3068  0.2400
  793YOPS   CNO11933  17.502  16.742   5.630 -0.0221 -0.0017  0.1296
  793YOPS   PO411934  17.190  16.546   5.493 -0.2874  0.2499 -0.1360
  793YOPS   GL111935  17.264  16.405   5.901  0.4227  0.4350  0.0505
  793YOPS   GL211936  17.507  16.462   6.092 -0.2068  0.2036  0.3372
  793YOPS   C1A11937  16.819  16.454   6.096 -0.0938 -0.1284  0.0736
  793YOPS   D2A11938  16.500  16.515   6.279 -0.1475 -0.2505 -0.0113
  793YOPS   C3A11939  16.225  16.493   6.556 -0.3032 -0.1031  0.0084
  793YOPS   C4A11940  16.209  16.600   6.922  0.2090 -0.3294 -0.2984
  793YOPS   C1B11941  17.447  16.311   6.482  0.0823 -0.1955  0.0759
  793YOPS   C2B11942  17.344  16.083   6.838  0.3560  0.2253 -0.1414
  793YOPS   D3B11943  17.413  16.046   7.231 -0.0256 -0.0086 -0.2271
  793YOPS   C4B11944  17.332  16.409   7.656 -0.2021  0.0056 -0.1723
  794YOPS   CNO11945   6.723  10.065   5.969 -0.0965  0.0417 -0.0246
  794YOPS   PO411946   6.687   9.736   5.611 -0.0576  0.1573 -0.3710
  794YOPS   GL111947   6.933   9.656   6.070  0.0494  0.3423 -0.2672
  794YOPS   GL211948   7.136   9.418   5.922 -0.0740  0.2445  0.0368
  794YOPS   C1A11949   7.070   9.596   6.585 -0.1076 -0.0472  0.1681
  794YOPS   D2A11950   7.181   9.646   7.038  0.0152  0.0023 -0.0325
  794YOPS   C3A11951   7.237   9.899   7.489 -0.2517  0.1277 -0.0406
  794YOPS   C4A11952   7.502  10.257   7.362  0.3107 -0.0133  0.0646
  794YOPS   C1B11953   7.321   9.236   6.242 -0.3633 -0.0997  0.3138
  794YOPS   C2B11954   7.764   9.191   6.273 -0.2509  0.0316 -0.1867
  794YOPS   D3B11955   8.127   9.246   6.568  0.1774 -0.1532  0.0713
  794YOPS   C4B11956   8.101   9.435   6.929  0.4434 -0.0438  0.0044
  795YOPS   CNO11957   6.040   6.180   5.438 -0.0906  0.0408 -0.1040
  795YOPS   PO411958   6.082   6.437   5.815 -0.3797 -0.0602  0.1056
  795YOPS   GL111959   5.987   6.310   6.250 -0.1507  0.2134  0.0944
  795YOPS   GL211960   6.104   6.558   6.448  0.1102  0.1239  0.0970
  795YOPS   C1A11961   6.044   6.017   6.686 -0.0116  0.2078 -0.0040
  795YOPS   D2A11962   6.073   6.139   7.193  0.2891 -0.3635 -0.1103
  795YOPS   C3A11963   6.256   6.407   7.555  0.0806 -0.0897 -0.0158
  795YOPS   C4A11964   6.130   6.705   7.840  0.0425  0.3657 -0.0140
  795YOPS   C1B11965   5.966   6.591   6.877 -0.1079  0.2802  0.0001
  795YOPS   C2B11966   5.988   6.879   7.293  0.0426  0.2792  0.0834
  795YOPS   D3B11967   5.950   7.136   7.530 -0.0151  0.2576 -0.3228
  795YOPS   C4B11968   6.188   7.409   7.431  0.5007 -0.0024  0.0453
  796YOPS   CNO11969   1.082  15.957   6.061  0.0267  0.2439  0.2174
  796YOPS   PO411970   1.248  16.389   5.935  0.2605  0.0279  0.2831
  796YOPS   GL111971   1.036  16.479   6.390  0.3230 -0.2545  0.0216
  796YOPS   GL211972   0.886  16.727   6.273 -0.4130 -0.2003 -0.0901
  796YOPS   C1A11973   0.943  16.405   6.866  0.0194  0.0476  0.0446
  796YOPS   D2A11974   0.814  16.388   7.162  0.1111 -0.1461  0.0281
  796YOPS   C3A11975   0.813  16.636   7.571 -0.1072 -0.1274  0.2893
  796YOPS   C4A11976   1.016  16.643   7.886  0.1358  0.0577  0.2252
  796YOPS   C1B11977   0.851  16.824   6.693  0.0149 -0.1768  0.0728
  796YOPS   C2B11978   0.893  16.893   7.073  0.1946 -0.1784  0.1617
  796YOPS   D3B11979   1.234  16.887   7.416  0.0973 -0.2133 -0.0622
  796YOPS   C4B11980   1.253  17.068   7.862 -0.0980 -0.0193 -0.1072
  797YOPS   CNO11981  12.039  16.792   5.476 -0.0804  0.3601  0.2239
  797YOPS   PO411982  12.231  17.151   5.413 -0.2155 -0.1014 -0.2527
  797YOPS   GL111983  12.263  17.457   5.738 -0.1947 -0.1338  0.2777
  797YOPS   GL211984  12.618  17.602   5.739  0.3359  0.0740 -0.0236
  797YOPS   C1A11985  12.090  17.649   6.158 -0.1289 -0.3017  0.3127
  797YOPS   D2A11986  12.180  17.873   6.436  0.0147  0.3140  0.0107
  797YOPS   C3A11987  12.414  18.076   6.816 -0.1046 -0.1252  0.3575
  797YOPS   C4A11988  12.410  18.443   7.027  0.1790  0.2660 -0.0486
  797YOPS   C1B11989  12.784  17.745   6.127  0.1375 -0.3078 -0.0278
  797YOPS   C2B11990  12.782  17.809   6.601 -0.2105  0.2565  0.0130
  797YOPS   D3B11991  12.810  17.694   7.036 -0.1718 -0.0142  0.2684
  797YOPS   C4B11992  12.859  17.419   7.304  0.0024  0.2028  0.1009
  798YOPS   CNO11993   1.368  12.461   5.644  0.0966  0.0756  0.2514
  798YOPS   PO411994   1.091  12.163   5.755  0.1725  0.4321 -0.1071
  798YOPS   GL111995   0.929  12.007   6.085 -0.3763  0.3178 -0.0798
  798YOPS   GL211996   0.693  11.783   6.110 -0.1505 -0.1123 -0.3140
  798YOPS   C1A11997   0.974  11.978   6.525 -0.1258 -0.0533 -0.0851
  798YOPS   D2A11998   0.684  12.040   6.823  0.1324 -0.1000 -0.0881
  798YOPS   C3A11999   0.667  11.987   7.227  0.3031  0.2227 -0.5342
  798YOPS   C4A12000   0.356  11.692   7.485 -0.3389 -0.0150 -0.3752
  798YOPS   C1B12001   0.465  11.678   6.527  0.0426 -0.0986 -0.2002
  798YOPS   C2B12002   0.519  11.552   7.007 -0.0537  0.1541 -0.1909
  798YOPS   D3B12003   0.710  11.242   7.185  0.0903 -0.0081 -0.1786
  798YOPS   C4B12004   0.815  11.288   7.657  0.0634  0.3106  0.0845
  799YOPS   CNO12005  11.094   5.376   5.130 -0.1044 -0.2956 -0.1340
  799YOPS   PO412006  10.906   5.130   5.305 -0.0108  0.3825 -0.1052
  799YOPS   GL112007  10.734   5.152   5.650 -0.0121  0.2697  0.1022
  799YOPS   GL212008  10.498   5.411   5.758  0.1873  0.3707  0.0368
  799YOPS   C1A12009  10.665   5.042   6.095  0.2056  0.2741 -0.0690
  799YOPS   D2A12010  10.489   4.920   6.450 -0.0739  0.2545 -0.1030
  799YOPS   C3A12011  10.698   4.642   6.690 -0.1420  0.0653  0.6676
  799YOPS   C4A12012  10.625   4.597   7.073 -0.0285  0.1815 -0.1259
  799YOPS   C1B12013  10.702   5.570   6.131  0.0860 -0.2376 -0.0999
  799YOPS   C2B12014  10.850   6.019   6.238  0.0886  0.2626 -0.2280
  799YOPS   D3B12015  11.019   6.135   6.588  0.2995  0.4092  0.1287
  799YOPS   C4B12016  10.759   6.098   6.972 -0.0322  0.0072 -0.3740
  800YOPS   CNO12017   2.213   1.699   5.210 -0.0386 -0.0049 -0.3215
  800YOPS   PO412018   2.177   1.989   5.524  0.0694  0.0308  0.1325
  800YOPS   GL112019   1.895   1.936   5.941  0.0240 -0.1188  0.2222
  800YOPS   GL212020   1.729   2.211   6.039  0.2087 -0.2351  0.2761
  800YOPS   C1A12021   1.817   1.850   6.482  0.3894  0.0067  0.0038
  800YOPS   D2A12022   2.059   1.777   6.946  0.0413  0.2603 -0.3368
  800YOPS   C3A12023   2.141   1.607   7.317 -0.0523  0.0172  0.0421
  800YOPS   C4A12024   1.937   1.168   7.396 -0.3554 -0.1574  0.1537
  800YOPS   C1B12025   1.623   2.534   6.434 -0.3366 -0.2215 -0.2562
  800YOPS   C2B12026   1.738   2.696   6.789  0.2345  0.0355 -0.2097
  800YOPS   D3B12027   1.817   2.564   7.232  0.0094 -0.0813  0.2492
  800YOPS   C4B12028   1.508   2.305   7.438 -0.0504  0.5647  0.0690
  801YOPS   CNO12029   7.983  15.658   5.511 -0.2400 -0.3067 -0.1096
  801YOPS   PO412030   8.376  15.392   5.527  0.1724 -0.3116  0.2878
  801YOPS   GL112031   8.758  15.431   5.818 -0.0892  0.2955 -0.1851
  801YOPS   GL212032   9.088  15.345   5.525  0.0351 -0.2839  0.0394
  801YOPS   C1A12033   8.688  15.490   6.192 -0.2837 -0.2259  0.0082
  801YOPS   D2A12034   8.518  15.682   6.494 -0.0114  0.0422  0.0121
  801YOPS   C3A12035   8.750  16.062   6.722  0.1194  0.3047  0.0659
  801YOPS   C4A12036   9.203  15.905   7.003  0.1449 -0.0425  0.1365
  801YOPS   C1B12037   9.243  15.458   5.903 -0.0704  0.1224 -0.0155
  801YOPS   C2B12038   9.526  15.242   6.166 -0.0077  0.1275  0.5279
  801YOPS   D3B12039   9.866  15.377   6.467 -0.1021 -0.0081 -0.0149
  801YOPS   C4B12040   9.678  15.383   6.885 -0.0004 -0.1566 -0.0450
  802YOPS   CNO12041  18.299  13.807   5.130  0.0361 -0.2228 -0.1717
  802YOPS   PO412042  18.159  13.574   5.478  0.3392  0.0284 -0.2307
  802YOPS   GL112043  17.887  13.726   5.849 -0.1320 -0.1962 -0.3051
  802YOPS   GL212044  17.971  13.539   6.072  0.0249 -0.0280 -0.0013
  802YOPS   C1A12045  17.906  14.031   6.212 -0.1534  0.0626 -0.2052
  802YOPS   D2A12046  18.246  14.055   6.586  0.0599 -0.1065 -0.0705
  802YOPS   C3A12047  18.392  14.360   6.840 -0.2503 -0.1268 -0.0439
  802YOPS   C4A12048  18.562  14.675   7.037  0.0675  0.0195  0.0180
  802YOPS   C1B12049  18.015  13.412   6.428 -0.0946 -0.0145 -0.2398
  802YOPS   C2B12050  17.929  13.064   6.740  0.2450  0.0554 -0.1110
  802YOPS   D3B12051  17.940  12.970   7.135  0.0486  0.0477  0.1361
  802YOPS   C4B12052  18.172  13.286   7.365  0.1113 -0.2073 -0.0183
  803YOPS   CNO12053  12.609   4.962   5.040  0.2546  0.0431  0.2155
  803YOPS   PO412054  12.196   5.211   5.085 -0.0615  0.0713 -0.0840
  803YOPS   GL112055  12.409   5.106   5.501 -0.0819  0.0403  0.1285
  803YOPS   GL212056  12.228   5.390   5.692  0.1257 -0.0999 -0.2697
  803YOPS   C1A12057  12.547   5.041   5.917  0.3517 -0.0021 -0.1823
  803YOPS   D2A12058  12.526   5.075   6.283 -0.7868  0.0673 -0.1025
  803YOPS   C3A12059  12.570   4.859   6.663  0.1699 -0.2761 -0.3025
  803YOPS   C4A12060  12.717   5.164   6.843 -0.1601  0.1189  0.0979
  803YOPS   C1B12061  12.203   5.493   6.168 -0.4214 -0.0511  0.1688
  803YOPS   C2B12062  12.275   5.412   6.609  0.1488  0.0847 -0.0708
  803YOPS   D3B12063  11.834   5.322   6.824 -0.2695 -0.0748 -0.2257
  803YOPS   C4B12064  11.624   5.404   7.222 -0.0182  0.0935 -0.2625
  804YOPS   CNO12065   6.468   7.682   5.429 -0.1794  0.4715  0.3708
  804YOPS   PO412066   6.720   7.408   5.690  0.1810  0.2169 -0.0886
  804YOPS   GL112067   7.047   7.503   5.950  0.1036 -0.1318 -0.1547
  804YOPS   GL212068   6.825   7.683   6.065 -0.2426 -0.1304  0.0257
  804YOPS   C1A12069   7.345   7.582   6.210  0.1098  0.1816 -0.2472
  804YOPS   D2A12070   7.257   7.571   6.631  0.0317  0.0304 -0.0446
  804YOPS   C3A12071   7.328   7.303   6.837  0.0121  0.2418 -0.1080
  804YOPS   C4A12072   7.259   7.317   7.387 -0.0186  0.1100  0.1072
  804YOPS   C1B12073   6.842   7.747   6.493  0.2322  0.0292 -0.0866
  804YOPS   C2B12074   6.823   7.742   6.916 -0.2094  0.0414  0.4013
  804YOPS   D3B12075   6.750   8.004   7.223  0.3347  0.0504 -0.2053
  804YOPS   C4B12076   6.832   8.036   7.611  0.0252  0.0183 -0.0917
  805YOPS   CNO12077   6.733  13.613   5.157 -0.1614  0.1422 -0.1561
  805YOPS   PO412078   6.986  13.475   5.540  0.3791  0.0798  0.1347
  805YOPS   GL112079   6.837  13.584   5.886 -0.1782 -0.2060 -0.0220
  805YOPS   GL212080   6.594  13.515   6.054 -0.0856 -0.3077  0.0707
  805YOPS   C1A12081   7.047  13.703   6.181 -0.1754  0.0545 -0.1969
  805YOPS   D2A12082   6.991  13.800   6.618  0.2803 -0.1337  0.0211
  805YOPS   C3A12083   6.766  13.881   6.924  0.0520 -0.2108 -0.1399
  805YOPS   C4A12084   6.680  14.163   7.290  0.1533 -0.2383 -0.1532
  805YOPS   C1B12085   6.525  13.793   6.388 -0.2825 -0.3346  0.2766
  805YOPS   C2B12086   6.299  13.835   6.787 -0.1657 -0.0833 -0.1073
  805YOPS   D3B12087   6.087  13.965   7.277  0.1747 -0.2891  0.0935
  805YOPS   C4B12088   5.774  13.660   7.474  0.2949  0.3589  0.0481
  806YOPS   CNO12089  15.917  13.100   5.153 -0.0695 -0.0579 -0.3041
  806YOPS   PO412090  16.098  13.072   5.611 -0.1179  0.0342 -0.1448
  806YOPS   GL112091  16.369  13.215   5.919  0.0498 -0.0118 -0.3003
  806YOPS   GL212092  16.397  13.471   5.984 -0.1082 -0.0540 -0.0751
  806YOPS   C1A12093  16.402  12.995   6.242 -0.0071 -0.0343  0.1603
  806YOPS   D2A12094  16.598  13.043   6.730 -0.2191  0.0778  0.3315
  806YOPS   C3A12095  16.510  13.009   7.088 -0.0765  0.1142  0.1125
  806YOPS   C4A12096  16.551  13.241   7.476  0.0092 -0.2552 -0.1027
  806YOPS   C1B12097  16.634  13.468   6.396 -0.1136  0.1090 -0.2988
  806YOPS   C2B12098  16.801  13.547   6.739  0.0460 -0.2742 -0.3567
  806YOPS   D3B12099  16.692  13.720   7.154  0.0441 -0.2551  0.0965
  806YOPS   C4B12100  16.928  14.232   7.283 -0.0402  0.2809  0.0942
  807YOPS   CNO12101  17.662   7.914   5.056 -0.1963 -0.1604 -0.1322
  807YOPS   PO412102  17.629   7.628   5.329 -0.1646  0.0172 -0.2561
  807YOPS   GL112103  17.960   7.404   5.557  0.1596 -0.2021 -0.0747
  807YOPS   GL212104  17.910   7.678   5.809  0.1704  0.1458 -0.1659
  807YOPS   C1A12105  18.111   7.173   5.886 -0.1295  0.2483 -0.0195
  807YOPS   D2A12106  18.149   6.989   6.304 -0.0712 -0.2155 -0.1136
  807YOPS   C3A12107  18.158   6.778   6.728  0.1154  0.3049  0.1762
  807YOPS   C4A12108  18.421   6.379   6.833  0.1722  0.0921  0.1166
  807YOPS   C1B12109  17.764   7.408   6.170 -0.1018  0.2503 -0.0347
  807YOPS   C2B12110  17.819   7.214   6.582 -0.0096 -0.2258 -0.0025
  807YOPS   D3B12111  18.121   7.313   6.870  0.3640  0.1909 -0.0326
  807YOPS   C4B12112  18.166   7.030   7.254 -0.0546 -0.0478 -0.3627
  808YOPS   CNO12113   9.509   2.843   4.943  0.1716 -0.0329  0.0610
  808YOPS   PO412114   9.852   2.772   5.204  0.4788  0.1657  0.1207
  808YOPS   GL112115   9.946   2.774   5.676 -0.2514 -0.1953  0.2022
  808YOPS   GL212116  10.261   2.918   5.774 -0.0443 -0.0434  0.1246
  808YOPS   C1A12117   9.759   2.835   6.118  0.2343  0.0043  0.3124
  808YOPS   D2A12118   9.450   3.145   6.320 -0.0345 -0.0182  0.2403
  808YOPS   C3A12119   9.326   3.572   6.626  0.0781 -0.2872  0.2642
  808YOPS   C4A12120   9.565   3.811   6.759  0.1052  0.4264  0.0880
  808YOPS   C1B12121  10.208   2.988   6.180  0.2320  0.1070  0.1647
  808YOPS   C2B12122  10.582   2.972   6.600  0.4162  0.0303  0.2627
  808YOPS   D3B12123  10.656   2.997   7.117 -0.0646  0.0328 -0.0703
  808YOPS   C4B12124  10.747   3.281   7.367  0.1629 -0.0972 -0.1534
  809YOPS   CNO12125  11.231  15.507   5.026  0.1587 -0.0091  0.1855
  809YOPS   PO412126  11.342  15.419   5.394  0.0366 -0.0492  0.0172
  809YOPS   GL112127  11.410  15.309   5.880  0.0618  0.0551  0.1988
  809YOPS   GL212128  11.587  15.081   6.190 -0.0365 -0.0584  0.2114
  809YOPS   C1A12129  11.246  15.408   6.410 -0.4268  0.0253  0.1791
  809YOPS   D2A12130  11.219  15.738   6.658 -0.0391  0.2645 -0.2039
  809YOPS   C3A12131  11.415  16.089   6.858  0.2606 -0.0513  0.0103
  809YOPS   C4A12132  11.367  16.458   7.112 -0.1648  0.0830  0.0729
  809YOPS   C1B12133  11.476  14.932   6.588  0.0020  0.1283 -0.0527
  809YOPS   C2B12134  11.397  14.945   7.041  0.1336  0.0381  0.1715
  809YOPS   D3B12135  11.541  14.805   7.429  0.1751  0.2238  0.1239
  809YOPS   C4B12136  11.569  15.033   7.804  0.1253  0.0576 -0.2171
  810YOPS   CNO12137   3.229  10.517   5.779  0.1610 -0.0928  0.1177
  810YOPS   PO412138   3.643  10.426   5.745 -0.0388 -0.0771 -0.1640
  810YOPS   GL112139   3.796  10.402   6.263  0.0025 -0.2177 -0.1235
  810YOPS   GL212140   4.027  10.261   6.504  0.1306  0.1699 -0.2339
  810YOPS   C1A12141   3.493  10.393   6.518 -0.0033 -0.2943  0.1867
  810YOPS   D2A12142   3.372  10.641   6.791 -0.0057 -0.1663  0.0701
  810YOPS   C3A12143   3.505  10.951   7.072  0.2833  0.1108 -0.0485
  810YOPS   C4A12144   3.343  11.422   7.078 -0.0974  0.0109 -0.0721
  810YOPS   C1B12145   4.018  10.041   6.931  0.0670 -0.0872 -0.3426
  810YOPS   C2B12146   4.002  10.100   7.328  0.0154  0.2140  0.5130
  810YOPS   D3B12147   4.215  10.435   7.563  0.1950  0.3675 -0.3780
  810YOPS   C4B12148   4.158  10.595   7.918  0.1683  0.1648 -0.1543
  811YOPS   CNO12149   2.140   5.366   5.454 -0.0275 -0.1754  0.1324
  811YOPS   PO412150   2.189   4.965   5.704  0.0974 -0.0768  0.1939
  811YOPS   GL112151   1.942   5.013   6.071 -0.0928  0.0592  0.2182
  811YOPS   GL212152   1.921   4.742   6.113  0.0765  0.0888 -0.1742
  811YOPS   C1A12153   1.765   5.178   6.368  0.1390 -0.1617 -0.5961
  811YOPS   D2A12154   1.443   5.018   6.636 -0.0978  0.0700 -0.2413
  811YOPS   C3A12155   1.171   4.903   6.857  0.1486  0.1225  0.0739
  811YOPS   C4A12156   1.046   4.506   6.955 -0.0903  0.0283 -0.1943
  811YOPS   C1B12157   2.002   4.672   6.590 -0.0925 -0.0721 -0.4005
  811YOPS   C2B12158   2.068   4.615   6.993 -0.1393  0.0494  0.1979
  811YOPS   D3B12159   2.231   4.752   7.347 -0.0248 -0.2324 -0.2176
  811YOPS   C4B12160   2.150   4.622   7.657 -0.4565  0.3112  0.0654
  812YOPS   CNO12161   0.935  14.455   5.420  0.0853 -0.2970 -0.2095
  812YOPS   PO412162   0.964  14.214   5.796 -0.0997 -0.1118 -0.1746
  812YOPS   GL112163   0.896  14.377   6.158 -0.3380  0.0102  0.1889
  812YOPS   GL212164   0.719  14.584   6.219 -0.2989  0.3025 -0.3957
  812YOPS   C1A12165   1.022  14.063   6.504  0.0223  0.0779  0.1234
  812YOPS   D2A12166   1.210  13.838   6.804 -0.0371 -0.0249  0.3166
  812YOPS   C3A12167   1.572  13.619   6.794 -0.1797  0.5108  0.0298
  812YOPS   C4A12168   1.979  13.679   6.486 -0.1069 -0.0278  0.0548
  812YOPS   C1B12169   0.753  15.072   6.444 -0.1482  0.0036 -0.0957
  812YOPS   C2B12170   1.018  15.140   6.768 -0.0550 -0.0577  0.0456
  812YOPS   D3B12171   0.972  15.194   7.123  0.1471  0.1096  0.1162
  812YOPS   C4B12172   1.018  15.462   7.224  0.0833  0.2210 -0.0673
  813YOPS   CNO12173  16.286   8.439   4.964 -0.0288  0.3133 -0.0538
  813YOPS   PO412174  16.468   8.067   5.307 -0.2307 -0.1742  0.0186
  813YOPS   GL112175  16.413   8.141   5.711  0.1365 -0.1601  0.0734
  813YOPS   GL212176  16.074   7.907   5.877 -0.3437  0.2637  0.1220
  813YOPS   C1A12177  16.554   8.056   6.179 -0.2540  0.0887 -0.2005
  813YOPS   D2A12178  16.624   8.137   6.635 -0.3716  0.1689 -0.0321
  813YOPS   C3A12179  16.580   8.503   6.800 -0.3425 -0.0862 -0.3912
  813YOPS   C4A12180  16.913   8.705   6.660 -0.0885 -0.0245 -0.1044
  813YOPS   C1B12181  15.877   8.276   5.776  0.1777  0.0668 -0.4096
  813YOPS   C2B12182  15.666   8.520   6.053 -0.1394 -0.2705 -0.3470
  813YOPS   D3B12183  15.758   8.894   6.206  0.0068 -0.1656 -0.2886
  813YOPS   C4B12184  15.876   8.795   6.555  0.0622 -0.0359 -0.0506
  814YOPS   CNO12185   2.378  18.218   5.257 -0.1913 -0.0764 -0.1566
  814YOPS   PO412186   2.731  18.395   5.504 -0.2716  0.2392 -0.0527
  814YOPS   GL112187   2.608  18.246   5.940  0.1348  0.2189 -0.2022
  814YOPS   GL212188   2.331  18.122   5.846 -0.1199  0.0372  0.1614
  814YOPS   C1A12189   2.714  17.958   6.180  0.0332 -0.0611  0.0523
  814YOPS   D2A12190   2.678  17.959   6.638  0.0612  0.3627  0.0813
  814YOPS   C3A12191   2.526  17.788   6.951 -0.0202  0.0637 -0.2638
  814YOPS   C4A12192   2.187  17.895   7.234 -0.1489 -0.2043 -0.2911
  814YOPS   C1B12193   2.216  17.972   6.178 -0.0930 -0.1045 -0.4397
  814YOPS   C2B12194   2.196  17.703   6.514  0.0470 -0.0026  0.0839
  814YOPS   D3B12195   2.354  17.347   6.748  0.3856 -0.3845 -0.1852
  814YOPS   C4B12196   2.262  17.434   7.199  0.1190 -0.1608 -0.0261
  815YOPS   CNO12197  12.124  11.449   4.940 -0.0509 -0.0647  0.2046
  815YOPS   PO412198  12.212  11.542   5.335  0.0571 -0.2042  0.0900
  815YOPS   GL112199  12.080  11.611   5.873  0.2983 -0.4039 -0.3037
  815YOPS   GL212200  12.212  11.643   6.190  0.0717 -0.1835  0.1759
  815YOPS   C1A12201  11.796  11.300   6.199 -0.3360  0.1789  0.0853
  815YOPS   D2A12202  11.617  11.205   6.545  0.2962 -0.1500  0.0905
  815YOPS   C3A12203  11.633  11.380   6.951  0.0011 -0.0742 -0.0539
  815YOPS   C4A12204  11.706  11.007   7.107  0.3480  0.1603 -0.0800
  815YOPS   C1B12205  12.226  11.491   6.537  0.0741  0.1027 -0.0311
  815YOPS   C2B12206  12.024  11.159   6.783 -0.2025  0.0276  0.2869
  815YOPS   D3B12207  12.116  10.844   6.957  0.0103 -0.0935 -0.1540
  815YOPS   C4B12208  12.380  10.803   7.273  0.0486 -0.1020 -0.0982
  816YOPS   CNO12209  17.224   3.996   5.340 -0.2875 -0.1841 -0.3619
  816YOPS   PO412210  17.550   4.258   5.382 -0.1286  0.0233 -0.2439
  816YOPS   GL112211  17.831   4.339   5.685  0.1652  0.1058  0.4084
  816YOPS   GL212212  17.846   4.638   5.867 -0.0663  0.2400 -0.1077
  816YOPS   C1A12213  17.923   4.124   6.074  0.1685  0.2522 -0.0891
  816YOPS   D2A12214  17.869   3.737   6.131 -0.1426 -0.2280 -0.2178
  816YOPS   C3A12215  17.841   3.351   6.151 -0.0603  0.0937 -0.1427
  816YOPS   C4A12216  17.761   3.014   6.169 -0.1249  0.0223 -0.0995
  816YOPS   C1B12217  17.829   4.586   6.293  0.0423 -0.1143 -0.0817
  816YOPS   C2B12218  17.871   4.652   6.803  0.0052 -0.1515  0.1433
  816YOPS   D3B12219  17.727   4.636   7.234 -0.0754  0.1448 -0.0032
  816YOPS   C4B12220  17.937   4.721   7.676  0.0964  0.0989  0.1346
  817YOPS   CNO12221   2.815   3.457   5.251  0.1306 -0.0609  0.1280
  817YOPS   PO412222   2.845   3.611   5.685 -0.0325 -0.2377  0.1072
  817YOPS   GL112223   2.891   3.395   6.047 -0.0734 -0.1587  0.0660
  817YOPS   GL212224   3.065   3.200   6.249  0.0270  0.1089  0.0186
  817YOPS   C1A12225   2.703   3.377   6.526 -0.0572  0.1295  0.1040
  817YOPS   D2A12226   2.432   3.324   6.848 -0.1646 -0.1246 -0.2774
  817YOPS   C3A12227   2.452   3.092   7.214 -0.0795 -0.4094 -0.3697
  817YOPS   C4A12228   2.569   3.042   7.573 -0.3273  0.2865 -0.1543
  817YOPS   C1B12229   3.349   3.423   6.614 -0.1573  0.1758  0.0289
  817YOPS   C2B12230   3.497   3.320   6.990 -0.0497 -0.0513 -0.3825
  817YOPS   D3B12231   3.553   3.186   7.380  0.0665  0.1065  0.1002
  817YOPS   C4B12232   3.582   3.445   7.762  0.2185 -0.2950 -0.1146
  818YOPS   CNO12233   3.014   0.094   4.905  0.7484 -0.1118 -0.1642
  818YOPS   PO412234   2.605   0.128   5.112 -0.1264 -0.6926  0.0162
  818YOPS   GL112235   2.662   0.104   5.573 -0.0178  0.1599  0.0463
  818YOPS   GL212236   2.438  -0.009   5.789  0.3460 -0.0841 -0.0743
  818YOPS   C1A12237   2.932   0.196   5.808 -0.1453  0.0185  0.2893
  818YOPS   D2A12238   3.317   0.414   5.846 -0.3286  0.0936  0.0577
  818YOPS   C3A12239   3.704   0.474   6.193 -0.1291 -0.2670  0.2476
  818YOPS   C4A12240   3.689   0.384   6.646 -0.3426  0.2731 -0.2876
  818YOPS   C1B12241   2.419  -0.301   6.125 -0.0001 -0.0463  0.2040
  818YOPS   C2B12242   2.484  -0.612   6.425 -0.0590  0.3503 -0.1243
  818YOPS   D3B12243   2.616  -0.539   6.805 -0.0833 -0.1421 -0.0954
  818YOPS   C4B12244   2.415  -0.659   7.159 -0.1941 -0.0523 -0.0796
  819YOPS   CNO12245  12.845   9.444   5.134 -0.3177 -0.3902 -0.1535
  819YOPS   PO412246  13.099   9.461   5.380 -0.0418  0.0317 -0.2809
  819YOPS   GL112247  12.958   9.529   5.881 -0.2425 -0.0122 -0.1533
  819YOPS   GL212248  12.669   9.740   5.857  0.1509 -0.1227  0.2085
  819YOPS   C1A12249  13.182   9.369   6.346 -0.2511 -0.0226 -0.1686
  819YOPS   D2A12250  13.258   9.285   6.775  0.1329  0.0474 -0.1667
  819YOPS   C3A12251  13.540   9.555   7.067 -0.1202 -0.0823 -0.1510
  819YOPS   C4A12252  13.576   9.872   7.340  0.1869 -0.2758  0.1653
  819YOPS   C1B12253  12.279   9.746   6.101  0.1172  0.1569  0.1944
  819YOPS   C2B12254  11.863  10.029   6.004 -0.0140 -0.2724  0.1435
  819YOPS   D3B12255  11.482  10.216   5.830  0.1547  0.0203 -0.1061
  819YOPS   C4B12256  11.258  10.500   6.050  0.0775 -0.1567 -0.2113
  820YOPS   CNO12257   2.118  17.222   5.442  0.1555  0.3263  0.0928
  820YOPS   PO412258   2.032  16.833   5.636 -0.1657  0.0146 -0.2064
  820YOPS   GL112259   2.354  16.768   5.867  0.1592  0.0744 -0.0472
  820YOPS   GL212260   2.535  16.994   5.845  0.3009  0.3589  0.3648
  820YOPS   C1A12261   2.543  16.571   6.308  0.1946  0.2647 -0.0529
  820YOPS   D2A12262   2.460  16.377   6.722 -0.1437 -0.1781 -0.1502
  820YOPS   C3A12263   2.462  16.627   7.127 -0.0535  0.2736 -0.2927
  820YOPS   C4A12264   2.191  16.442   7.477 -0.0894  0.0114 -0.3971
  820YOPS   C1B12265   2.463  17.056   6.322  0.5065 -0.0229 -0.3450
  820YOPS   C2B12266   2.302  16.859   6.680  0.0539  0.0064 -0.3539
  820YOPS   D3B12267   2.104  16.950   7.151 -0.2099  0.0243 -0.0347
  820YOPS   C4B12268   2.509  17.152   7.497  0.1917  0.1624 -0.0929
  821POPE   NH312269   1.401   5.222   5.491 -0.2875 -0.1942  0.1456
  821POPE   PO412270   1.705   5.343   5.724 -0.2408  0.1865 -0.0681
  821POPE   GL112271   1.669   5.593   6.149 -0.1418 -0.1268  0.1784
  821POPE   GL212272   1.828   5.839   6.231 -0.1219 -0.0498 -0.1214
  821POPE   C1A12273   1.446   5.510   6.426  0.0794 -0.1700 -0.1059
  821POPE   D2A12274   1.535   5.552   6.864 -0.0565  0.0812  0.3716
  821POPE   C3A12275   1.338   5.291   7.123  0.4286  0.1778  0.2699
  821POPE   C4A12276   1.148   5.017   7.396 -0.2608  0.4303 -0.0935
  821POPE   C1B12277   1.949   5.605   6.595 -0.4891  0.1322 -0.2768
  821POPE   C2B12278   2.421   5.519   6.769 -0.3180  0.0180 -0.0747
  821POPE   C3B12279   2.724   5.291   6.591 -0.0550  0.1215  0.0514
  821POPE   C4B12280   2.962   4.938   6.485 -0.1300  0.0628  0.3947
  822POPE   NH312281   2.305  11.711   5.172 -0.2882  0.1569  0.2619
  822POPE   PO412282   2.370  12.166   5.320 -0.0707  0.0186  0.1113
  822POPE   GL112283   2.383  12.238   5.688  0.0948  0.4022  0.0372
  822POPE   GL212284   2.255  12.064   5.864  0.1208 -0.1671 -0.0216
  822POPE   C1A12285   2.261  12.484   6.101  0.3759  0.2188 -0.0078
  822POPE   D2A12286   2.319  12.778   6.427  0.0455 -0.0391  0.2522
  822POPE   C3A12287   2.167  12.701   6.795 -0.2278 -0.1280 -0.1306
  822POPE   C4A12288   1.951  12.718   7.132  0.0332 -0.1481 -0.0448
  822POPE   C1B12289   1.911  12.048   6.260 -0.0791  0.0071  0.1416
  822POPE   C2B12290   1.872  11.785   6.612 -0.1196  0.1997 -0.2630
  822POPE   C3B12291   1.616  11.457   6.767  0.1605  0.1028 -0.1507
  822POPE   C4B12292   1.572  11.224   7.071  0.5215 -0.0206 -0.0670
  823POPE   NH312293   4.436   2.477   5.668 -0.0305 -0.0475  0.1371
  823POPE   PO412294   4.746   2.247   5.875 -0.0674 -0.1174  0.1134
  823POPE   GL112295   4.988   2.059   6.213  0.0410  0.1281 -0.3572
  823POPE   GL212296   4.620   1.866   6.372 -0.1902  0.0975  0.0560
  823POPE   C1A12297   4.937   2.078   6.647 -0.0412  0.3745 -0.2706
  823POPE   D2A12298   4.713   1.968   7.086 -0.4350  0.1637 -0.1367
  823POPE   C3A12299   4.886   2.005   7.538  0.1620 -0.0078  0.0250
  823POPE   C4A12300   4.836   1.941   7.949  0.1019 -0.1817 -0.2205
  823POPE   C1B12301   4.554   1.586   6.606 -0.2247  0.3375  0.0878
  823POPE   C2B12302   4.187   1.360   6.765  0.2500  0.3398 -0.0466
  823POPE   C3B12303   3.921   1.367   7.187  0.1754  0.0257  0.0163
  823POPE   C4B12304   3.743   1.313   7.605 -0.0044  0.0621  0.0362
  824POPE   NH312305   7.619   8.382   5.642 -0.0780 -0.2945  0.0633
  824POPE   PO412306   7.778   8.797   5.691  0.0132  0.0045  0.3953
  824POPE   GL112307   7.472   8.816   6.025 -0.3369 -0.4432  0.2972
  824POPE   GL212308   7.183   8.776   5.928  0.1018  0.2123 -0.0426
  824POPE   C1A12309   7.398   8.715   6.466 -0.1536 -0.1433 -0.0662
  824POPE   D2A12310   7.385   8.785   6.925  0.1632  0.1959  0.2962
  824POPE   C3A12311   7.818   8.639   7.126 -0.1448  0.1454 -0.0110
  824POPE   C4A12312   8.055   8.255   7.393  0.4500  0.0186 -0.4183
  824POPE   C1B12313   6.975   8.772   6.188  0.0910  0.0648 -0.0010
  824POPE   C2B12314   6.806   8.686   6.594 -0.0713 -0.0476  0.4368
  824POPE   C3B12315   6.565   8.504   6.800 -0.1706  0.3138  0.0073
  824POPE   C4B12316   6.286   8.242   7.094 -0.0723 -0.3321  0.1436
  825POPE   NH312317  12.875   1.978   5.337  0.0832  0.4176  0.2302
  825POPE   PO412318  13.103   1.480   5.249 -0.2446 -0.1672  0.2231
  825POPE   GL112319  13.366   1.713   5.657  0.3560  0.0309  0.0143
  825POPE   GL212320  13.214   2.094   5.697 -0.1980 -0.0798 -0.0506
  825POPE   C1A12321  13.465   1.761   6.065  0.0040 -0.0883 -0.1154
  825POPE   D2A12322  13.852   1.703   6.426 -0.0811 -0.2187  0.0375
  825POPE   C3A12323  13.930   1.761   6.882 -0.1576 -0.0607  0.1493
  825POPE   C4A12324  13.949   1.942   7.333 -0.0275  0.1909  0.2162
  825POPE   C1B12325  13.001   2.258   5.982 -0.1763  0.0776  0.0443
  825POPE   C2B12326  12.621   2.238   6.146  0.0277 -0.1155 -0.0375
  825POPE   C3B12327  12.201   2.483   6.123 -0.1686  0.0125  0.0016
  825POPE   C4B12328  11.908   2.784   6.318 -0.1019 -0.0708  0.0943
  826POPE   NH312329   1.294  15.015   5.638 -0.0157 -0.0583  0.0374
  826POPE   PO412330   0.822  15.328   5.626  0.0727  0.6436  0.0686
  826POPE   GL112331   0.927  15.261   6.007  0.1831  0.2173 -0.1441
  826POPE   GL212332   0.825  15.556   6.296  0.1135  0.0224  0.0768
  826POPE   C1A12333   1.244  15.157   6.333  0.0419  0.1255  0.1153
  826POPE   D2A12334   1.464  14.971   6.717 -0.0618  0.2130 -0.0638
  826POPE   C3A12335   1.464  14.756   7.131  0.2668 -0.2560  0.2405
  826POPE   C4A12336   1.524  14.600   7.424 -0.3205 -0.2183  0.3022
  826POPE   C1B12337   0.801  15.604   6.662 -0.2104  0.0993 -0.1274
  826POPE   C2B12338   0.567  15.427   6.926 -0.0262  0.0874 -0.2723
  826POPE   C3B12339   0.381  15.555   7.314 -0.0230 -0.0466  0.1291
  826POPE   C4B12340   0.204  15.574   7.712  0.4887 -0.0750  0.1534
  827POPE   NH312341   2.499  13.603   5.232  0.2285  0.1345 -0.1466
  827POPE   PO412342   2.862  13.869   5.278 -0.0558 -0.2103 -0.0528
  827POPE   GL112343   3.017  13.752   5.649 -0.0542  0.0458 -0.3014
  827POPE   GL212344   3.372  13.928   5.708 -0.3387  0.3062 -0.4584
  827POPE   C1A12345   3.001  13.853   6.105  0.1126 -0.1210 -0.2018
  827POPE   D2A12346   2.694  13.975   6.335 -0.2306  0.0213  0.0372
  827POPE   C3A12347   2.668  13.855   6.737  0.0380 -0.3249  0.0824
  827POPE   C4A12348   2.390  13.613   6.858  0.1775  0.0068  0.2241
  827POPE   C1B12349   3.628  13.803   6.042 -0.0362 -0.0779  0.0355
  827POPE   C2B12350   3.416  13.729   6.399 -0.0294  0.0004 -0.0520
  827POPE   C3B12351   3.248  13.657   6.724 -0.0440 -0.2125 -0.0394
  827POPE   C4B12352   3.108  13.958   7.039  0.0339 -0.1209  0.2123
  828POPE   NH312353  13.720  13.125   5.332 -0.1510 -0.0543 -0.3220
  828POPE   PO412354  14.161  13.278   5.409  0.1220  0.0898  0.1461
  828POPE   GL112355  14.012  13.109   5.816 -0.0922  0.1260  0.2793
  828POPE   GL212356  13.725  13.046   5.825  0.2896  0.0348  0.1530
  828POPE   C1A12357  14.247  13.098   6.249 -0.1719  0.0217  0.1751
  828POPE   D2A12358  14.459  12.969   6.681  0.2850  0.1247  0.0659
  828POPE   C3A12359  14.761  13.166   6.682 -0.1561  0.1912 -0.0108
  828POPE   C4A12360  15.073  13.443   6.948 -0.3264 -0.2263  0.1701
  828POPE   C1B12361  13.737  13.041   6.229 -0.1313  0.0293 -0.0771
  828POPE   C2B12362  13.923  13.002   6.635  0.0620  0.0023  0.1509
  828POPE   C3B12363  13.875  12.831   6.997  0.0742  0.1411 -0.1792
  828POPE   C4B12364  13.838  12.726   7.347  0.3266 -0.0760 -0.1006
  829POPE   NH312365   6.793   2.964   5.688  0.1651 -0.2469 -0.1424
  829POPE   PO412366   7.007   2.646   5.854 -0.0809 -0.4149 -0.0230
  829POPE   GL112367   7.156   2.385   6.087  0.0876  0.0178  0.1282
  829POPE   GL212368   6.935   2.466   6.327  0.3198  0.0680  0.2149
  829POPE   C1A12369   7.554   2.347   6.077  0.3488  0.5731  0.0553
  829POPE   D2A12370   7.886   2.008   5.963  0.1052 -0.0008  0.0056
  829POPE   C3A12371   8.299   2.043   6.174 -0.0154 -0.2062  0.0090
  829POPE   C4A12372   8.599   1.975   5.867  0.1562 -0.2926  0.0310
  829POPE   C1B12373   6.630   2.396   6.766 -0.2190 -0.3892 -0.0475
  829POPE   C2B12374   6.479   2.243   7.169 -0.2031  0.1837 -0.0994
  829POPE   C3B12375   6.184   2.180   7.483 -0.0081  0.2213 -0.0765
  829POPE   C4B12376   5.809   2.029   7.847 -0.0837  0.0074  0.0639
  830POPE   NH312377  12.129   4.713   5.244  0.2894 -0.0877 -0.3852
  830POPE   PO412378  11.835   5.108   5.563 -0.2544 -0.2270  0.2445
  830POPE   GL112379  11.961   5.003   5.943  0.1747 -0.1848 -0.0666
  830POPE   GL212380  12.011   4.704   5.924  0.2039  0.1803  0.1497
  830POPE   C1A12381  11.942   5.018   6.272 -0.1197  0.2631  0.0031
  830POPE   D2A12382  11.574   5.005   6.405  0.1411  0.0289  0.2679
  830POPE   C3A12383  11.560   4.624   6.708 -0.1749  0.4670  0.0026
  830POPE   C4A12384  12.004   4.754   6.721 -0.1006  0.2212 -0.2129
  830POPE   C1B12385  12.364   4.656   6.228 -0.1067 -0.1439  0.2317
  830POPE   C2B12386  12.810   4.604   6.333 -0.1936  0.1223  0.3075
  830POPE   C3B12387  13.058   4.476   6.623 -0.5486  0.2268  0.0189
  830POPE   C4B12388  13.172   4.759   7.012  0.3405  0.2387  0.0693
  831POPE   NH312389   4.659   3.883   5.595 -0.3314  0.2021  0.0361
  831POPE   PO412390   4.614   4.262   5.803  0.1160 -0.0336 -0.1646
  831POPE   GL112391   4.555   4.304   6.134  0.1615  0.1565  0.1570
  831POPE   GL212392   4.288   4.343   6.339 -0.2745  0.0073 -0.0230
  831POPE   C1A12393   4.741   4.444   6.481 -0.2280 -0.1360 -0.0576
  831POPE   D2A12394   4.765   4.401   6.889  0.1867  0.2925  0.1278
  831POPE   C3A12395   4.644   4.708   7.169  0.0281  0.0838  0.2021
  831POPE   C4A12396   4.506   4.788   7.621  0.1048  0.5174 -0.0266
  831POPE   C1B12397   4.226   4.605   6.708  0.1221 -0.1584 -0.1986
  831POPE   C2B12398   3.906   4.439   7.031  0.1440 -0.3666 -0.0118
  831POPE   C3B12399   3.770   4.079   7.269  0.2238  0.3379  0.1644
  831POPE   C4B12400   3.665   3.910   7.595  0.1078 -0.1474 -0.3165
  832POPE   NH312401  10.570   5.815   5.458 -0.0756  0.0314 -0.2780
  832POPE   PO412402  10.286   6.105   5.572  0.1132 -0.1949  0.7191
  832POPE   GL112403  10.307   5.844   5.908 -0.0186 -0.3326  0.2071
  832POPE   GL212404  10.403   6.021   6.201 -0.0105 -0.2946  0.0060
  832POPE   C1A12405  10.293   5.618   6.404 -0.4593  0.0064  0.2112
  832POPE   D2A12406  10.376   5.344   6.684  0.0139 -0.0067  0.0296
  832POPE   C3A12407  10.225   4.877   6.856  0.0719 -0.1177 -0.0114
  832POPE   C4A12408  10.063   4.642   6.710 -0.1067  0.0547  0.1821
  832POPE   C1B12409   9.924   6.019   6.228  0.2023 -0.3620 -0.3051
  832POPE   C2B12410   9.934   5.890   6.553  0.0211  0.3030 -0.1021
  832POPE   C3B12411   9.958   5.566   6.894 -0.0471 -0.1197 -0.1230
  832POPE   C4B12412   9.832   5.248   7.162 -0.2651  0.0539  0.1331
  833POPE   NH312413   0.497  10.049   5.336 -0.1280  0.2207  0.7760
  833POPE   PO412414   0.651   9.650   5.487 -0.0648  0.0743 -0.3500
  833POPE   GL112415   0.763   9.808   5.907  0.0384  0.0788 -0.2749
  833POPE   GL212416   0.773  10.142   5.881  0.1999  0.0748  0.0869
  833POPE   C1A12417   0.945   9.882   6.302 -0.1358  0.3394 -0.0077
  833POPE   D2A12418   0.801  10.114   6.680 -0.1645 -0.2086  0.0747
  833POPE   C3A12419   0.933  10.049   7.070  0.4571 -0.1588  0.0621
  833POPE   C4A12420   1.113  10.094   7.388  0.1965 -0.1104 -0.2218
  833POPE   C1B12421   0.540  10.185   6.218  0.1349  0.2094 -0.1038
  833POPE   C2B12422   0.268  10.059   6.594  0.1058  0.0426  0.1487
  833POPE   C3B12423   0.221   9.765   6.918 -0.0870 -0.0330 -0.2645
  833POPE   C4B12424   0.122   9.460   7.216  0.1687 -0.0086  0.1354
  834POPE   NH312425   3.435  17.340   5.549  0.2153  0.1268 -0.7177
  834POPE   PO412426   3.436  16.826   5.501 -0.0116  0.2522  0.5945
  834POPE   GL112427   3.529  16.886   5.860 -0.0564  0.0367 -0.0370
  834POPE   GL212428   3.812  17.112   5.821 -0.1701  0.1110  0.2477
  834POPE   C1A12429   3.655  16.739   6.243 -0.2058 -0.1086  0.2073
  834POPE   D2A12430   3.762  16.954   6.662  0.1687 -0.2027  0.0823
  834POPE   C3A12431   3.438  16.843   7.071 -0.1563  0.0404  0.3807
  834POPE   C4A12432   3.585  16.562   7.247  0.1669  0.1198  0.0284
  834POPE   C1B12433   3.950  17.151   6.220 -0.0883 -0.1849  0.3865
  834POPE   C2B12434   4.070  17.333   6.602 -0.0372 -0.1282 -0.0097
  834POPE   C3B12435   4.241  17.458   6.983 -0.4981 -0.0495 -0.0047
  834POPE   C4B12436   4.156  17.501   7.398 -0.0283  0.1225  0.0765
  835POPE   NH312437  10.652  17.245   5.197  0.0086 -0.2946 -0.0438
  835POPE   PO412438  10.981  17.179   5.327 -0.2142 -0.1007  0.2743
  835POPE   GL112439  11.225  17.232   5.631  0.5205 -0.0453 -0.1019
  835POPE   GL212440  11.285  16.891   5.601 -0.2081  0.0402  0.0845
  835POPE   C1A12441  11.223  17.424   6.027  0.1737 -0.1015  0.0846
  835POPE   D2A12442  11.250  17.701   6.380 -0.1868  0.4601 -0.0578
  835POPE   C3A12443  10.932  17.871   6.656 -0.0102 -0.0385 -0.0079
  835POPE   C4A12444  10.658  17.838   7.051 -0.2063 -0.0619 -0.0929
  835POPE   C1B12445  11.556  16.703   5.799  0.1282  0.0187 -0.0979
  835POPE   C2B12446  11.440  16.942   6.136  0.0968 -0.0311  0.1903
  835POPE   C3B12447  11.322  17.050   6.519  0.1797 -0.0297 -0.2478
  835POPE   C4B12448  11.502  17.195   6.819  0.0550  0.2596  0.0993
  836POPE   NH312449  16.483  11.232   6.042  0.1725 -0.0662 -0.2428
  836POPE   PO412450  16.117  11.453   6.061 -0.2755 -0.2198  0.3737
  836POPE   GL112451  15.781  11.597   6.302 -0.0369 -0.1827 -0.0721
  836POPE   GL212452  15.447  11.538   6.136 -0.2738  0.2106  0.2165
  836POPE   C1A12453  15.487  11.517   6.638  0.1329  0.1094 -0.0993
  836POPE   D2A12454  15.346  11.422   6.928 -0.5127  0.1377 -0.3359
  836POPE   C3A12455  15.218  11.323   7.351 -0.1309 -0.3513 -0.1145
  836POPE   C4A12456  15.100  11.149   7.801 -0.2021 -0.0954 -0.0906
  836POPE   C1B12457  15.127  11.777   6.326 -0.0459  0.0624 -0.0329
  836POPE   C2B12458  15.069  12.047   6.589  0.0086 -0.0338  0.0849
  836POPE   C3B12459  15.266  11.945   6.919  0.0146 -0.2420 -0.1453
  836POPE   C4B12460  15.615  12.124   7.177 -0.1617  0.2834  0.2537
  837POPE   NH312461  18.679  12.942   5.503  0.1184  0.3233  0.1184
  837POPE   PO412462  18.282  12.632   5.534  0.0282  0.3034  0.2099
  837POPE   GL112463  18.214  12.316   5.888  0.1042 -0.0184 -0.3215
  837POPE   GL212464  18.145  11.994   5.907  0.4259 -0.2020 -0.2366
  837POPE   C1A12465  18.405  12.368   6.294  0.2099  0.2262 -0.0355
  837POPE   D2A12466  18.392  12.873   6.577  0.0762 -0.1380  0.3752
  837POPE   C3A12467  18.424  12.951   7.058  0.0970  0.0515 -0.1359
  837POPE   C4A12468  18.584  12.896   7.506 -0.2043 -0.4890  0.1216
  837POPE   C1B12469  18.281  11.836   6.272  0.0950 -0.0817  0.0264
  837POPE   C2B12470  18.465  11.645   6.654 -0.0939 -0.0689 -0.1264
  837POPE   C3B12471  18.338  11.496   7.062  0.0227 -0.0439 -0.0220
  837POPE   C4B12472  18.517  11.093   7.251  0.0086 -0.1490  0.0863
  838POPE   NH312473  12.457  15.374   5.443 -0.0212 -0.3333  0.0515
  838POPE   PO412474  12.660  15.705   5.436 -0.0820 -0.0144  0.1188
  838POPE   GL112475  12.732  15.727   5.789  0.1733 -0.1021 -0.2068
  838POPE   GL212476  12.442  15.667   5.992 -0.1091 -0.2023  0.1999
  838POPE   C1A12477  12.829  16.025   6.090  0.0095  0.2504  0.3132
  838POPE   D2A12478  12.666  16.175   6.460 -0.0118  0.1100  0.0130
  838POPE   C3A12479  12.235  15.991   6.805 -0.0181 -0.1072  0.1632
  838POPE   C4A12480  11.832  15.787   6.795  0.1295  0.1139 -0.4307
  838POPE   C1B12481  12.425  15.722   6.368  0.1921  0.1365 -0.0281
  838POPE   C2B12482  12.483  15.509   6.701 -0.0872 -0.0742 -0.3107
  838POPE   C3B12483  12.251  15.519   7.086  0.3840 -0.2073  0.2218
  838POPE   C4B12484  11.892  15.281   7.193  0.3247  0.1506 -0.3147
  839POPE   NH312485   7.119  17.149   5.255 -0.1171 -0.2238  0.2031
  839POPE   PO412486   6.971  16.757   5.393  0.1945 -0.1098 -0.0869
  839POPE   GL112487   7.015  16.573   5.761 -0.1235  0.2674  0.0059
  839POPE   GL212488   6.882  16.342   5.855 -0.1708 -0.0159  0.1081
  839POPE   C1A12489   7.239  16.727   6.128  0.0321  0.2325 -0.3710
  839POPE   D2A12490   7.439  16.794   6.436  0.1567 -0.3605 -0.1121
  839POPE   C3A12491   7.159  16.935   6.820 -0.0216 -0.0000 -0.2636
  839POPE   C4A12492   6.891  17.066   7.091  0.0110 -0.1035  0.0665
  839POPE   C1B12493   6.675  16.229   6.083  0.0838 -0.1212 -0.2433
  839POPE   C2B12494   6.404  16.291   6.302 -0.0256 -0.0559  0.3769
  839POPE   C3B12495   6.076  16.030   6.471 -0.1758 -0.1976 -0.1196
  839POPE   C4B12496   5.975  15.903   6.969  0.0989  0.0158 -0.1541
  840POPE   NH312497   8.324  18.986   5.542 -0.1423 -0.4363  0.0227
  840POPE   PO412498   8.245  18.512   5.499  0.2253 -0.0579 -0.1938
  840POPE   GL112499   8.219  18.500   5.905  0.1486  0.0636  0.1811
  840POPE   GL212500   8.489  18.692   5.884  0.0778  0.1052  0.2595
  840POPE   C1A12501   8.152  18.618   6.361 -0.1649 -0.0153  0.2249
  840POPE   D2A12502   7.969  18.593   6.760  0.1529 -0.0114  0.2493
  840POPE   C3A12503   8.138  18.929   6.975 -0.1300 -0.0772 -0.0730
  840POPE   C4A12504   8.505  19.053   7.370  0.0418 -0.1323 -0.3859
  840POPE   C1B12505   8.660  18.526   6.259  0.0674  0.0672 -0.1813
  840POPE   C2B12506   8.928  18.356   6.590 -0.3050  0.2110  0.1447
  840POPE   C3B12507   9.100  18.287   7.020 -0.0140  0.0099  0.1042
  840POPE   C4B12508   9.402  18.465   7.230  0.1494 -0.0760  0.2695
  841POPE   NH312509   1.024   6.018   5.274 -0.1200  0.0246  0.0226
  841POPE   PO412510   1.407   6.062   5.349 -0.2263 -0.2268 -0.0614
  841POPE   GL112511   1.385   5.751   5.744  0.1040 -0.1775  0.3342
  841POPE   GL212512   1.173   5.557   5.961 -0.4331 -0.4662  0.3279
  841POPE   C1A12513   1.380   6.003   6.103 -0.0005 -0.3427  0.1964
  841POPE   D2A12514   1.494   6.409   6.095  0.0476  0.0947  0.1586
  841POPE   C3A12515   1.321   6.810   6.317  0.2096  0.0213  0.3300
  841POPE   C4A12516   1.234   6.924   6.733  0.0988 -0.0914 -0.1783
  841POPE   C1B12517   1.024   5.705   6.336  0.1718 -0.2387 -0.2235
  841POPE   C2B12518   0.768   5.900   6.607  0.2128 -0.2598  0.0778
  841POPE   C3B12519   0.744   6.079   7.023  0.0044  0.0412 -0.0202
  841POPE   C4B12520   0.530   6.126   7.452  0.1624  0.3869  0.2082
  842POPE   NH312521   6.102   4.441   5.850  0.2425 -0.1642  0.1298
  842POPE   PO412522   6.352   4.243   5.551  0.3949  0.0387  0.1467
  842POPE   GL112523   6.582   4.181   5.802  0.0460 -0.2014  0.2819
  842POPE   GL212524   6.833   4.281   5.679 -0.3124 -0.0368  0.0605
  842POPE   C1A12525   6.685   4.042   6.230  0.1697 -0.1205 -0.0544
  842POPE   D2A12526   6.988   4.036   6.480  0.0076  0.3678  0.2554
  842POPE   C3A12527   7.205   3.655   6.698 -0.3050  0.0667 -0.0771
  842POPE   C4A12528   7.106   3.259   6.843 -0.0958 -0.0238  0.2978
  842POPE   C1B12529   7.108   4.278   6.036  0.4169  0.0760  0.2097
  842POPE   C2B12530   7.037   4.542   6.362 -0.1106 -0.0789  0.1119
  842POPE   C3B12531   7.117   4.828   6.565  0.0422 -0.3575 -0.0771
  842POPE   C4B12532   7.177   5.009   6.921 -0.0358 -0.1492 -0.0189
  843POPE   NH312533  18.715   0.025   5.658  0.0831  0.2828 -0.1501
  843POPE   PO412534  18.744   0.491   5.738  0.2338 -0.3260  0.0111
  843POPE   GL112535  18.820   0.241   6.098 -0.0330  0.2242 -0.0303
  843POPE   GL212536  18.663  -0.136   6.139  0.2888 -0.0972 -0.3331
  843POPE   C1A12537  18.974   0.327   6.499  0.4416 -0.0714  0.2873
  843POPE   D2A12538  18.779   0.529   6.851 -0.3363  0.1565  0.0798
  843POPE   C3A12539  18.953   0.507   7.238  0.2230  0.0426 -0.0258
  843POPE   C4A12540  19.200   0.243   7.526  0.1724 -0.1987 -0.2287
  843POPE   C1B12541  18.671  -0.031   6.563  0.0193  0.0519 -0.1475
  843POPE   C2B12542  18.728   0.033   6.930  0.2385  0.2773  0.0906
  843POPE   C3B12543  18.512   0.315   7.185  0.2155 -0.0121 -0.0360
  843POPE   C4B12544  18.283   0.216   7.526  0.0297 -0.1812  0.1589
  844POPE   NH312545  12.379  12.973   5.874  0.1328  0.1020 -0.0437
  844POPE   PO412546  12.591  12.979   5.638  0.0185 -0.0529  0.1634
  844POPE   GL112547  12.767  12.742   6.012  0.1069  0.3141  0.3038
  844POPE   GL212548  12.960  12.402   6.043  0.1264 -0.0228  0.0997
  844POPE   C1A12549  12.794  12.795   6.474  0.0274  0.0653  0.1689
  844POPE   D2A12550  12.740  12.583   6.868 -0.0818  0.2401 -0.1000
  844POPE   C3A12551  12.805  12.787   7.274  0.0198 -0.1117  0.1287
  844POPE   C4A12552  12.902  12.943   7.713  0.1546  0.3120  0.0686
  844POPE   C1B12553  12.912  12.264   6.432  0.0806 -0.1965  0.0532
  844POPE   C2B12554  13.070  12.216   6.811 -0.3079 -0.1721 -0.1841
  844POPE   C3B12555  12.878  12.179   7.174 -0.0436 -0.2108  0.2464
  844POPE   C4B12556  12.706  12.342   7.495  0.2355 -0.0517  0.1251
  845POPE   NH312557  11.566   1.269   5.370  0.1606  0.1500  0.2590
  845POPE   PO412558  11.565   0.811   5.499  0.2149 -0.0306  0.1716
  845POPE   GL112559  11.585   0.946   5.829  0.3744  0.3006  0.1754
  845POPE   GL212560  11.457   1.198   5.873 -0.1202  0.0719 -0.2235
  845POPE   C1A12561  11.866   1.027   6.057 -0.2079  0.2883  0.3986
  845POPE   D2A12562  11.766   1.009   6.451 -0.0048  0.0984  0.0692
  845POPE   C3A12563  11.579   1.163   6.798  0.3288  0.1316  0.3281
  845POPE   C4A12564  11.275   1.455   6.932 -0.0714  0.0242  0.1713
  845POPE   C1B12565  11.633   1.481   6.299  0.1379  0.0825 -0.1270
  845POPE   C2B12566  11.600   1.719   6.581 -0.0953  0.2657  0.0791
  845POPE   C3B12567  11.569   1.857   7.012  0.0519  0.1505 -0.0669
  845POPE   C4B12568  11.657   2.273   7.097  0.0647 -0.1981  0.2481
  846POPE   NH312569   4.586  14.186   5.011 -0.0279  0.2343  0.0859
  846POPE   PO412570   4.918  14.227   5.163 -0.0648  0.1492  0.1228
  846POPE   GL112571   4.791  14.179   5.600  0.1019  0.0948  0.1415
  846POPE   GL212572   4.538  14.158   5.746 -0.0230 -0.1073  0.1024
  846POPE   C1A12573   4.990  14.314   6.080  0.1597 -0.0124  0.0137
  846POPE   D2A12574   5.419  14.186   6.094 -0.2336  0.1480 -0.1046
  846POPE   C3A12575   5.685  14.070   6.375  0.2175  0.1606 -0.2600
  846POPE   C4A12576   6.010  13.908   6.385 -0.0702  0.1500 -0.1936
  846POPE   C1B12577   4.636  13.912   6.100 -0.0857  0.2248  0.0326
  846POPE   C2B12578   4.416  13.706   6.363 -0.5177 -0.1369 -0.1604
  846POPE   C3B12579   4.144  13.828   6.688 -0.0628 -0.0317  0.1134
  846POPE   C4B12580   4.131  14.286   6.673  0.0262 -0.1475  0.1955
  847POPE   NH312581  16.941  14.283   5.758 -0.0696 -0.3738 -0.1656
  847POPE   PO412582  16.685  14.628   5.979  0.0731 -0.2083  0.3072
  847POPE   GL112583  16.776  14.572   6.349 -0.2001  0.2142 -0.0988
  847POPE   GL212584  17.130  14.437   6.216 -0.1245  0.0933  0.1126
  847POPE   C1A12585  16.651  14.610   6.749  0.1448 -0.1224 -0.1587
  847POPE   D2A12586  16.703  14.642   7.195  0.3781 -0.1858  0.2559
  847POPE   C3A12587  16.701  15.080   7.494 -0.0951 -0.0603  0.1389
  847POPE   C4A12588  16.859  15.325   7.876 -0.3357  0.0212 -0.2496
  847POPE   C1B12589  17.114  14.358   6.736 -0.1719  0.1277 -0.1357
  847POPE   C2B12590  17.400  14.513   7.033  0.0455 -0.0357  0.2458
  847POPE   C3B12591  17.643  14.291   7.435  0.3041 -0.2766  0.3648
  847POPE   C4B12592  17.723  14.119   7.858  0.0968  0.2271  0.4610
  848POPE   NH312593  11.751  15.011   5.703 -0.3303  0.0334 -0.1137
  848POPE   PO412594  11.985  15.314   5.527  0.2390 -0.1791 -0.0965
  848POPE   GL112595  12.239  15.083   5.854 -0.0423 -0.1427 -0.0784
  848POPE   GL212596  12.091  14.752   5.905  0.0990  0.0537 -0.0993
  848POPE   C1A12597  12.428  15.163   6.226 -0.2861  0.0120  0.0483
  848POPE   D2A12598  12.470  14.938   6.544 -0.1462 -0.1293  0.0265
  848POPE   C3A12599  12.409  15.079   6.970  0.0951  0.1911 -0.0457
  848POPE   C4A12600  12.468  15.220   7.496  0.0177  0.0718  0.1942
  848POPE   C1B12601  12.047  14.690   6.330  0.1216  0.0239  0.0456
  848POPE   C2B12602  12.269  14.537   6.691  0.2871  0.0611 -0.0538
  848POPE   C3B12603  12.384  14.436   7.040 -0.0527 -0.1577 -0.0405
  848POPE   C4B12604  12.518  14.257   7.430 -0.0780 -0.0036  0.0240
  849POPE   NH312605   5.440   3.493   5.863 -0.2291 -0.1327 -0.1751
  849POPE   PO412606   5.873   3.636   5.787 -0.2437 -0.1522  0.0927
  849POPE   GL112607   5.891   3.502   6.271 -0.0993 -0.1716 -0.0234
  849POPE   GL212608   5.613   3.419   6.320  0.3820 -0.1995  0.4091
  849POPE   C1A12609   6.219   3.612   6.538  0.0746  0.2445  0.0359
  849POPE   D2A12610   6.301   3.906   6.716 -0.3593 -0.0775  0.1329
  849POPE   C3A12611   6.636   4.205   6.782  0.2569 -0.4554 -0.2434
  849POPE   C4A12612   7.052   4.412   6.817  0.2083  0.0229  0.1331
  849POPE   C1B12613   5.719   3.495   6.804 -0.0771 -0.0203  0.2839
  849POPE   C2B12614   5.908   3.626   7.061 -0.0815  0.1754 -0.0482
  849POPE   C3B12615   6.087   3.940   7.234 -0.1226  0.2061  0.1077
  849POPE   C4B12616   6.557   4.089   7.277  0.1321 -0.1029  0.2210
  850POPE   NH312617   5.697  16.745   5.692 -0.1579 -0.0469  0.1131
  850POPE   PO412618   6.046  16.509   5.804  0.1636  0.3289  0.3770
  850POPE   GL112619   5.925  16.492   6.215 -0.1910  0.3871  0.0525
  850POPE   GL212620   5.680  16.770   6.311 -0.3036 -0.0575 -0.0870
  850POPE   C1A12621   6.020  16.429   6.764 -0.0982  0.4088 -0.1050
  850POPE   D2A12622   5.913  16.395   7.184  0.1960  0.2407  0.0916
  850POPE   C3A12623   6.087  16.103   7.415 -0.1089 -0.0873 -0.1046
  850POPE   C4A12624   5.940  15.675   7.489 -0.1810  0.1387 -0.1145
  850POPE   C1B12625   5.623  17.128   6.644  0.0776 -0.3051  0.1957
  850POPE   C2B12626   5.695  17.586   6.838 -0.1023  0.1998 -0.2611
  850POPE   C3B12627   5.914  17.643   7.230  0.4898 -0.2537  0.2849
  850POPE   C4B12628   6.113  17.529   7.646  0.0002  0.1999  0.1247
  851YOPE   NH312629   7.219  17.827   5.666  0.1935  0.1146 -0.1857
  851YOPE   PO412630   7.399  17.431   5.724 -0.3451  0.0343  0.3662
  851YOPE   GL112631   7.233  17.546   6.100  0.2708 -0.0275  0.0048
  851YOPE   GL212632   7.329  17.796   6.185 -0.1671 -0.1372  0.0732
  851YOPE   C1A12633   7.037  17.594   6.488  0.1885  0.2947  0.1474
  851YOPE   D2A12634   7.011  17.485   6.852  0.1429  0.3309 -0.1121
  851YOPE   C3A12635   7.364  17.384   7.100 -0.2847 -0.0574 -0.0729
  851YOPE   C4A12636   7.784  17.428   7.174  0.0643 -0.5562 -0.1789
  851YOPE   C1B12637   7.412  18.200   6.350  0.3836  0.0566 -0.2784
  851YOPE   C2B12638   7.528  18.375   6.785 -0.0538 -0.2021 -0.3094
  851YOPE   D3B12639   7.489  18.866   6.998  0.1422  0.1355  0.2315
  851YOPE   C4B12640   7.218  18.992   7.353 -0.2861 -0.2808 -0.2135
  852YOPE   NH312641   0.438  13.250   5.896 -0.2487  0.4536 -0.1071
  852YOPE   PO412642   0.077  12.861   5.791 -0.0702  0.0357  0.1898
  852YOPE   GL112643   0.004  13.133   6.169  0.2389 -0.1355 -0.0499
  852YOPE   GL212644   0.168  13.077   6.359  0.3199 -0.0462 -0.2566
  852YOPE   C1A12645  -0.179  13.449   6.243 -0.0411 -0.1537 -0.2346
  852YOPE   D2A12646  -0.492  13.532   6.462 -0.0035  0.2762  0.1533
  852YOPE   C3A12647  -0.236  13.461   6.881  0.1539 -0.1106  0.1915
  852YOPE   C4A12648  -0.326  13.489   7.384 -0.0690  0.2157 -0.1066
  852YOPE   C1B12649   0.288  13.257   6.770  0.0055  0.1613 -0.1174
  852YOPE   C2B12650   0.257  13.448   7.195  0.2046 -0.0609 -0.1738
  852YOPE   D3B12651   0.256  13.808   7.380 -0.0381 -0.0029 -0.1237
  852YOPE   C4B12652   0.621  14.107   7.553  0.1064  0.2363  0.1951
  853YOPE   NH312653   9.135  18.704   5.136  0.0451 -0.2211 -0.1743
  853YOPE   PO412654   9.167  18.249   5.265 -0.0444 -0.2476 -0.2855
  853YOPE   GL112655   9.189  18.501   5.667  0.0253  0.0196  0.2371
  853YOPE   GL212656   9.285  18.826   5.643  0.1696  0.2001 -0.1415
  853YOPE   C1A12657   9.228  18.488   6.091  0.1381 -0.1928  0.1735
  853YOPE   D2A12658   9.346  18.739   6.382  0.2552  0.2083  0.2000
  853YOPE   C3A12659   9.623  18.729   6.660  0.0486 -0.0663  0.1007
  853YOPE   C4A12660  10.042  18.824   6.886 -0.1078  0.4092 -0.0162
  853YOPE   C1B12661   9.031  18.896   5.932  0.2423  0.0230  0.0621
  853YOPE   C2B12662   8.875  18.926   6.364  0.1372  0.2627  0.0983
  853YOPE   D3B12663   8.894  19.277   6.643  0.1091  0.5799  0.0383
  853YOPE   C4B12664   8.906  19.399   7.059  0.3653 -0.0080  0.0670
  854YOPE   NH312665   0.081   2.802   5.812 -0.2626  0.1617 -0.0764
  854YOPE   PO412666   0.360   2.422   5.740  0.4205 -0.0385 -0.1768
  854YOPE   GL112667   0.178   2.412   6.144  0.1354  0.0091  0.1765
  854YOPE   GL212668   0.178   2.707   6.427 -0.1585 -0.0002  0.5048
  854YOPE   C1A12669   0.335   1.996   6.330 -0.1009 -0.0857  0.1578
  854YOPE   D2A12670   0.472   1.886   6.767 -0.0716  0.3521 -0.1728
  854YOPE   C3A12671   0.945   1.928   6.734  0.1312 -0.0988 -0.1373
  854YOPE   C4A12672   1.300   2.011   6.445 -0.2095 -0.0681 -0.1515
  854YOPE   C1B12673   0.450   2.473   6.728  0.2223  0.0578  0.2082
  854YOPE   C2B12674   0.774   2.395   6.948 -0.1340  0.2267 -0.0779
  854YOPE   D3B12675   0.760   1.987   7.196 -0.1544 -0.0982  0.2307
  854YOPE   C4B12676   0.670   1.572   7.176 -0.2297 -0.1127  0.2639
  855YOPE   NH312677  18.892   2.219   5.808 -0.1153  0.0788  0.0649
  855YOPE   PO412678  19.041   1.823   5.645 -0.2829  0.1345 -0.1206
  855YOPE   GL112679  19.013   1.657   6.088  0.0585 -0.0676  0.0655
  855YOPE   GL212680  18.846   1.825   6.121 -0.1517  0.4660  0.1499
  855YOPE   C1A12681  19.106   1.510   6.485  0.0124 -0.3556 -0.1084
  855YOPE   D2A12682  18.998   1.191   6.752 -0.1294  0.0366  0.0326
  855YOPE   C3A12683  18.600   0.973   6.704  0.0681  0.0048 -0.1165
  855YOPE   C4A12684  18.403   0.788   6.977 -0.1595  0.4307  0.2276
  855YOPE   C1B12685  18.862   2.058   6.470  0.1400 -0.1643 -0.0062
  855YOPE   C2B12686  18.941   2.201   6.856  0.0213  0.4092 -0.2614
  855YOPE   D3B12687  19.293   2.262   7.164  0.2333 -0.2474 -0.1187
  855YOPE   C4B12688  19.225   2.254   7.507 -0.0181  0.0395 -0.2212
  856YOPE   NH312689   8.352  16.091   5.494  0.1296 -0.3309 -0.0185
  856YOPE   PO412690   8.275  16.559   5.455 -0.2001 -0.0276 -0.4056
  856YOPE   GL112691   8.372  16.549   5.853  0.3235 -0.0519  0.2791
  856YOPE   GL212692   8.598  16.382   5.908  0.0228  0.0009 -0.0220
  856YOPE   C1A12693   8.236  16.599   6.167 -0.2867 -0.0339 -0.4340
  856YOPE   D2A12694   8.294  16.476   6.611 -0.1078 -0.1492  0.1383
  856YOPE   C3A12695   8.171  16.586   6.960 -0.0234 -0.0359  0.0206
  856YOPE   C4A12696   8.155  16.652   7.371 -0.3451 -0.4655 -0.1298
  856YOPE   C1B12697   8.701  16.430   6.398  0.0085 -0.4557  0.1072
  856YOPE   C2B12698   8.985  16.549   6.752  0.1462  0.0402  0.1308
  856YOPE   D3B12699   8.920  16.422   7.107 -0.3377  0.1592 -0.2627
  856YOPE   C4B12700   8.555  16.293   7.261 -0.0341 -0.2533 -0.0476
  857YOPE   NH312701   9.795   7.715   5.507  0.1165 -0.3189  0.0195
  857YOPE   PO412702   9.568   7.900   5.778  0.2931 -0.3159  0.1508
  857YOPE   GL112703   9.589   8.104   6.177 -0.0196  0.2238 -0.0924
  857YOPE   GL212704   9.701   8.472   6.147  0.3812 -0.1104  0.0836
  857YOPE   C1A12705   9.612   8.136   6.613  0.0916 -0.0398  0.1810
  857YOPE   D2A12706   9.722   8.298   6.990  0.0242  0.1653  0.0986
  857YOPE   C3A12707   9.550   7.947   7.346 -0.0179  0.0337  0.1057
  857YOPE   C4A12708   9.817   7.829   7.680 -0.4442  0.3466 -0.3726
  857YOPE   C1B12709   9.980   8.456   6.534 -0.3370  0.1525 -0.2740
  857YOPE   C2B12710  10.183   8.450   6.885  0.2229 -0.0837 -0.3159
  857YOPE   D3B12711  10.466   8.534   7.330 -0.0045 -0.0579 -0.3307
  857YOPE   C4B12712  10.814   8.328   7.607  0.0162 -0.0065  0.0177
  858YOPE   NH312713   4.453  12.646   5.864 -0.1951  0.0370  0.0084
  858YOPE   PO412714   4.043  12.518   6.134  0.0298  0.0384  0.1172
  858YOPE   GL112715   3.949  12.280   6.475 -0.5310 -0.1928  0.2339
  858YOPE   GL212716   3.628  12.226   6.610 -0.2302  0.2002  0.0279
  858YOPE   C1A12717   3.938  11.878   6.663 -0.3374  0.1346 -0.0564
  858YOPE   D2A12718   3.990  11.905   7.127  0.0837  0.0248  0.2526
  858YOPE   C3A12719   4.233  12.069   7.433  0.2398  0.2129 -0.1353
  858YOPE   C4A12720   4.586  12.389   7.649 -0.0130  0.1189  0.3973
  858YOPE   C1B12721   3.143  12.237   6.504  0.1256 -0.1947 -0.1350
  858YOPE   C2B12722   2.823  12.044   6.710 -0.1390 -0.3434 -0.1948
  858YOPE   D3B12723   2.841  12.023   7.059  0.0836 -0.1182  0.1921
  858YOPE   C4B12724   3.168  11.799   7.303  0.1836 -0.0658 -0.1976
  859YOPE   NH312725   1.710   4.228   6.163  0.0164 -0.3455 -0.2119
  859YOPE   PO412726   1.403   3.822   6.053 -0.0700  0.2195  0.2875
  859YOPE   GL112727   1.550   3.628   6.474  0.0934 -0.0779  0.5432
  859YOPE   GL212728   1.679   3.332   6.369  0.0978 -0.0543 -0.1244
  859YOPE   C1A12729   1.538   3.774   6.904  0.4239 -0.3049  0.0399
  859YOPE   D2A12730   1.579   4.076   7.269  0.2370 -0.4373 -0.0401
  859YOPE   C3A12731   1.442   3.876   7.530  0.1243  0.0229 -0.1369
  859YOPE   C4A12732   1.196   3.680   7.892 -0.0172  0.0574 -0.0048
  859YOPE   C1B12733   1.720   3.153   6.722 -0.2245  0.1244  0.2037
  859YOPE   C2B12734   1.932   3.089   7.101 -0.0418 -0.3594  0.0956
  859YOPE   D3B12735   2.006   2.983   7.500 -0.1653  0.1313  0.2638
  859YOPE   C4B12736   1.848   2.672   7.776 -0.0507  0.2020 -0.0854
  860YOPE   NH312737  10.102   1.455   5.364  0.2163  0.2729 -0.2463
  860YOPE   PO412738  10.151   1.063   5.461  0.0858 -0.2661  0.0460
  860YOPE   GL112739  10.155   0.845   5.835  0.1266 -0.2136  0.0147
  860YOPE   GL212740  10.093   0.874   6.183  0.1357 -0.0745 -0.4173
  860YOPE   C1A12741  10.574   0.599   6.010  0.0621 -0.2649 -0.0798
  860YOPE   D2A12742  10.872   0.606   6.347 -0.3885  0.0453  0.0136
  860YOPE   C3A12743  10.755   0.596   6.741  0.4199  0.0812 -0.0639
  860YOPE   C4A12744  10.586   0.859   7.101 -0.1779 -0.0522  0.3627
  860YOPE   C1B12745  10.111   1.058   6.597 -0.1466  0.1073 -0.1848
  860YOPE   C2B12746  10.201   1.306   6.849 -0.1097 -0.2421 -0.1541
  860YOPE   D3B12747  10.194   1.550   7.199  0.0424  0.3549 -0.3308
  860YOPE   C4B12748   9.806   1.627   7.359  0.2343 -0.2372  0.1081
  861YOPE   NH312749  14.380  15.799   5.293  0.1227  0.2052 -0.0864
  861YOPE   PO412750  14.555  15.460   5.508  0.0213  0.2219 -0.5139
  861YOPE   GL112751  14.321  15.375   5.846  0.1991 -0.1263  0.0237
  861YOPE   GL212752  14.219  15.041   6.048 -0.0301  0.1300  0.1037
  861YOPE   C1A12753  14.224  15.515   6.293  0.1493 -0.1647 -0.3733
  861YOPE   D2A12754  13.879  15.803   6.518  0.2204 -0.1580 -0.1803
  861YOPE   C3A12755  13.581  15.763   6.887 -0.2916  0.0136  0.2639
  861YOPE   C4A12756  13.365  15.437   7.138  0.2080  0.4023  0.0455
  861YOPE   C1B12757  14.203  14.992   6.523  0.1037  0.2509  0.2482
  861YOPE   C2B12758  14.120  14.835   6.887  0.1168 -0.1159 -0.1276
  861YOPE   D3B12759  14.252  14.545   7.219  0.3176  0.3967  0.0166
  861YOPE   C4B12760  14.316  14.357   7.645  0.1695  0.2045  0.1745
  862YOPE   NH312761  18.765   8.382   5.050 -0.0819  0.0205 -0.2037
  862YOPE   PO412762  19.040   8.315   5.369  0.2280  0.0686  0.3344
  862YOPE   GL112763  18.908   8.274   5.807  0.0333 -0.1602  0.0460
  862YOPE   GL212764  19.130   8.220   5.934 -0.0257  0.0107  0.3013
  862YOPE   C1A12765  18.734   8.407   6.107 -0.0878  0.1033 -0.2460
  862YOPE   D2A12766  18.659   8.511   6.460 -0.1450  0.2031  0.0750
  862YOPE   C3A12767  18.468   8.490   6.788 -0.0016  0.2130  0.2612
  862YOPE   C4A12768  18.340   8.446   7.161 -0.2483  0.0094 -0.1210
  862YOPE   C1B12769  19.117   8.156   6.265 -0.2463  0.3058  0.0811
  862YOPE   C2B12770  19.019   8.139   6.650 -0.2020 -0.0318  0.0065
  862YOPE   D3B12771  18.797   8.242   6.973  0.4870 -0.3792  0.2128
  862YOPE   C4B12772  18.753   8.329   7.372  0.0663 -0.1316  0.0337
  863YOPE   NH312773   3.459  13.586   5.333 -0.3355  0.3223 -0.2915
  863YOPE   PO412774   3.864  13.849   5.342  0.0312 -0.0161  0.0152
  863YOPE   GL112775   4.032  13.909   5.723 -0.1528  0.0218  0.0613
  863YOPE   GL212776   4.150  13.652   5.979  0.5990  0.0999 -0.0560
  863YOPE   C1A12777   4.006  14.101   6.216 -0.2754 -0.1250 -0.3026
  863YOPE   D2A12778   3.651  14.160   6.427  0.1082  0.1397 -0.2715
  863YOPE   C3A12779   3.709  14.019   6.813 -0.1515 -0.1050  0.1058
  863YOPE   C4A12780   3.805  13.715   7.186 -0.1170  0.1292  0.1726
  863YOPE   C1B12781   3.965  13.507   6.341 -0.1357  0.0814  0.0260
  863YOPE   C2B12782   3.734  13.475   6.737  0.2120  0.1310  0.0955
  863YOPE   D3B12783   3.602  13.204   7.098 -0.1548  0.3799 -0.0934
  863YOPE   C4B12784   3.319  13.252   7.474 -0.0757  0.0320  0.2075
  864YOPE   NH312785  17.467  15.144   5.704 -0.4068 -0.3539 -0.0860
  864YOPE   PO412786  17.565  15.441   5.974 -0.0931 -0.3714  0.1430
  864YOPE   GL112787  17.395  15.557   6.387 -0.4269  0.1876  0.2613
  864YOPE   GL212788  17.161  15.860   6.412  0.0413 -0.5697  0.3541
  864YOPE   C1A12789  17.393  15.566   6.795  0.3640 -0.1223 -0.4332
  864YOPE   D2A12790  17.437  15.308   7.140 -0.2136 -0.2699 -0.4540
  864YOPE   C3A12791  17.887  15.213   7.303  0.2505 -0.3989 -0.1531
  864YOPE   C4A12792  18.174  15.320   7.683 -0.2793  0.3592 -0.0368
  864YOPE   C1B12793  16.939  16.272   6.551  0.0047  0.0744  0.0683
  864YOPE   C2B12794  16.727  16.427   6.798  0.0730 -0.0038  0.3397
  864YOPE   D3B12795  16.624  16.572   7.198  0.1879  0.0624  0.1323
  864YOPE   C4B12796  16.933  16.730   7.482 -0.0124 -0.1301 -0.2387
  865YOPE   NH312797   3.611   2.204   5.461 -0.0183 -0.1564  0.0164
  865YOPE   PO412798   3.946   2.102   5.733  0.3210  0.2786  0.0585
  865YOPE   GL112799   4.050   2.196   6.271 -0.2700 -0.1135  0.1144
  865YOPE   GL212800   4.340   2.375   6.333  0.1763 -0.1565 -0.2498
  865YOPE   C1A12801   4.170   1.993   6.634  0.1404  0.1207 -0.0328
  865YOPE   D2A12802   3.948   1.889   7.050 -0.1403 -0.1197  0.1282
  865YOPE   C3A12803   3.536   1.949   7.110  0.2848  0.0440 -0.0796
  865YOPE   C4A12804   3.313   2.254   7.318  0.0676 -0.2227 -0.1021
  865YOPE   C1B12805   4.261   2.768   6.595 -0.1528  0.1485  0.2428
  865YOPE   C2B12806   4.312   3.171   6.642  0.2058  0.2097  0.0295
  865YOPE   D3B12807   4.319   3.617   6.635  0.1337 -0.1684  0.0457
  865YOPE   C4B12808   4.286   3.775   6.303 -0.1031  0.2336 -0.1583
  866YOPE   NH312809   1.015  18.640   5.579  0.0824 -0.1167 -0.1032
  866YOPE   PO412810   1.150  19.020   5.726  0.3372 -0.1259 -0.1637
  866YOPE   GL112811   1.040  18.775   6.061  0.2660  0.2381 -0.2532
  866YOPE   GL212812   0.818  18.577   6.049  0.0863 -0.1328 -0.1257
  866YOPE   C1A12813   1.126  18.813   6.400 -0.0378  0.3858 -0.4280
  866YOPE   D2A12814   1.473  18.866   6.719  0.1497  0.1312  0.0177
  866YOPE   C3A12815   1.463  18.774   7.025 -0.1081 -0.0068  0.0446
  866YOPE   C4A12816   1.108  18.756   7.266  0.4446  0.0827 -0.1680
  866YOPE   C1B12817   1.307  18.326   6.148  0.0391  0.2032  0.2398
  866YOPE   C2B12818   1.436  17.922   6.434 -0.3657 -0.1110  0.1521
  866YOPE   D3B12819   1.784  18.000   6.481 -0.3375 -0.3583  0.0645
  866YOPE   C4B12820   2.122  18.109   6.699  0.2004 -0.1826  0.3103
  867YOPE   NH312821  12.707   2.659   5.058  0.2074 -0.1022 -0.0950
  867YOPE   PO412822  12.516   2.279   5.202 -0.0683  0.1076  0.4024
  867YOPE   GL112823  12.211   2.418   5.514  0.0872 -0.1917  0.2290
  867YOPE   GL212824  12.205   2.782   5.473  0.0015  0.0210 -0.2491
  867YOPE   C1A12825  11.883   2.492   5.796  0.2246 -0.2543 -0.0925
  867YOPE   D2A12826  11.677   2.268   6.144 -0.0397 -0.0274 -0.2622
  867YOPE   C3A12827  11.873   2.300   6.572  0.4615  0.0257 -0.1897
  867YOPE   C4A12828  12.010   1.898   6.774 -0.0695  0.0914 -0.1336
  867YOPE   C1B12829  12.202   2.918   5.948 -0.2173  0.1725 -0.3919
  867YOPE   C2B12830  12.300   3.242   6.272 -0.2634 -0.0563 -0.1376
  867YOPE   D3B12831  12.107   3.403   6.677 -0.4601 -0.0863  0.3114
  867YOPE   C4B12832  11.994   3.336   7.066  0.1749  0.1860  0.2781
  868YOPE   NH312833   4.648  18.621   4.928 -0.0439 -0.0783 -0.0002
  868YOPE   PO412834   4.286  18.792   5.309 -0.1417  0.2692  0.2053
  868YOPE   GL112835   4.140  18.821   5.791  0.1032  0.2159 -0.1010
  868YOPE   GL212836   4.191  19.221   5.964 -0.0764 -0.5215 -0.1120
  868YOPE   C1A12837   4.285  18.619   6.072 -0.1372  0.0297 -0.3975
  868YOPE   D2A12838   4.382  18.285   6.199  0.1216 -0.1804 -0.1463
  868YOPE   C3A12839   4.530  18.331   6.577  0.4081  0.1221  0.0240
  868YOPE   C4A12840   4.596  18.272   7.047 -0.0861  0.0006 -0.1907
  868YOPE   C1B12841   4.127  19.295   6.415 -0.0515 -0.1256  0.0342
  868YOPE   C2B12842   4.175  19.388   6.841  0.0882  0.0284  0.1182
  868YOPE   D3B12843   4.364  19.303   7.208 -0.1833  0.0896  0.0349
  868YOPE   C4B12844   4.251  19.212   7.574  0.2870  0.1295 -0.1196
  869YOPE   NH312845   8.378   5.417   5.449  0.0166 -0.2651 -0.2146
  869YOPE   PO412846   8.362   5.795   5.369  0.1986  0.0550  0.0364
  869YOPE   GL112847   8.201   6.021   5.751  0.1119 -0.0392  0.3108
  869YOPE   GL212848   8.144   5.715   5.851 -0.1034 -0.0048 -0.0617
  869YOPE   C1A12849   8.209   6.161   6.118 -0.2339  0.0489 -0.2300
  869YOPE   D2A12850   8.363   6.164   6.513  0.0667  0.0495  0.1603
  869YOPE   C3A12851   8.749   6.363   6.605 -0.0148  0.2823  0.0520
  869YOPE   C4A12852   9.020   6.397   6.372  0.0393  0.2702 -0.1984
  869YOPE   C1B12853   8.141   5.628   6.407  0.0177 -0.1355 -0.1869
  869YOPE   C2B12854   7.838   5.427   6.772 -0.1671  0.1878 -0.1838
  869YOPE   D3B12855   7.648   5.255   7.089 -0.1332  0.3076  0.2741
  869YOPE   C4B12856   7.316   5.371   7.283  0.4415 -0.1755  0.1032
  870YOPE   NH312857  17.993  10.610   5.371 -0.1867  0.1495 -0.0471
  870YOPE   PO412858  18.238  10.231   5.281  0.0145 -0.0114  0.1148
  870YOPE   GL112859  18.257  10.241   5.614 -0.2816 -0.1149  0.1060
  870YOPE   GL212860  18.441  10.256   5.865 -0.2092 -0.0460 -0.1647
  870YOPE   C1A12861  18.036  10.113   6.048  0.1088 -0.0036 -0.1119
  870YOPE   D2A12862  18.040  10.120   6.555  0.1466  0.1647  0.2831
  870YOPE   C3A12863  17.835  10.497   6.725  0.1977  0.0724 -0.0165
  870YOPE   C4A12864  17.637  10.699   7.125 -0.1498 -0.3105  0.2580
  870YOPE   C1B12865  18.442  10.298   6.271  0.2930  0.3176 -0.1268
  870YOPE   C2B12866  18.475  10.317   6.735  0.3174 -0.1302 -0.0839
  870YOPE   D3B12867  18.279  10.231   6.971  0.2239  0.0895  0.0993
  870YOPE   C4B12868  18.213  10.361   7.370 -0.0222  0.3226 -0.0958
  871YOPE   NH312869   1.832   7.900   5.331 -0.0085 -0.1116  0.1543
  871YOPE   PO412870   1.674   7.497   5.436  0.1383 -0.2491  0.1590
  871YOPE   GL112871   1.765   7.373   5.798  0.2460 -0.3439 -0.3050
  871YOPE   GL212872   2.050   7.147   5.789 -0.0792 -0.0393 -0.2321
  871YOPE   C1A12873   1.797   7.367   6.249 -0.2676  0.3494 -0.0834
  871YOPE   D2A12874   1.550   7.235   6.481 -0.1259 -0.2092 -0.2277
  871YOPE   C3A12875   1.614   7.133   6.891  0.1427  0.0985 -0.0532
  871YOPE   C4A12876   1.568   7.067   7.191 -0.2117  0.2495 -0.1260
  871YOPE   C1B12877   2.286   7.325   6.196 -0.2846  0.2795 -0.2218
  871YOPE   C2B12878   2.557   7.509   6.532 -0.0184 -0.0610 -0.0069
  871YOPE   D3B12879   2.623   7.503   6.986 -0.0515 -0.0943 -0.1953
  871YOPE   C4B12880   2.596   7.690   7.537 -0.0142  0.0987  0.4963
  872YOPE   NH312881   4.353   6.279   5.949  0.0993  0.0987 -0.0198
  872YOPE   PO412882   4.754   6.131   5.962 -0.2203 -0.1395 -0.2206
  872YOPE   GL112883   4.685   6.074   6.328 -0.1277  0.3497  0.0255
  872YOPE   GL212884   4.385   6.310   6.452 -0.1219  0.1469  0.0704
  872YOPE   C1A12885   4.768   6.054   6.733  0.2245 -0.1157  0.1260
  872YOPE   D2A12886   5.035   5.968   7.032 -0.1096  0.3212 -0.0550
  872YOPE   C3A12887   4.968   5.648   7.313  0.2062  0.0165 -0.0683
  872YOPE   C4A12888   5.039   5.223   7.572  0.0622 -0.3044 -0.5780
  872YOPE   C1B12889   4.387   6.385   6.920  0.0463 -0.0667  0.0716
  872YOPE   C2B12890   4.170   6.529   7.338 -0.1550  0.1670 -0.0145
  872YOPE   D3B12891   3.799   6.676   7.462  0.0664 -0.1261 -0.1202
  872YOPE   C4B12892   3.520   6.883   7.352 -0.2077  0.0024  0.2564
  873YOPE   NH312893  15.101  10.328   5.354  0.1514  0.1906 -0.2281
  873YOPE   PO412894  15.405  10.070   5.570 -0.1916 -0.2928  0.0522
  873YOPE   GL112895  15.552   9.975   5.978 -0.2533 -0.0640  0.0290
  873YOPE   GL212896  15.778   9.899   6.049 -0.0933 -0.0439 -0.1877
  873YOPE   C1A12897  15.460   9.909   6.463 -0.1742 -0.1237  0.3394
  873YOPE   D2A12898  15.542   9.628   6.822 -0.3464  0.1236 -0.3802
  873YOPE   C3A12899  15.955   9.590   7.151  0.1778  0.0481 -0.3225
  873YOPE   C4A12900  16.346   9.689   7.272  0.1460  0.0097  0.0154
  873YOPE   C1B12901  15.953  10.115   6.385  0.1899 -0.0985 -0.2147
  873YOPE   C2B12902  16.094   9.997   6.835  0.0799  0.1979  0.1648
  873YOPE   D3B12903  15.962  10.122   7.332 -0.0689  0.3696  0.0724
  873YOPE   C4B12904  16.104  10.089   7.698  0.5283 -0.2924  0.2651
  874YOPE   NH312905   5.157   2.503   5.836  0.2148  0.2058 -0.4037
  874YOPE   PO412906   5.641   2.442   5.868  0.2771 -0.3187  0.1656
  874YOPE   GL112907   5.457   2.186   6.193  0.1733 -0.2265  0.1024
  874YOPE   GL212908   5.431   1.880   6.239 -0.0643  0.0517 -0.1994
  874YOPE   C1A12909   5.407   2.291   6.588  0.1809 -0.0127  0.0431
  874YOPE   D2A12910   5.193   2.497   6.861  0.0483 -0.1483 -0.0474
  874YOPE   C3A12911   5.041   2.356   7.182 -0.0104  0.2845 -0.1199
  874YOPE   C4A12912   4.584   2.430   7.154 -0.1100 -0.4111 -0.2339
  874YOPE   C1B12913   5.420   1.822   6.648  0.4312 -0.1549 -0.3092
  874YOPE   C2B12914   5.336   1.983   7.028  0.0790  0.2950 -0.0902
  874YOPE   D3B12915   5.405   1.853   7.595  0.2057  0.0299  0.2251
  874YOPE   C4B12916   5.364   1.698   8.015  0.2470 -0.1600 -0.2095
  875YOPE   NH312917   0.235   9.396   5.402  0.5375  0.0462 -0.2803
  875YOPE   PO412918   0.353   9.090   5.621  0.0300 -0.1855  0.1470
  875YOPE   GL112919   0.200   9.005   5.982  0.2717 -0.0483 -0.2463
  875YOPE   GL212920   0.162   8.630   6.171  0.1230 -0.3844  0.1625
  875YOPE   C1A12921   0.187   9.128   6.372 -0.1099  0.0622 -0.0172
  875YOPE   D2A12922   0.183   9.143   6.878  0.1457 -0.2056  0.0354
  875YOPE   C3A12923   0.296   8.809   7.002 -0.1620  0.2904  0.3640
  875YOPE   C4A12924   0.190   8.579   7.263  0.0693  0.3122  0.0176
  875YOPE   C1B12925   0.050   8.713   6.607 -0.1132 -0.0682  0.1620
  875YOPE   C2B12926  -0.196   8.792   6.972  0.0248 -0.1312  0.0558
  875YOPE   D3B12927  -0.306   8.940   7.331 -0.2563 -0.0916 -0.2615
  875YOPE   C4B12928  -0.538   8.928   7.712 -0.1494  0.0095  0.2216
  876YOPE   NH312929  14.689   5.105   5.586  0.0025  0.0664 -0.2307
  876YOPE   PO412930  15.077   4.904   5.625  0.1868 -0.2558 -0.2123
  876YOPE   GL112931  14.988   4.807   5.935  0.3486  0.0617  0.0780
  876YOPE   GL212932  14.789   4.495   6.017 -0.1257 -0.0453  0.1056
  876YOPE   C1A12933  15.163   4.990   6.318 -0.2885 -0.1843  0.3026
  876YOPE   D2A12934  15.346   5.023   6.698 -0.0591 -0.2005  0.2431
  876YOPE   C3A12935  15.325   5.050   7.142 -0.3186  0.2467  0.0332
  876YOPE   C4A12936  15.081   4.959   7.534 -0.0605 -0.0446 -0.0682
  876YOPE   C1B12937  14.877   4.612   6.404  0.1295 -0.0522 -0.1013
  876YOPE   C2B12938  14.913   4.564   6.861 -0.0306 -0.2669 -0.0643
  876YOPE   D3B12939  15.063   4.588   7.194  0.2340  0.0183  0.1118
  876YOPE   C4B12940  15.353   4.343   7.485 -0.1668 -0.0710  0.2540
  877YOPE   NH312941   3.493  12.532   5.663  0.2657 -0.1053  0.2001
  877YOPE   PO412942   3.210  12.347   5.547  0.0852 -0.1767  0.2282
  877YOPE   GL112943   2.883  12.485   5.853  0.0675 -0.1403  0.0778
  877YOPE   GL212944   2.664  12.804   5.760 -0.1386 -0.1609  0.0500
  877YOPE   C1A12945   2.708  12.464   6.241  0.0540  0.2375 -0.2257
  877YOPE   D2A12946   2.738  12.503   6.627 -0.2965  0.0544  0.0808
  877YOPE   C3A12947   2.599  12.780   7.032 -0.1741  0.1334 -0.3914
  877YOPE   C4A12948   2.412  13.187   7.217 -0.0306  0.0156 -0.1494
  877YOPE   C1B12949   2.772  12.925   6.193 -0.1219  0.0302  0.0999
  877YOPE   C2B12950   2.726  12.999   6.613 -0.3474 -0.2439 -0.0249
  877YOPE   D3B12951   2.821  13.327   6.879 -0.0900  0.0410 -0.2473
  877YOPE   C4B12952   2.929  13.426   7.215  0.1620  0.1955  0.3817
  878YOPE   NH312953   4.158  10.265   5.776 -0.1344 -0.1197  0.0078
  878YOPE   PO412954   4.473  10.303   6.150 -0.1700 -0.4040  0.0799
  878YOPE   GL112955   4.627  10.073   6.360  0.2258 -0.0601 -0.2226
  878YOPE   GL212956   4.782   9.808   6.294  0.2206 -0.0679  0.1697
  878YOPE   C1A12957   4.970  10.143   6.611 -0.0698  0.3425  0.1547
  878YOPE   D2A12958   5.132  10.276   6.907  0.0246 -0.0343  0.1947
  878YOPE   C3A12959   5.235  10.072   7.292  0.0986  0.0982  0.0102
  878YOPE   C4A12960   5.084   9.947   7.630  0.3772  0.1251  0.1963
  878YOPE   C1B12961   4.869   9.600   6.590 -0.1196  0.2156  0.2030
  878YOPE   C2B12962   4.979   9.678   7.015  0.2299  0.1931  0.0560
  878YOPE   D3B12963   4.810   9.567   7.369 -0.1693  0.3840 -0.1222
  878YOPE   C4B12964   5.044   9.446   7.637 -0.1095 -0.0176 -0.0098
  879YOPE   NH312965  12.910  12.125   5.500  0.1180 -0.1523  0.0764
  879YOPE   PO412966  13.070  11.771   5.619 -0.1082  0.2591  0.0135
  879YOPE   GL112967  13.161  11.875   6.085 -0.1263  0.1674 -0.1490
  879YOPE   GL212968  13.363  12.070   6.028  0.1720 -0.0639  0.1245
  879YOPE   C1A12969  13.225  11.835   6.552 -0.0051  0.0889  0.1683
  879YOPE   D2A12970  13.202  11.719   6.942 -0.2476  0.2826  0.3003
  879YOPE   C3A12971  13.037  11.353   7.054  0.4645 -0.0216  0.0220
  879YOPE   C4A12972  12.796  11.069   7.211 -0.3833 -0.1496  0.0381
  879YOPE   C1B12973  13.625  12.024   6.443  0.2441  0.5934 -0.3486
  879YOPE   C2B12974  13.569  12.067   6.930  0.1675 -0.3178 -0.0736
  879YOPE   D3B12975  13.355  12.380   7.318 -0.0117 -0.1235 -0.0631
  879YOPE   C4B12976  13.203  12.431   7.682 -0.0486  0.0291  0.0889
  880YOPE   NH312977   5.967  12.177   5.823  0.0427 -0.1919 -0.3277
  880YOPE   PO412978   5.849  12.569   5.788 -0.0740 -0.1791 -0.1452
  880YOPE   GL112979   5.782  12.490   6.252 -0.0355 -0.1712  0.0511
  880YOPE   GL212980   5.833  12.111   6.335  0.1592 -0.0426 -0.2926
  880YOPE   C1A12981   5.745  12.459   6.735  0.0250  0.0466 -0.0380
  880YOPE   D2A12982   5.460  12.499   7.131 -0.0987  0.3306  0.1882
  880YOPE   C3A12983   5.268  12.108   7.336 -0.1020  0.0142 -0.1332
  880YOPE   C4A12984   5.144  12.009   7.734 -0.2956 -0.2078 -0.2511
  880YOPE   C1B12985   5.475  12.076   6.305  0.2026 -0.0338 -0.1256
  880YOPE   C2B12986   5.020  12.052   6.361 -0.0480 -0.0517 -0.1233
  880YOPE   D3B12987   4.830  11.837   6.606  0.0720  0.2144 -0.0057
  880YOPE   C4B12988   4.418  11.678   6.856  0.1343  0.0545  0.3086
  881YOPE   NH312989   1.182  17.881   5.218  0.1568  0.2069  0.1005
  881YOPE   PO412990   0.952  18.143   5.505 -0.2974 -0.0862 -0.2354
  881YOPE   GL112991   0.747  18.089   5.907 -0.1135 -0.1175  0.0480
  881YOPE   GL212992   0.468  18.055   6.031 -0.2714 -0.3295 -0.1913
  881YOPE   C1A12993   0.865  17.758   6.219 -0.0653 -0.1828 -0.3089
  881YOPE   D2A12994   0.972  17.818   6.701  0.2538 -0.0495  0.2226
  881YOPE   C3A12995   1.475  17.710   6.883  0.2125  0.0422 -0.4636
  881YOPE   C4A12996   1.810  17.774   6.902 -0.1069 -0.0850 -0.1950
  881YOPE   C1B12997   0.727  18.200   6.403  0.1086 -0.0720  0.0728
  881YOPE   C2B12998   0.769  18.251   6.864 -0.0547  0.3965  0.1056
  881YOPE   D3B12999   0.977  18.256   7.179  0.1104  0.1310  0.2994
  881YOPE   C4B13000   1.174  18.308   7.553 -0.1643  0.1621 -0.0258
  882YOPE   NH313001   4.114   4.399   5.830  0.0492 -0.2348 -0.0824
  882YOPE   PO413002   4.042   4.881   5.880 -0.3179  0.0678 -0.2582
  882YOPE   GL113003   3.926   5.215   6.172 -0.2572 -0.2242  0.1199
  882YOPE   GL213004   3.883   5.482   6.029 -0.1700  0.1195 -0.1511
  882YOPE   C1A13005   3.808   5.485   6.549 -0.1735  0.2978 -0.2392
  882YOPE   D2A13006   3.587   5.492   7.008  0.1086 -0.0598  0.1204
  882YOPE   C3A13007   3.543   5.895   7.193 -0.0105  0.1448 -0.0651
  882YOPE   C4A13008   3.668   6.339   7.065  0.0335 -0.0947 -0.1915
  882YOPE   C1B13009   3.561   5.779   6.205  0.0823  0.0878 -0.1449
  882YOPE   C2B13010   3.393   5.853   6.628 -0.0714 -0.3589 -0.0625
  882YOPE   D3B13011   3.179   6.226   6.884  0.2229  0.1505 -0.3219
  882YOPE   C4B13012   3.251   6.282   7.277 -0.0519  0.0059 -0.2515
  883YOPE   NH313013   4.058  14.323   5.337 -0.0432 -0.2298 -0.2997
  883YOPE   PO413014   3.577  14.363   5.540 -0.1885  0.3296  0.1718
  883YOPE   GL113015   3.559  14.306   5.978 -0.5028 -0.3508  0.0578
  883YOPE   GL213016   3.285  14.245   6.091  0.1204  0.0422 -0.2154
  883YOPE   C1A13017   3.368  14.635   6.375 -0.2748 -0.0671  0.1200
  883YOPE   D2A13018   3.241  14.685   6.668  0.1914 -0.3499  0.0650
  883YOPE   C3A13019   3.289  14.405   7.035 -0.0327 -0.4609  0.2344
  883YOPE   C4A13020   3.189  14.184   7.484 -0.1349  0.2651  0.1755
  883YOPE   C1B13021   3.103  14.176   6.530  0.0626 -0.1367  0.0595
  883YOPE   C2B13022   2.832  14.354   6.869  0.0990  0.0805  0.1235
  883YOPE   D3B13023   2.441  14.545   7.114 -0.0406  0.0789  0.0675
  883YOPE   C4B13024   2.445  14.880   7.395 -0.3935 -0.1400 -0.2593
  884YOPE   NH313025  17.337  11.418   5.932 -0.0200  0.1952 -0.1141
  884YOPE   PO413026  17.428  11.000   5.945 -0.4035 -0.0781  0.1371
  884YOPE   GL113027  17.583  10.677   6.156  0.2448 -0.2893 -0.2510
  884YOPE   GL213028  17.392  10.755   6.460  0.0289  0.0712  0.2111
  884YOPE   C1A13029  17.550  10.274   6.382  0.4092  0.0140  0.1030
  884YOPE   D2A13030  17.406  10.215   6.816  0.4377 -0.1113 -0.2070
  884YOPE   C3A13031  17.340   9.947   7.079 -0.1500 -0.1249 -0.0012
  884YOPE   C4A13032  17.075   9.892   7.541  0.1326  0.1212  0.0322
  884YOPE   C1B13033  17.252  10.642   6.844 -0.2125 -0.1449 -0.1420
  884YOPE   C2B13034  17.189  10.453   7.193 -0.3900  0.3104 -0.2216
  884YOPE   D3B13035  16.961  10.426   7.468  0.1692 -0.0014 -0.0976
  884YOPE   C4B13036  17.073  10.499   7.893  0.2394  0.0504 -0.1072
  885YOPE   NH313037   6.341   3.756   5.651  0.0892 -0.2094  0.2247
  885YOPE   PO413038   6.573   3.399   5.649 -0.0564 -0.0442 -0.1872
  885YOPE   GL113039   6.628   3.544   6.080  0.1318 -0.0561 -0.0199
  885YOPE   GL213040   6.803   3.785   5.880  0.1505 -0.0517  0.1410
  885YOPE   C1A13041   6.850   3.527   6.400  0.2876 -0.0532 -0.0860
  885YOPE   D2A13042   6.641   3.485   6.759 -0.1673  0.0951  0.1095
  885YOPE   C3A13043   6.886   3.831   7.002  0.1635 -0.1247  0.1322
  885YOPE   C4A13044   7.031   4.013   7.425 -0.3272  0.1687 -0.1741
  885YOPE   C1B13045   7.206   3.824   6.118  0.1503 -0.1680  0.1803
  885YOPE   C2B13046   7.541   3.719   6.351  0.1635  0.1842  0.1746
  885YOPE   D3B13047   7.971   3.676   6.208 -0.1605 -0.3627  0.0586
  885YOPE   C4B13048   8.354   3.878   6.194  0.1618 -0.0292  0.0880
  886YOPE   NH313049   3.315   4.192   5.749  0.1097  0.1513 -0.0662
  886YOPE   PO413050   3.459   4.677   5.889  0.0761  0.2697  0.0361
  886YOPE   GL113051   3.275   4.563   6.238  0.2178  0.0356  0.0184
  886YOPE   GL213052   3.101   4.216   6.182 -0.0231  0.1797  0.1887
  886YOPE   C1A13053   3.494   4.489   6.592 -0.1111 -0.2314 -0.1293
  886YOPE   D2A13054   3.419   4.345   7.035 -0.2237 -0.2437  0.0389
  886YOPE   C3A13055   3.186   4.165   7.284  0.2303  0.2079 -0.2062
  886YOPE   C4A13056   2.911   3.955   7.534  0.1573  0.1584 -0.1083
  886YOPE   C1B13057   3.086   4.250   6.601  0.0299 -0.1307 -0.0978
  886YOPE   C2B13058   3.045   4.639   6.826 -0.1898  0.3586 -0.0746
  886YOPE   D3B13059   2.993   4.705   7.196  0.0631  0.1001 -0.1221
  886YOPE   C4B13060   3.183   4.900   7.560  0.1900 -0.1549  0.2948
  887YOPE   NH313061   2.845  12.024   5.463 -0.0084  0.1417  0.1210
  887YOPE   PO413062   2.582  11.635   5.579  0.4155 -0.3237  0.1178
  887YOPE   GL113063   2.590  11.760   5.959  0.0981  0.0735 -0.0429
  887YOPE   GL213064   2.704  11.477   6.124 -0.0585 -0.0532 -0.1123
  887YOPE   C1A13065   2.481  12.010   6.299 -0.2825  0.1582 -0.0782
  887YOPE   D2A13066   2.337  12.223   6.694 -0.1466  0.0295  0.2442
  887YOPE   C3A13067   1.933  12.191   6.904  0.2845  0.0118  0.5101
  887YOPE   C4A13068   1.694  12.277   7.313  0.2101  0.0453  0.0787
  887YOPE   C1B13069   2.810  11.504   6.543 -0.0227  0.2588 -0.0136
  887YOPE   C2B13070   2.893  11.566   6.869 -0.1558 -0.3316  0.0737
  887YOPE   D3B13071   2.844  11.433   7.298 -0.3120 -0.0524 -0.0830
  887YOPE   C4B13072   2.827  11.497   7.763  0.0629  0.3054  0.2764
  888YOPE   NH313073   5.321   9.614   5.742 -0.1511 -0.1487 -0.1283
  888YOPE   PO413074   4.998   9.458   5.503  0.2017 -0.2968 -0.2509
  888YOPE   GL113075   4.885   9.355   5.939 -0.1482 -0.0033 -0.0829
  888YOPE   GL213076   4.847   9.053   6.068  0.0807 -0.3244  0.0912
  888YOPE   C1A13077   4.508   9.415   6.249 -0.1131 -0.1664 -0.1490
  888YOPE   D2A13078   4.111   9.267   6.424  0.2178 -0.1989 -0.1436
  888YOPE   C3A13079   3.852   9.534   6.642  0.2465  0.0894 -0.0951
  888YOPE   C4A13080   3.664   9.909   6.596  0.0677  0.0608  0.0459
  888YOPE   C1B13081   4.760   8.970   6.443 -0.2400 -0.0900 -0.0592
  888YOPE   C2B13082   4.637   9.169   6.726  0.1261  0.1431 -0.1777
  888YOPE   D3B13083   4.245   9.158   7.016  0.0497  0.0807  0.1894
  888YOPE   C4B13084   4.015   9.114   7.441  0.0840 -0.2904 -0.0660
  889YOPE   NH313085   6.626  17.082   5.388 -0.0392  0.0564  0.2144
  889YOPE   PO413086   6.783  17.506   5.493  0.0271 -0.1089  0.0112
  889YOPE   GL113087   6.659  17.486   5.906 -0.1135 -0.2922  0.0008
  889YOPE   GL213088   6.759  17.891   6.061  0.3450  0.3779 -0.0348
  889YOPE   C1A13089   6.357  17.446   6.073 -0.4491 -0.2267 -0.4605
  889YOPE   D2A13090   6.119  17.420   6.434  0.0540 -0.2378  0.0069
  889YOPE   C3A13091   5.823  17.797   6.352  0.0767 -0.0415  0.0598
  889YOPE   C4A13092   5.842  18.196   6.182 -0.1259 -0.3689  0.3461
  889YOPE   C1B13093   6.857  18.131   6.372 -0.1855  0.0720 -0.2654
  889YOPE   C2B13094   7.051  18.146   6.777 -0.3181 -0.0677  0.3268
  889YOPE   D3B13095   7.208  17.946   7.143  0.0842 -0.0362  0.4283
  889YOPE   C4B13096   7.238  17.710   7.507  0.1112 -0.0064 -0.0306
  890YOPE   NH313097  18.254   9.244   5.090 -0.2702  0.3001 -0.0687
  890YOPE   PO413098  18.717   9.312   5.181  0.2812  0.1700  0.0949
  890YOPE   GL113099  18.533   9.304   5.584  0.0720  0.1527 -0.0019
  890YOPE   GL213100  18.805   9.339   5.711 -0.3099 -0.2482 -0.1278
  890YOPE   C1A13101  18.112   9.181   5.920  0.1048  0.0121  0.2120
  890YOPE   D2A13102  17.825   9.004   6.134 -0.0442 -0.0907  0.2998
  890YOPE   C3A13103  17.822   8.665   6.295 -0.1339  0.1862 -0.1865
  890YOPE   C4A13104  17.989   8.692   6.716  0.1126 -0.2331 -0.2636
  890YOPE   C1B13105  18.912   9.483   6.130 -0.3076  0.0259  0.1048
  890YOPE   C2B13106  18.888   9.497   6.527  0.1595 -0.0369 -0.2826
  890YOPE   D3B13107  18.723   9.384   6.909 -0.0306  0.1769 -0.2790
  890YOPE   C4B13108  18.473   9.417   7.277  0.0909  0.0149  0.1391
  891YOPE   NH313109  15.036  14.578   5.449 -0.0460  0.1113 -0.1058
  891YOPE   PO413110  15.107  15.066   5.415  0.1980 -0.0289 -0.1883
  891YOPE   GL113111  14.916  15.059   5.803  0.1288 -0.0388  0.2880
  891YOPE   GL213112  15.156  15.250   5.932  0.0944  0.0526 -0.2143
  891YOPE   C1A13113  14.731  15.059   6.282 -0.1270 -0.1004  0.0215
  891YOPE   D2A13114  14.650  15.011   6.703 -0.1035 -0.2680  0.1615
  891YOPE   C3A13115  14.889  15.304   7.042  0.2869  0.3390 -0.3357
  891YOPE   C4A13116  14.826  15.705   7.170  0.0544  0.1336 -0.0902
  891YOPE   C1B13117  14.905  15.501   6.097 -0.1099 -0.2219 -0.1865
  891YOPE   C2B13118  14.728  15.524   6.482 -0.1323  0.0563 -0.0201
  891YOPE   D3B13119  14.486  15.470   6.884 -0.0116  0.0680 -0.1710
  891YOPE   C4B13120  14.373  15.492   7.282 -0.0777  0.0325 -0.0075
  892YOPE   NH313121   4.637  10.760   6.044  0.2115 -0.3220 -0.1686
  892YOPE   PO413122   4.131  10.692   6.049 -0.1787  0.2772  0.1182
  892YOPE   GL113123   4.152  10.808   6.396  0.2365 -0.1093 -0.4693
  892YOPE   GL213124   4.429  10.663   6.537  0.0171 -0.1485  0.4002
  892YOPE   C1A13125   4.206  11.144   6.700  0.2974  0.1934  0.0939
  892YOPE   D2A13126   3.901  11.432   6.881  0.0494  0.0759 -0.2623
  892YOPE   C3A13127   3.777  11.316   7.336  0.1108 -0.0093 -0.0285
  892YOPE   C4A13128   3.430  11.246   7.516 -0.4530 -0.3531 -0.0594
  892YOPE   C1B13129   4.312  10.672   6.962  0.2601 -0.1963 -0.2639
  892YOPE   C2B13130   4.040  10.915   7.231  0.0509  0.0781 -0.0639
  892YOPE   D3B13131   3.795  10.810   7.529 -0.2036 -0.0822  0.1283
  892YOPE   C4B13132   3.752  10.867   8.003 -0.2124 -0.0738  0.1940
  893YOPE   NH313133   3.606   5.154   5.773  0.2373 -0.0762 -0.0788
  893YOPE   PO413134   3.260   5.488   5.765  0.0322 -0.1399 -0.4202
  893YOPE   GL113135   3.329   5.312   6.190  0.1815 -0.1349  0.1981
  893YOPE   GL213136   3.501   5.052   6.258 -0.1602 -0.1969  0.0659
  893YOPE   C1A13137   3.322   5.321   6.602  0.2032  0.0748 -0.2038
  893YOPE   D2A13138   3.116   5.135   6.899  0.3094 -0.1493  0.2775
  893YOPE   C3A13139   3.438   4.938   7.054 -0.1644  0.1339  0.2230
  893YOPE   C4A13140   3.813   5.013   7.379 -0.2686 -0.1999  0.0649
  893YOPE   C1B13141   3.778   4.957   6.619 -0.1170  0.2343  0.0605
  893YOPE   C2B13142   3.930   5.064   6.924  0.0743 -0.3164  0.0787
  893YOPE   D3B13143   4.078   5.425   7.245  0.0076  0.2651  0.5071
  893YOPE   C4B13144   4.181   5.747   7.641 -0.2687 -0.2781  0.1612
  894YOPE   NH313145   8.074  14.411   5.193  0.5010 -0.1316  0.0352
  894YOPE   PO413146   7.948  14.015   5.398  0.1108  0.0186  0.1774
  894YOPE   GL113147   7.892  14.125   5.798  0.0889 -0.0647 -0.1671
  894YOPE   GL213148   8.080  14.040   5.884 -0.0282 -0.0512 -0.3854
  894YOPE   C1A13149   7.776  14.391   6.263  0.0145 -0.2774 -0.1199
  894YOPE   D2A13150   7.804  14.446   6.712  0.2776 -0.3164 -0.0821
  894YOPE   C3A13151   7.596  14.659   6.931  0.0253  0.1100  0.0752
  894YOPE   C4A13152   7.381  14.649   7.117 -0.0552  0.1105 -0.0001
  894YOPE   C1B13153   8.196  14.012   6.268 -0.1842  0.0268 -0.3565
  894YOPE   C2B13154   8.196  13.957   6.659  0.2009 -0.0380  0.0295
  894YOPE   D3B13155   8.073  14.138   6.916  0.5144  0.2248 -0.2135
  894YOPE   C4B13156   7.720  14.152   7.137  0.0042 -0.2708 -0.0908
  895YOPE   NH313157  17.532  17.882   5.314 -0.0576  0.0429 -0.2358
  895YOPE   PO413158  17.109  17.974   5.619  0.0966 -0.2637  0.2066
  895YOPE   GL113159  17.042  17.766   6.033  0.1278  0.0894 -0.0459
  895YOPE   GL213160  17.218  17.590   6.083  0.1814 -0.1283  0.0144
  895YOPE   C1A13161  16.706  17.700   6.297  0.2512  0.2610  0.0697
  895YOPE   D2A13162  16.356  17.456   6.562  0.1059 -0.4126  0.0285
  895YOPE   C3A13163  16.199  17.476   6.927  0.4627 -0.0758  0.3353
  895YOPE   C4A13164  16.126  17.768   7.114  0.3047  0.0364 -0.1743
  895YOPE   C1B13165  17.459  17.360   6.342  0.2470 -0.0775 -0.1041
  895YOPE   C2B13166  17.509  17.327   6.833  0.1731  0.0522 -0.0253
  895YOPE   D3B13167  17.466  16.907   7.133 -0.0165  0.2832 -0.0960
  895YOPE   C4B13168  17.660  16.530   7.287 -0.1049  0.1273 -0.2808
  896YOPE   NH313169   8.870  17.870   5.390  0.1227  0.3114  0.0087
  896YOPE   PO413170   9.258  17.662   5.404 -0.1732 -0.4812  0.0188
  896YOPE   GL113171   9.229  18.003   5.744 -0.2688  0.1299  0.3871
  896YOPE   GL213172   9.623  18.020   5.928 -0.2529 -0.2484 -0.0226
  896YOPE   C1A13173   9.254  17.909   6.262  0.2504 -0.1188 -0.0105
  896YOPE   D2A13174   9.137  17.891   6.674  0.0852  0.2561  0.0720
  896YOPE   C3A13175   8.959  17.730   7.011 -0.4351 -0.3071  0.1279
  896YOPE   C4A13176   8.749  17.499   7.257  0.0333  0.1408  0.1205
  896YOPE   C1B13177   9.958  17.650   5.915  0.1180  0.1598  0.2809
  896YOPE   C2B13178  10.241  17.410   6.013  0.0700 -0.2459 -0.1947
  896YOPE   D3B13179  10.528  17.280   6.308  0.0035 -0.4415  0.0421
  896YOPE   C4B13180  10.885  17.346   6.459 -0.2649 -0.1814 -0.0197
  897YOPE   NH313181   2.686  17.890   5.467  0.0460 -0.1459  0.1475
  897YOPE   PO413182   3.020  17.614   5.707  0.0369 -0.3025  0.1838
  897YOPE   GL113183   3.221  17.870   5.958  0.2096  0.0715  0.0569
  897YOPE   GL213184   3.152  17.617   6.311  0.1003  0.0881 -0.2051
  897YOPE   C1A13185   3.526  18.143   6.071 -0.0625 -0.0835 -0.0580
  897YOPE   D2A13186   3.578  18.159   6.494  0.2081 -0.0582 -0.0528
  897YOPE   C3A13187   3.676  18.470   6.736 -0.0229 -0.1832 -0.1589
  897YOPE   C4A13188   4.088  18.427   7.060  0.1962 -0.1720  0.0056
  897YOPE   C1B13189   3.179  17.828   6.714  0.2485 -0.0536 -0.1857
  897YOPE   C2B13190   3.435  18.102   6.965  0.0065 -0.2705 -0.0875
  897YOPE   D3B13191   3.351  18.195   7.392 -0.2637 -0.1026  0.1937
  897YOPE   C4B13192   3.182  18.405   7.781 -0.3987  0.1148  0.0572
  898YOPE   NH313193  16.632  12.969   5.583 -0.1208  0.0505  0.2555
  898YOPE   PO413194  17.067  13.144   5.461  0.0233 -0.2545  0.0561
  898YOPE   GL113195  17.129  13.094   5.765  0.0623 -0.0116  0.1526
  898YOPE   GL213196  16.826  13.136   6.017 -0.0947  0.2429  0.0017
  898YOPE   C1A13197  17.376  12.928   6.025  0.0544 -0.4401 -0.3762
  898YOPE   D2A13198  17.784  12.964   6.207 -0.3097 -0.0621  0.3231
  898YOPE   C3A13199  17.986  12.629   6.438  0.0612 -0.1429 -0.1743
  898YOPE   C4A13200  17.780  12.550   6.833  0.4364  0.1098 -0.2489
  898YOPE   C1B13201  17.034  13.210   6.355 -0.2596 -0.1726  0.0619
  898YOPE   C2B13202  17.115  13.133   6.784 -0.0175 -0.0407 -0.2806
  898YOPE   D3B13203  17.034  13.194   7.264  0.1183  0.2428 -0.0318
  898YOPE   C4B13204  17.305  13.451   7.439  0.0860  0.2387  0.0635
  899YOPE   NH313205   6.893  13.038   5.633 -0.3073 -0.1252 -0.4477
  899YOPE   PO413206   7.073  12.749   5.803  0.3487 -0.0513 -0.0811
  899YOPE   GL113207   7.345  12.902   6.088 -0.0104  0.0650  0.2273
  899YOPE   GL213208   7.334  13.227   5.914  0.1462 -0.2267  0.1003
  899YOPE   C1A13209   7.352  12.818   6.492  0.3295 -0.1527 -0.1302
  899YOPE   D2A13210   7.214  12.889   6.846 -0.3438  0.2660 -0.2373
  899YOPE   C3A13211   7.225  12.632   7.166 -0.4495  0.0665  0.1155
  899YOPE   C4A13212   7.366  12.312   7.487  0.2521 -0.1698  0.2009
  899YOPE   C1B13213   7.382  13.365   6.417 -0.0611 -0.2078  0.3807
  899YOPE   C2B13214   7.186  13.529   6.958  0.1151 -0.0806 -0.2624
  899YOPE   D3B13215   6.978  13.597   7.268  0.2827 -0.2569  0.3306
  899YOPE   C4B13216   6.986  13.927   7.635  0.0791 -0.0302  0.0925
  900YOPE   NH313217  18.166   7.879   5.183 -0.2205  0.1063 -0.2286
  900YOPE   PO413218  18.360   7.502   5.177 -0.0639 -0.1486  0.1468
  900YOPE   GL113219  18.461   7.666   5.606 -0.0640  0.2576 -0.0733
  900YOPE   GL213220  18.646   7.503   5.831 -0.1411 -0.0748  0.2764
  900YOPE   C1A13221  18.248   8.050   5.884 -0.1046 -0.1725  0.2236
  900YOPE   D2A13222  17.970   8.273   5.652 -0.2136 -0.5209  0.0726
  900YOPE   C3A13223  17.788   8.615   5.742 -0.1503 -0.0001 -0.3251
  900YOPE   C4A13224  17.396   8.758   5.878  0.0876  0.0204 -0.0592
  900YOPE   C1B13225  18.515   7.337   6.143 -0.0108  0.0226 -0.0652
  900YOPE   C2B13226  18.490   7.280   6.635 -0.4739  0.1589  0.0111
  900YOPE   D3B13227  18.569   7.336   7.045  0.0721 -0.1143 -0.0140
  900YOPE   C4B13228  18.261   7.528   7.307 -0.3040 -0.1047 -0.4046
  901YOPE   NH313229  13.898   8.265   5.279 -0.0288  0.4181  0.0233
  901YOPE   PO413230  14.330   8.348   5.181 -0.0221  0.1316  0.0944
  901YOPE   GL113231  14.374   8.443   5.618 -0.0221 -0.0913  0.0561
  901YOPE   GL213232  14.852   8.457   5.677  0.1674  0.3722  0.1706
  901YOPE   C1A13233  14.484   8.278   5.943 -0.1909  0.1306  0.0469
  901YOPE   D2A13234  14.538   8.223   6.364 -0.0957 -0.3128  0.1716
  901YOPE   C3A13235  14.854   8.212   6.648  0.1270  0.0042  0.0680
  901YOPE   C4A13236  15.128   8.460   6.880 -0.2538  0.1718  0.1451
  901YOPE   C1B13237  14.952   8.371   6.150 -0.0304  0.4817  0.0515
  901YOPE   C2B13238  15.263   8.563   6.436 -0.1576 -0.2145 -0.0972
  901YOPE   D3B13239  15.360   8.848   6.642 -0.1381  0.1953 -0.0431
  901YOPE   C4B13240  15.412   8.891   7.134 -0.1624 -0.2492 -0.1921
  902YOPE   NH313241   0.025  16.439   5.209  0.0384  0.1736  0.0234
  902YOPE   PO413242  -0.203  15.987   5.220  0.3297 -0.0827  0.1599
  902YOPE   GL113243   0.026  15.990   5.752  0.1517 -0.0269 -0.1813
  902YOPE   GL213244   0.248  15.999   5.919  0.1329 -0.0211 -0.2554
  902YOPE   C1A13245  -0.229  15.843   6.039 -0.2379  0.3088  0.1214
  902YOPE   D2A13246  -0.613  15.781   6.343 -0.2559 -0.1635  0.1487
  902YOPE   C3A13247  -0.913  15.999   6.119 -0.2115 -0.4336  0.1062
  902YOPE   C4A13248  -1.022  16.468   6.314 -0.1432  0.2554  0.1433
  902YOPE   C1B13249   0.051  16.160   6.237  0.1409  0.1468  0.0521
  902YOPE   C2B13250  -0.190  16.041   6.589  0.1807  0.0471 -0.2020
  902YOPE   D3B13251  -0.353  16.206   6.952  0.0142  0.0166 -0.0919
  902YOPE   C4B13252  -0.190  16.401   7.314  0.0962 -0.2971  0.3503
  903YOPE   NH313253  17.671   4.738   5.389  0.1021  0.1362 -0.3925
  903YOPE   PO413254  17.309   5.053   5.277 -0.3233  0.1545  0.0333
  903YOPE   GL113255  17.304   4.904   5.742  0.0005  0.2998 -0.0022
  903YOPE   GL213256  17.307   4.574   5.799 -0.3599  0.3363 -0.0527
  903YOPE   C1A13257  17.602   5.025   5.941  0.2648 -0.3795 -0.2383
  903YOPE   D2A13258  18.099   4.968   6.107 -0.3829  0.2752 -0.1446
  903YOPE   C3A13259  18.294   4.874   6.574  0.0811  0.1894  0.5426
  903YOPE   C4A13260  18.476   4.761   6.914 -0.2850 -0.1226 -0.4046
  903YOPE   C1B13261  17.290   4.673   6.195 -0.0245  0.0556 -0.0232
  903YOPE   C2B13262  17.220   4.731   6.640 -0.1627 -0.0918  0.2213
  903YOPE   D3B13263  17.267   4.587   6.998  0.2362 -0.0329 -0.0116
  903YOPE   C4B13264  17.035   4.435   7.400  0.0847  0.1907  0.2547
  904YOPE   NH313265   2.941  18.801   5.288 -0.1835 -0.0363 -0.0925
  904YOPE   PO413266   3.236  18.526   5.281  0.1668  0.0929 -0.1483
  904YOPE   GL113267   3.262  18.498   5.730  0.0650  0.0138  0.0555
  904YOPE   GL213268   3.647  18.594   5.797 -0.1117 -0.0986  0.1265
  904YOPE   C1A13269   3.069  18.299   6.101 -0.1835 -0.1687  0.1780
  904YOPE   D2A13270   3.094  18.289   6.582  0.1012  0.0835  0.0388
  904YOPE   C3A13271   3.139  18.488   6.938  0.2040  0.3234 -0.1357
  904YOPE   C4A13272   3.141  18.643   7.359 -0.1955 -0.2048  0.0364
  904YOPE   C1B13273   3.434  18.657   6.317 -0.1031  0.0407  0.0923
  904YOPE   C2B13274   3.469  18.917   6.689  0.1539  0.1997 -0.1875
  904YOPE   D3B13275   3.368  19.063   7.095  0.1116 -0.1477  0.2646
  904YOPE   C4B13276   3.196  19.183   7.467 -0.0714  0.2810  0.0793
  905YOPE   NH313277   5.370  11.367   5.645 -0.1630 -0.0129 -0.3379
  905YOPE   PO413278   5.690  11.032   5.574 -0.2740 -0.1025 -0.1244
  905YOPE   GL113279   5.841  11.108   5.919  0.2933 -0.1044 -0.1651
  905YOPE   GL213280   6.098  10.732   6.092 -0.1601  0.0468 -0.0290
  905YOPE   C1A13281   6.046  11.264   6.357  0.0675 -0.1740 -0.0968
  905YOPE   D2A13282   6.100  11.185   6.798 -0.1627 -0.2939 -0.0826
  905YOPE   C3A13283   5.924  10.884   7.087 -0.0914 -0.1954  0.0601
  905YOPE   C4A13284   6.057  10.528   7.055 -0.1742  0.2689 -0.0373
  905YOPE   C1B13285   5.896  10.772   6.455 -0.0908 -0.0306 -0.0605
  905YOPE   C2B13286   5.646  11.101   6.640  0.3024  0.0578 -0.0867
  905YOPE   D3B13287   5.643  11.327   7.034  0.2151 -0.1535  0.0135
  905YOPE   C4B13288   5.649  11.603   7.289  0.3205 -0.3108 -0.2798
  906YOPE   NH313289   8.536  18.174   5.165 -0.0053  0.0699 -0.4434
  906YOPE   PO413290   8.759  18.527   5.397  0.0498  0.2032 -0.1722
  906YOPE   GL113291   8.769  18.246   5.698  0.2232  0.2794 -0.1935
  906YOPE   GL213292   8.466  18.104   5.725 -0.2354  0.0237  0.1453
  906YOPE   C1A13293   8.862  18.089   6.080  0.1518  0.0630  0.3717
  906YOPE   D2A13294   8.807  17.710   6.241 -0.0550  0.2636  0.2496
  906YOPE   C3A13295   8.735  17.465   6.525 -0.1965 -0.1075  0.3847
  906YOPE   C4A13296   8.586  17.366   6.801  0.0448 -0.3095 -0.1275
  906YOPE   C1B13297   8.428  18.117   6.280  0.2821 -0.1383 -0.3485
  906YOPE   C2B13298   8.653  17.939   6.661 -0.0480 -0.0820  0.1009
  906YOPE   D3B13299   8.646  18.151   7.058  0.3217 -0.1064 -0.0574
  906YOPE   C4B13300   8.608  17.983   7.407 -0.1523 -0.0846  0.2870
  907YOPE   NH313301  17.566   5.889   5.790  0.1613  0.0762  0.4031
  907YOPE   PO413302  17.125   5.778   5.796 -0.0534  0.1505 -0.3152
  907YOPE   GL113303  16.883   5.535   6.206 -0.4748  0.2174 -0.2240
  907YOPE   GL213304  17.082   5.277   6.096  0.1547  0.2105  0.0900
  907YOPE   C1A13305  16.861   5.510   6.646 -0.0495  0.0178  0.0247
  907YOPE   D2A13306  17.015   5.659   7.065  0.0704  0.2860 -0.0809
  907YOPE   C3A13307  16.997   5.332   7.392 -0.1474  0.0224 -0.2445
  907YOPE   C4A13308  16.672   5.161   7.646 -0.1100 -0.2802  0.0936
  907YOPE   C1B13309  17.236   5.272   6.462  0.0178  0.2601 -0.1037
  907YOPE   C2B13310  17.392   5.516   6.751  0.1371 -0.0272 -0.3443
  907YOPE   D3B13311  17.426   5.882   6.997 -0.1268 -0.0886 -0.3958
  907YOPE   C4B13312  17.694   6.101   7.285 -0.0122 -0.3940  0.0189
  908YOPE   NH313313  13.751   5.509   5.427 -0.0485  0.0725  0.1667
  908YOPE   PO413314  14.175   5.392   5.562 -0.1539  0.0676  0.3463
  908YOPE   GL113315  14.018   5.272   5.957 -0.2267  0.1623 -0.2543
  908YOPE   GL213316  13.704   5.246   5.908  0.2577  0.2861  0.0402
  908YOPE   C1A13317  13.895   5.568   6.339 -0.1355  0.0230 -0.1283
  908YOPE   D2A13318  13.973   5.942   6.560  0.1907  0.2391 -0.0928
  908YOPE   C3A13319  13.619   5.853   6.915 -0.0598 -0.0505 -0.0369
  908YOPE   C4A13320  13.257   5.728   7.138 -0.1091 -0.1096 -0.1588
  908YOPE   C1B13321  13.450   5.237   6.265  0.1004  0.2421 -0.2415
  908YOPE   C2B13322  13.643   5.282   6.681  0.0613  0.0087 -0.0692
  908YOPE   D3B13323  13.684   5.428   7.094 -0.2816  0.0030 -0.0956
  908YOPE   C4B13324  13.722   5.685   7.402  0.1239 -0.2967 -0.1097
  909YOPE   NH313325   6.916   1.474   5.798 -0.0746  0.1174 -0.1650
  909YOPE   PO413326   7.110   1.775   5.589  0.2650 -0.0873 -0.0293
  909YOPE   GL113327   7.318   1.759   6.099  0.1775 -0.5855  0.2712
  909YOPE   GL213328   7.168   1.501   6.300  0.1391 -0.1333  0.0745
  909YOPE   C1A13329   7.638   1.720   6.393 -0.0609  0.2986  0.0730
  909YOPE   D2A13330   8.019   1.671   6.395 -0.0394  0.1045 -0.0405
  909YOPE   C3A13331   8.329   1.345   6.582 -0.1710 -0.2037 -0.2469
  909YOPE   C4A13332   8.817   1.289   6.673 -0.0881 -0.2258  0.0442
  909YOPE   C1B13333   7.339   1.572   6.768  0.0181  0.0183  0.0349
  909YOPE   C2B13334   7.247   1.795   7.176  0.0494 -0.1795  0.2544
  909YOPE   D3B13335   7.131   1.875   7.546 -0.0108 -0.0390 -0.1474
  909YOPE   C4B13336   7.256   2.283   7.758  0.3050 -0.0663  0.1587
  910YOPE   NH313337  11.431  18.567   5.310 -0.0365  0.4293  0.0167
  910YOPE   PO413338  11.339  19.047   5.278 -0.0596  0.2307  0.0002
  910YOPE   GL113339  11.131  18.830   5.669  0.1844  0.0550 -0.0691
  910YOPE   GL213340  10.877  19.039   5.771 -0.3419  0.2366  0.0103
  910YOPE   C1A13341  11.025  18.647   6.050  0.3267  0.2814 -0.0157
  910YOPE   D2A13342  10.838  18.732   6.471 -0.0576  0.0992 -0.2494
  910YOPE   C3A13343  11.129  18.831   6.862 -0.1078  0.0831  0.2840
  910YOPE   C4A13344  11.505  18.799   7.101  0.3951 -0.0429  0.0856
  910YOPE   C1B13345  11.002  19.182   6.221 -0.0532 -0.0130  0.0081
  910YOPE   C2B13346  11.082  19.242   6.576 -0.1047 -0.1643 -0.0114
  910YOPE   D3B13347  10.850  19.204   7.011  0.1554  0.0535 -0.1156
  910YOPE   C4B13348  10.786  18.969   7.473  0.1270  0.0474  0.1576
  911YOPE   NH313349   1.167  10.524   5.755  0.0611  0.0912 -0.0138
  911YOPE   PO413350   1.296  10.994   5.785 -0.2523  0.0504  0.3940
  911YOPE   GL113351   1.293  11.118   6.166  0.2924 -0.0004  0.4164
  911YOPE   GL213352   1.015  11.359   6.034 -0.0812 -0.3456  0.0794
  911YOPE   C1A13353   1.366  10.959   6.586 -0.2180  0.1024  0.0888
  911YOPE   D2A13354   1.570  10.681   6.965 -0.0570 -0.0471  0.1002
  911YOPE   C3A13355   1.541  10.744   7.329 -0.0866 -0.1430 -0.1053
  911YOPE   C4A13356   1.612  10.673   7.770  0.0582  0.3662 -0.0355
  911YOPE   C1B13357   1.200  11.448   6.461  0.1606 -0.0627 -0.3004
  911YOPE   C2B13358   0.963  11.604   6.831 -0.1892 -0.0311  0.1449
  911YOPE   D3B13359   1.104  11.581   7.237 -0.0739 -0.1612 -0.2070
  911YOPE   C4B13360   1.329  11.350   7.575 -0.3143  0.0076 -0.3449
  912YOPE   NH313361   2.722   8.314   5.336 -0.2376  0.0619 -0.0212
  912YOPE   PO413362   3.021   8.046   5.450  0.0407  0.2000 -0.1156
  912YOPE   GL113363   3.063   7.799   5.828  0.0572 -0.3362 -0.0335
  912YOPE   GL213364   2.946   7.513   5.868  0.1496 -0.0855 -0.0517
  912YOPE   C1A13365   3.333   7.858   6.163  0.3358 -0.4388 -0.1147
  912YOPE   D2A13366   3.447   7.976   6.485  0.2605 -0.1621  0.2791
  912YOPE   C3A13367   3.363   8.138   6.860  0.2809  0.1006  0.0553
  912YOPE   C4A13368   2.955   7.925   7.151 -0.0608 -0.1615 -0.1427
  912YOPE   C1B13369   3.035   7.586   6.367 -0.1015  0.0320 -0.0607
  912YOPE   C2B13370   3.158   7.638   6.743 -0.0203  0.1758  0.1939
  912YOPE   D3B13371   3.299   7.512   7.150  0.0774  0.2327 -0.1317
  912YOPE   C4B13372   3.140   7.541   7.546 -0.2738 -0.3883 -0.0115
  913YOPE   NH313373  15.417  15.473   5.543  0.4181  0.0833 -0.3061
  913YOPE   PO413374  15.705  15.265   5.876  0.0703  0.2803  0.3824
  913YOPE   GL113375  15.586  15.095   6.175  0.0273 -0.2431 -0.2004
  913YOPE   GL213376  15.845  14.828   6.217  0.2093  0.1088  0.1993
  913YOPE   C1A13377  15.196  15.207   6.454 -0.1038  0.3358  0.0239
  913YOPE   D2A13378  15.099  15.619   6.751  0.2259  0.0603  0.1508
  913YOPE   C3A13379  15.331  15.716   7.076 -0.0755 -0.2318  0.2112
  913YOPE   C4A13380  15.152  15.794   7.536 -0.4394 -0.2975 -0.1265
  913YOPE   C1B13381  15.626  14.890   6.647 -0.1579  0.4397  0.0534
  913YOPE   C2B13382  15.286  14.813   6.984  0.0665  0.1485 -0.0367
  913YOPE   D3B13383  14.953  14.882   7.368  0.1123  0.1520  0.3547
  913YOPE   C4B13384  15.040  14.843   7.772 -0.2355 -0.1488 -0.2251
  914YOPE   NH313385  17.027  15.528   6.034 -0.0451 -0.1971  0.0783
  914YOPE   PO413386  16.608  15.215   5.961 -0.2570  0.0559  0.1351
  914YOPE   GL113387  16.614  15.046   6.343  0.0345 -0.0469  0.1829
  914YOPE   GL213388  16.342  14.835   6.467  0.0693 -0.1053  0.0571
  914YOPE   C1A13389  16.739  15.100   6.821  0.3674  0.0670  0.0200
  914YOPE   D2A13390  16.864  15.452   7.182  0.1829 -0.0740 -0.0156
  914YOPE   C3A13391  17.209  15.351   7.546 -0.1391  0.1045 -0.2336
  914YOPE   C4A13392  17.591  15.201   7.776 -0.0779 -0.0474  0.3811
  914YOPE   C1B13393  16.139  15.003   6.782  0.2387  0.0745  0.0665
  914YOPE   C2B13394  15.922  15.064   7.128 -0.1356 -0.2402 -0.1857
  914YOPE   D3B13395  15.921  14.936   7.470 -0.1838 -0.0375 -0.1825
  914YOPE   C4B13396  15.846  15.233   7.779 -0.0012  0.0265  0.1231
  915YOPE   NH313397  15.066   5.443   5.455 -0.0944  0.1077 -0.1122
  915YOPE   PO413398  15.217   5.788   5.624  0.0555  0.0720 -0.0556
  915YOPE   GL113399  15.412   5.865   6.084  0.0440 -0.1748 -0.1416
  915YOPE   GL213400  15.852   5.820   6.150  0.1643 -0.0545 -0.4624
  915YOPE   C1A13401  15.444   5.892   6.446 -0.1653  0.0987  0.0764
  915YOPE   D2A13402  15.473   6.023   6.830  0.2911  0.2258 -0.2909
  915YOPE   C3A13403  15.568   5.715   7.018  0.1020 -0.1048  0.0365
  915YOPE   C4A13404  15.618   5.427   7.392  0.2048 -0.0232  0.0161
  915YOPE   C1B13405  15.925   5.901   6.607 -0.1459 -0.0096 -0.2904
  915YOPE   C2B13406  16.001   5.863   7.007 -0.1140  0.2991  0.1539
  915YOPE   D3B13407  16.139   5.973   7.393  0.0433 -0.0181 -0.0381
  915YOPE   C4B13408  16.527   6.346   7.602 -0.0125  0.2374  0.0998
  916YOPE   NH313409  12.973  14.089   5.252 -0.3063 -0.1257 -0.2101
  916YOPE   PO413410  13.218  14.466   5.456 -0.0540  0.0937  0.1146
  916YOPE   GL113411  13.159  14.408   5.812 -0.2766 -0.0716  0.2329
  916YOPE   GL213412  12.863  14.203   5.840  0.5753 -0.0794 -0.1093
  916YOPE   C1A13413  13.199  14.425   6.241  0.2797 -0.1058  0.0881
  916YOPE   D2A13414  13.455  14.510   6.674 -0.1895 -0.0699 -0.0127
  916YOPE   C3A13415  13.595  14.689   7.232 -0.0348  0.0524 -0.0985
  916YOPE   C4A13416  13.680  14.992   7.478  0.2940  0.1708  0.3009
  916YOPE   C1B13417  12.969  13.948   6.216  0.0143  0.2134 -0.3394
  916YOPE   C2B13418  12.969  13.695   6.589  0.3204 -0.0265 -0.0465
  916YOPE   D3B13419  13.109  13.606   7.086  0.1176  0.5262 -0.2266
  916YOPE   C4B13420  13.134  13.222   7.296  0.1643  0.2039 -0.3902
  917YOPE   NH313421  13.283  18.143   5.254  0.0550  0.1670  0.1108
  917YOPE   PO413422  12.903  18.204   5.479  0.1037  0.1152  0.2065
  917YOPE   GL113423  13.192  18.227   5.776 -0.2338 -0.0660 -0.0697
  917YOPE   GL213424  13.526  18.113   5.763  0.1332  0.1360 -0.0758
  917YOPE   C1A13425  13.134  18.264   6.247  0.4086  0.2284  0.1122
  917YOPE   D2A13426  13.131  18.114   6.594  0.3068 -0.0618  0.2740
  917YOPE   C3A13427  12.904  18.182   6.904  0.1655 -0.2761 -0.0873
  917YOPE   C4A13428  12.649  18.148   7.313  0.2553  0.0981  0.0656
  917YOPE   C1B13429  13.400  17.828   6.109 -0.2432 -0.1606 -0.3260
  917YOPE   C2B13430  13.402  17.699   6.517 -0.0020 -0.1630 -0.2497
  917YOPE   D3B13431  13.358  17.695   6.922 -0.0979  0.2783  0.1475
  917YOPE   C4B13432  13.341  17.538   7.398  0.0109 -0.0658 -0.0092
  918YOPE   NH313433   1.023   2.909   5.829  0.0523  0.1042  0.1201
  918YOPE   PO413434   1.387   2.433   5.770  0.2145  0.1046 -0.0955
  918YOPE   GL113435   1.203   2.588   6.199 -0.1081 -0.2144  0.2056
  918YOPE   GL213436   1.336   2.891   6.330 -0.0639 -0.2789  0.0362
  918YOPE   C1A13437   1.091   2.481   6.621 -0.0838 -0.0797  0.2204
  918YOPE   D2A13438   1.320   2.456   6.969  0.1001 -0.2511  0.2838
  918YOPE   C3A13439   1.061   2.462   7.275  0.0972 -0.2036 -0.2923
  918YOPE   C4A13440   0.921   2.239   7.650  0.2040 -0.0971  0.0418
  918YOPE   C1B13441   1.313   2.902   6.732  0.1313  0.1716  0.2579
  918YOPE   C2B13442   1.407   2.941   7.136 -0.0480 -0.1346  0.0627
  918YOPE   D3B13443   1.353   2.799   7.519  0.1015  0.2240 -0.0815
  918YOPE   C4B13444   1.375   2.624   7.871 -0.0343  0.4085  0.0207
  919YOPE   NH313445  15.670   3.238   5.008  0.1593 -0.1228  0.1096
  919YOPE   PO413446  15.966   3.079   5.168 -0.0210  0.0171 -0.4058
  919YOPE   GL113447  15.954   3.013   5.618 -0.1841  0.3036 -0.1503
  919YOPE   GL213448  15.950   3.257   5.762 -0.0297  0.2905  0.0368
  919YOPE   C1A13449  15.705   2.905   6.078  0.0573  0.0096 -0.0013
  919YOPE   D2A13450  15.342   2.929   6.345  0.0455 -0.1301  0.0660
  919YOPE   C3A13451  15.234   3.272   6.693  0.2656 -0.1797 -0.1078
  919YOPE   C4A13452  14.941   3.445   6.818  0.2115 -0.1321  0.1370
  919YOPE   C1B13453  16.156   3.475   5.953 -0.2178  0.1027 -0.0488
  919YOPE   C2B13454  16.140   3.829   6.108  0.0383 -0.1773  0.1250
  919YOPE   D3B13455  15.794   3.930   6.445 -0.0695  0.0653  0.3543
  919YOPE   C4B13456  15.419   3.700   6.526 -0.2640 -0.0246  0.0185
  920YOPE   NH313457   6.455   5.131   5.303  0.0181 -0.1073 -0.0858
  920YOPE   PO413458   6.098   5.456   5.135 -0.0762 -0.0235 -0.1266
  920YOPE   GL113459   6.201   5.494   5.597  0.0019  0.1853  0.1548
  920YOPE   GL213460   5.977   5.420   5.846 -0.1487  0.0180  0.1051
  920YOPE   C1A13461   6.409   5.590   6.078 -0.0382  0.1221  0.0592
  920YOPE   D2A13462   6.481   5.599   6.482 -0.1286  0.5106  0.0518
  920YOPE   C3A13463   6.829   5.479   6.778  0.0455  0.1349  0.0749
  920YOPE   C4A13464   7.328   5.539   6.793  0.3780  0.0200  0.0731
  920YOPE   C1B13465   5.866   5.275   6.260 -0.0295 -0.2198  0.1496
  920YOPE   C2B13466   5.964   5.496   6.616  0.1218  0.3987 -0.1034
  920YOPE   D3B13467   5.833   5.508   6.982  0.0934  0.1018  0.0742
  920YOPE   C4B13468   5.900   5.708   7.331  0.0373 -0.0793  0.0817
  921POPC   NC313469  10.055   0.051   5.340 -0.2373 -0.0765  0.0284
  921POPC   PO413470   9.674   0.260   5.587 -0.1721 -0.0613  0.0141
  921POPC   GL113471   9.705  -0.038   5.844 -0.1206 -0.0444  0.0550
  921POPC   GL213472   9.712  -0.381   5.800  0.1235  0.1484 -0.2314
  921POPC   C1A13473   9.742  -0.033   6.242  0.2380  0.0226 -0.3973
  921POPC   D2A13474   9.878   0.204   6.641 -0.3304  0.0815  0.3090
  921POPC   C3A13475   9.838   0.315   7.090 -0.2879  0.0815  0.1663
  921POPC   C4A13476   9.720   0.352   7.532 -0.1338 -0.0788  0.2037
  921POPC   C1B13477   9.719  -0.598   6.242 -0.0487  0.1846  0.0040
  921POPC   C2B13478   9.461  -0.783   6.537  0.0512  0.0112 -0.1355
  921POPC   C3B13479   9.538  -0.970   6.933  0.1184 -0.1619  0.0356
  921POPC   C4B13480   9.374  -1.107   7.214 -0.0242 -0.1933 -0.0934
  922POPC   NC313481   1.847   8.410   5.024 -0.2821 -0.1648  0.0322
  922POPC   PO413482   2.198   8.223   5.228  0.0451  0.2153 -0.0174
  922POPC   GL113483   2.045   8.431   5.564 -0.1479  0.3167  0.0657
  922POPC   GL213484   1.965   8.210   5.695 -0.0232  0.2375 -0.2666
  922POPC   C1A13485   2.095   8.598   6.043  0.4262 -0.2173 -0.0257
  922POPC   D2A13486   1.982   8.950   6.455 -0.0531 -0.0503  0.0496
  922POPC   C3A13487   1.704   8.802   6.800  0.0990  0.1214 -0.0253
  922POPC   C4A13488   1.361   8.557   6.940  0.2489  0.3873  0.0415
  922POPC   C1B13489   2.208   8.104   6.022 -0.0401 -0.5032  0.1113
  922POPC   C2B13490   2.187   8.287   6.403  0.2736 -0.0304 -0.0881
  922POPC   C3B13491   2.276   8.574   6.699  0.0218 -0.0009  0.0455
  922POPC   C4B13492   2.199   8.998   6.861  0.0010 -0.1715  0.0366
  923POPC   NC313493  12.093  12.131   5.798  0.1959 -0.0736 -0.1096
  923POPC   PO413494  11.760  12.260   5.784  0.0766  0.0297  0.1934
  923POPC   GL113495  11.586  12.479   6.134 -0.1305  0.1393 -0.2251
  923POPC   GL213496  11.347  12.440   6.172  0.2446  0.0068  0.0672
  923POPC   C1A13497  11.759  12.565   6.547  0.0966 -0.1735  0.1526
  923POPC   D2A13498  11.784  12.386   6.848 -0.3256 -0.0585 -0.1598
  923POPC   C3A13499  11.771  12.159   7.235  0.0188  0.0001  0.1997
  923POPC   C4A13500  11.900  12.340   7.594  0.1796 -0.0354 -0.0197
  923POPC   C1B13501  11.123  12.009   6.204 -0.3389 -0.1113  0.3242
  923POPC   C2B13502  10.807  11.649   6.015  0.0516 -0.0716 -0.0852
  923POPC   C3B13503  10.830  11.300   5.739  0.0080 -0.1877 -0.1642
  923POPC   C4B13504  10.944  10.863   5.677 -0.0830  0.1307  0.2794
  924POPC   NC313505  18.398   6.059   4.894  0.1009  0.0956 -0.0991
  924POPC   PO413506  18.402   6.133   5.346  0.3592 -0.0757 -0.0979
  924POPC   GL113507  18.255   6.275   5.786 -0.2770 -0.3528  0.1803
  924POPC   GL213508  18.169   6.062   5.959 -0.0672  0.2380  0.2011
  924POPC   C1A13509  17.873   6.664   5.872  0.1888 -0.2592  0.2543
  924POPC   D2A13510  17.635   6.940   5.915 -0.0707 -0.1666  0.0836
  924POPC   C3A13511  17.420   6.983   6.335  0.1192 -0.2664  0.1588
  924POPC   C4A13512  17.358   7.194   6.638  0.1087 -0.0223  0.1316
  924POPC   C1B13513  18.177   5.943   6.403 -0.0786  0.4417  0.1662
  924POPC   C2B13514  17.899   5.691   6.703 -0.3820  0.1989 -0.0725
  924POPC   C3B13515  17.862   5.632   7.103  0.1372 -0.0474 -0.2339
  924POPC   C4B13516  17.484   5.502   7.332 -0.5986  0.1830  0.1137
  925POPC   NC313517   1.756  16.379   5.708 -0.1330  0.2269 -0.2271
  925POPC   PO413518   1.532  16.001   5.712  0.1052 -0.2620 -0.0464
  925POPC   GL113519   1.555  16.121   6.210 -0.0410  0.0525 -0.0045
  925POPC   GL213520   1.615  16.172   6.524 -0.3037 -0.0067  0.0109
  925POPC   C1A13521   1.149  16.084   6.543  0.0903 -0.0116 -0.1707
  925POPC   D2A13522   1.088  15.936   6.917  0.1475 -0.1766  0.2727
  925POPC   C3A13523   0.734  15.875   7.263 -0.1224 -0.2483 -0.2000
  925POPC   C4A13524   0.668  15.700   7.661 -0.2856  0.0547  0.1867
  925POPC   C1B13525   1.506  16.128   6.948 -0.0124  0.0908 -0.0318
  925POPC   C2B13526   1.263  16.250   7.333 -0.0591 -0.1692  0.1297
  925POPC   C3B13527   1.147  16.167   7.809 -0.0365  0.1443  0.1873
  925POPC   C4B13528   0.836  16.228   8.149 -0.2017  0.0806 -0.1877
  926POPC   NC313529   1.282   0.857   5.604 -0.0159  0.1836  0.0768
  926POPC   PO413530   0.848   0.941   5.796 -0.0381  0.1691 -0.1531
  926POPC   GL113531   0.649   0.703   6.196  0.1343 -0.0201  0.1549
  926POPC   GL213532   0.291   0.494   6.147  0.2133  0.0230 -0.0842
  926POPC   C1A13533   0.562   0.593   6.634 -0.3401 -0.0114 -0.0714
  926POPC   D2A13534   0.250   0.318   6.954 -0.1476 -0.0462 -0.2225
  926POPC   C3A13535   0.552   0.063   7.159 -0.0566  0.0363  0.0292
  926POPC   C4A13536   0.896   0.213   7.314  0.0953  0.0017  0.1286
  926POPC   C1B13537   0.422   0.168   6.541 -0.1514  0.0774  0.2564
  926POPC   C2B13538   0.877   0.144   6.720 -0.0198  0.2286  0.2740
  926POPC   C3B13539   1.193   0.204   6.970 -0.2319 -0.0475  0.1020
  926POPC   C4B13540   1.491   0.429   7.009 -0.0628  0.0428 -0.1377
  927POPC   NC313541  12.852   9.879   5.436  0.1038 -0.0879 -0.0383
  927POPC   PO413542  13.293  10.041   5.370  0.3071  0.0574  0.1086
  927POPC   GL113543  13.345   9.979   5.716 -0.0363 -0.2654 -0.0910
  927POPC   GL213544  13.435   9.642   5.841 -0.5081  0.0911  0.1191
  927POPC   C1A13545  13.045   9.978   6.109  0.1155 -0.1181  0.4749
  927POPC   D2A13546  12.689  10.171   6.311 -0.0927  0.1728  0.0388
  927POPC   C3A13547  12.608   9.954   6.757  0.1115  0.1050 -0.2439
  927POPC   C4A13548  12.913  10.068   6.991 -0.0123 -0.2985 -0.0317
  927POPC   C1B13549  13.569   9.802   6.256 -0.1660  0.1850  0.1918
  927POPC   C2B13550  13.695   9.952   6.711 -0.3742 -0.3446  0.0330
  927POPC   C3B13551  13.462  10.234   7.009 -0.0489 -0.3134  0.3477
  927POPC   C4B13552  13.193  10.198   7.317  0.2742  0.4455 -0.1915
  928POPC   NC313553   9.965  13.330   5.017  0.1200 -0.0247  0.1041
  928POPC   PO413554   9.565  13.295   5.125  0.3964 -0.1838 -0.3066
  928POPC   GL113555   9.692  13.406   5.569 -0.2372 -0.2271  0.0013
  928POPC   GL213556   9.971  13.234   5.896  0.0370 -0.0232  0.2367
  928POPC   C1A13557   9.439  13.278   5.982 -0.1196 -0.4290 -0.0560
  928POPC   D2A13558   9.453  13.031   6.420 -0.1421 -0.2830 -0.0197
  928POPC   C3A13559   9.678  13.041   6.866  0.0406 -0.1255  0.4455
  928POPC   C4A13560   9.422  12.891   7.208  0.2344  0.1184  0.0502
  928POPC   C1B13561   9.748  12.900   6.088 -0.0286  0.0418  0.0759
  928POPC   C2B13562   9.912  12.749   6.483  0.0559  0.1657  0.3704
  928POPC   C3B13563  10.241  12.842   6.644  0.1038  0.4481 -0.1593
  928POPC   C4B13564  10.309  13.021   6.935 -0.0462 -0.3614  0.2399
  929POPC   NC313565   7.299   3.343   5.139 -0.1707  0.2032 -0.2554
  929POPC   PO413566   7.084   3.490   5.524 -0.0582 -0.1335 -0.1667
  929POPC   GL113567   7.040   3.382   5.854  0.2804  0.1612  0.2666
  929POPC   GL213568   6.900   3.121   6.145 -0.1032  0.0604 -0.1928
  929POPC   C1A13569   7.331   3.328   6.241 -0.0171  0.0680  0.1187
  929POPC   D2A13570   7.674   3.267   6.331 -0.0788 -0.1038 -0.3844
  929POPC   C3A13571   7.666   3.246   6.777  0.5509 -0.0868 -0.3561
  929POPC   C4A13572   7.586   3.166   7.228 -0.3289  0.1407 -0.1776
  929POPC   C1B13573   6.838   2.923   6.566  0.1446  0.0156 -0.2342
  929POPC   C2B13574   6.805   2.845   6.895 -0.1519  0.3486 -0.0749
  929POPC   C3B13575   6.786   2.626   7.257 -0.0241 -0.0443  0.1555
  929POPC   C4B13576   6.942   2.718   7.703 -0.0417 -0.1408 -0.0093
  930POPC   NC313577  17.601   5.532   5.146 -0.0438 -0.0285  0.5387
  930POPC   PO413578  17.867   5.640   5.502  0.3599  0.0141 -0.2228
  930POPC   GL113579  17.935   5.559   5.968 -0.1780 -0.1048 -0.1772
  930POPC   GL213580  18.238   5.500   6.045  0.2616 -0.0611  0.3314
  930POPC   C1A13581  17.667   5.394   6.282  0.0225  0.1445  0.2795
  930POPC   D2A13582  17.637   5.000   6.490 -0.1513 -0.3100  0.1760
  930POPC   C3A13583  17.518   5.115   6.956  0.2756  0.0634  0.1151
  930POPC   C4A13584  17.118   5.104   6.956 -0.1455 -0.0496 -0.1196
  930POPC   C1B13585  18.163   5.349   6.431 -0.2250 -0.1467 -0.3867
  930POPC   C2B13586  18.018   5.223   6.816 -0.2818  0.1084  0.1034
  930POPC   C3B13587  18.179   4.936   7.245 -0.1362 -0.0249 -0.1944
  930POPC   C4B13588  18.377   4.560   7.432  0.0501 -0.2811 -0.0501
  931POPC   NC313589  13.270  10.933   5.105 -0.2239  0.4711  0.0340
  931POPC   PO413590  13.560  11.184   5.354  0.4667 -0.0397  0.1796
  931POPC   GL113591  13.737  11.138   5.776  0.0666  0.2377 -0.0011
  931POPC   GL213592  13.849  10.881   5.756 -0.1506  0.0577  0.0620
  931POPC   C1A13593  13.996  11.142   6.136 -0.2382  0.1667  0.1821
  931POPC   D2A13594  14.025  11.137   6.501 -0.0928 -0.2429  0.0951
  931POPC   C3A13595  14.003  10.936   6.766 -0.1415  0.2527  0.2675
  931POPC   C4A13596  13.888  10.469   6.772  0.1788 -0.1818 -0.2578
  931POPC   C1B13597  13.777  10.602   6.173 -0.0464  0.2539 -0.2075
  931POPC   C2B13598  13.543  10.331   6.403 -0.2355  0.0343  0.1630
  931POPC   C3B13599  13.127  10.224   6.578  0.0294 -0.1321  0.3129
  931POPC   C4B13600  13.120   9.802   6.615 -0.4697  0.0073  0.2155
  932POPC   NC313601  16.718  11.964   5.468 -0.2111  0.3474  0.2209
  932POPC   PO413602  17.090  12.121   5.630  0.1329 -0.3820  0.0061
  932POPC   GL113603  17.227  12.348   5.995 -0.0294 -0.1639 -0.0953
  932POPC   GL213604  17.301  12.041   6.241  0.0162  0.1937  0.0869
  932POPC   C1A13605  17.453  12.554   6.345 -0.1261 -0.0889  0.0852
  932POPC   D2A13606  17.449  12.860   6.554  0.0716  0.0771 -0.1233
  932POPC   C3A13607  17.386  12.855   7.047  0.1108 -0.0396  0.1117
  932POPC   C4A13608  17.483  12.883   7.443 -0.4590  0.2837 -0.1325
  932POPC   C1B13609  17.393  12.219   6.725  0.2721 -0.0748  0.1852
  932POPC   C2B13610  17.290  12.320   7.108  0.2294 -0.3510  0.2376
  932POPC   C3B13611  17.270  12.412   7.467 -0.3125 -0.2495 -0.1874
  932POPC   C4B13612  17.488  12.359   7.983 -0.1805  0.0044  0.2538
  933POPC   NC313613   3.882   8.834   5.671 -0.3623  0.2270  0.0952
  933POPC   PO413614   4.390   8.663   5.668  0.0836  0.1130  0.0962
  933POPC   GL113615   4.159   8.536   6.009  0.0482 -0.1923 -0.0491
  933POPC   GL213616   3.836   8.317   5.934  0.1463 -0.4013 -0.0449
  933POPC   C1A13617   4.179   8.769   6.362  0.0062  0.1811 -0.2640
  933POPC   D2A13618   4.335   8.823   6.636 -0.0398 -0.0610  0.1141
  933POPC   C3A13619   4.596   8.498   6.820  0.0129  0.1825 -0.0539
  933POPC   C4A13620   4.966   8.256   7.016  0.2348 -0.1542 -0.0137
  933POPC   C1B13621   3.892   8.224   6.324 -0.1156 -0.0770 -0.0259
  933POPC   C2B13622   3.831   7.977   6.782  0.0401 -0.2147 -0.0313
  933POPC   C3B13623   3.759   7.787   7.230 -0.0269 -0.0191 -0.5303
  933POPC   C4B13624   3.748   7.408   7.466  0.2984 -0.0271  0.0352
  934POPC   NC313625  16.937   2.626   5.397 -0.0940 -0.0471  0.1416
  934POPC   PO413626  17.287   2.442   5.697 -0.2266  0.0644  0.1724
  934POPC   GL113627  17.321   2.344   6.174 -0.1219 -0.0611 -0.2823
  934POPC   GL213628  17.536   2.568   6.210 -0.0857 -0.1720 -0.1518
  934POPC   C1A13629  17.104   2.137   6.517 -0.1759  0.2107  0.1960
  934POPC   D2A13630  16.859   2.236   6.921  0.1763  0.1427  0.2165
  934POPC   C3A13631  17.026   2.096   7.315 -0.3011 -0.0904 -0.1201
  934POPC   C4A13632  17.024   1.776   7.441  0.3132 -0.0109  0.0139
  934POPC   C1B13633  17.761   2.829   6.671 -0.0916  0.1332  0.4033
  934POPC   C2B13634  17.705   2.812   7.155  0.2006  0.2157 -0.3736
  934POPC   C3B13635  17.253   2.848   7.379 -0.0979 -0.1519 -0.0222
  934POPC   C4B13636  16.988   2.901   7.746 -0.2909  0.1460  0.0862
  935POPC   NC313637   8.695  11.716   5.266  0.1526 -0.0143 -0.2747
  935POPC   PO413638   8.879  12.085   5.403  0.3126  0.2381  0.0862
  935POPC   GL113639   9.133  12.269   5.733 -0.0349 -0.2261  0.1381
  935POPC   GL213640   9.408  12.214   5.848  0.1112 -0.1740 -0.0860
  935POPC   C1A13641   9.117  12.302   6.233 -0.0463 -0.3275  0.1316
  935POPC   D2A13642   8.898  12.372   6.608  0.0785  0.0264 -0.3271
  935POPC   C3A13643   8.812  12.080   7.019  0.1866  0.3808  0.3413
  935POPC   C4A13644   8.907  11.876   7.479  0.0542 -0.0435  0.1203
  935POPC   C1B13645   9.560  12.470   6.090 -0.2625 -0.1302 -0.1456
  935POPC   C2B13646   9.454  12.479   6.519 -0.1506  0.2160 -0.0347
  935POPC   C3B13647   9.800  12.387   6.898  0.1437  0.0746 -0.0069
  935POPC   C4B13648   9.987  12.697   7.087  0.1188 -0.1941 -0.4244
  936POPC   NC313649  10.535   9.581   5.226  0.3091 -0.1215  0.0279
  936POPC   PO413650  10.957   9.779   4.923 -0.1072 -0.2137 -0.0233
  936POPC   GL113651  11.009  10.033   5.327 -0.0054 -0.0127 -0.1713
  936POPC   GL213652  10.957   9.790   5.548  0.3690 -0.0908  0.0911
  936POPC   C1A13653  11.020  10.321   5.651 -0.2249  0.2815  0.0202
  936POPC   D2A13654  10.690  10.459   5.916 -0.0094  0.0021 -0.1684
  936POPC   C3A13655  10.763  10.776   6.084  0.0922  0.1367  0.3401
  936POPC   C4A13656  10.827  11.117   6.413 -0.0722 -0.0629  0.4279
  936POPC   C1B13657  11.204   9.659   5.879 -0.2050 -0.5207 -0.2129
  936POPC   C2B13658  11.297   9.238   6.090 -0.0936  0.2158 -0.0136
  936POPC   C3B13659  11.249   9.090   6.471 -0.0069 -0.0502 -0.0332
  936POPC   C4B13660  11.192   9.189   6.935  0.1136 -0.0953 -0.0130
  937POPC   NC313661   5.424  18.211   5.255  0.2190  0.0653  0.2008
  937POPC   PO413662   5.070  18.369   5.103  0.1236 -0.0825  0.1466
  937POPC   GL113663   5.118  18.397   5.614  0.1581  0.1413 -0.2187
  937POPC   GL213664   5.103  18.048   5.752 -0.3251  0.1121  0.2883
  937POPC   C1A13665   4.952  18.446   6.019  0.3936  0.1085  0.0998
  937POPC   D2A13666   5.002  18.536   6.466 -0.0505  0.0830 -0.1759
  937POPC   C3A13667   5.236  18.944   6.477  0.2061  0.0107 -0.0035
  937POPC   C4A13668   5.396  19.149   6.759  0.1523  0.1777  0.2571
  937POPC   C1B13669   5.275  18.119   6.140 -0.0856  0.1185  0.1254
  937POPC   C2B13670   5.176  18.076   6.629 -0.1639  0.2218  0.3768
  937POPC   C3B13671   5.130  18.183   7.013 -0.0927  0.2689  0.0380
  937POPC   C4B13672   4.967  18.341   7.425  0.0442 -0.1707  0.1745
  938POPC   NC313673   0.310   5.670   5.685  0.3331 -0.4115  0.2025
  938POPC   PO413674   0.555   5.771   5.235 -0.1928 -0.0629  0.0391
  938POPC   GL113675   0.694   6.011   5.629  0.1319 -0.0637 -0.0750
  938POPC   GL213676   0.646   6.376   5.796  0.3407 -0.1858  0.2212
  938POPC   C1A13677   0.887   6.103   6.078  0.1237 -0.0002  0.2135
  938POPC   D2A13678   1.064   6.257   6.384  0.2215 -0.0344  0.3199
  938POPC   C3A13679   1.108   6.426   6.725 -0.1579 -0.0181 -0.0830
  938POPC   C4A13680   1.055   6.586   7.091  0.2712 -0.0461 -0.0730
  938POPC   C1B13681   0.581   6.385   6.318  0.0855  0.1646  0.5176
  938POPC   C2B13682   0.553   6.456   6.678  0.3508  0.2621  0.1250
  938POPC   C3B13683   0.527   6.502   7.089 -0.1780  0.1375  0.1607
  938POPC   C4B13684   0.164   6.465   7.262  0.1108  0.3100 -0.0686
  939POPC   NC313685  18.025   3.601   5.187  0.0170  0.3218 -0.2162
  939POPC   PO413686  18.370   3.764   5.444  0.1154 -0.2152  0.0121
  939POPC   GL113687  18.471   3.988   5.809  0.0249 -0.2161  0.1161
  939POPC   GL213688  18.670   4.248   5.843  0.1455 -0.4374  0.2268
  939POPC   C1A13689  18.386   3.927   6.259  0.3583  0.1662  0.0145
  939POPC   D2A13690  17.998   4.053   6.576  0.1988 -0.2588  0.0935
  939POPC   C3A13691  17.726   3.736   6.583 -0.0602  0.3822 -0.0923
  939POPC   C4A13692  17.531   3.298   6.725  0.0568  0.0906 -0.0998
  939POPC   C1B13693  18.788   4.352   6.206  0.1730 -0.0442  0.0355
  939POPC   C2B13694  18.815   4.728   6.528 -0.2194 -0.0951  0.0700
  939POPC   C3B13695  19.004   4.776   6.912  0.1722  0.0594  0.1781
  939POPC   C4B13696  19.237   4.448   7.158 -0.0280 -0.1984 -0.1053
  940POPC   NC313697  15.502  18.421   5.224 -0.2499  0.1352  0.2114
  940POPC   PO413698  15.699  18.078   5.429 -0.4224 -0.0914 -0.0883
  940POPC   GL113699  15.754  17.908   5.827 -0.3310 -0.1435 -0.2515
  940POPC   GL213700  15.534  18.016   6.042  0.0076 -0.1861  0.0522
  940POPC   C1A13701  15.950  17.789   6.164  0.1282  0.1400 -0.0389
  940POPC   D2A13702  15.979  17.795   6.532 -0.3718 -0.0990  0.2063
  940POPC   C3A13703  15.729  17.634   6.810 -0.1313  0.0358 -0.1240
  940POPC   C4A13704  15.264  17.557   6.921 -0.0226  0.0482 -0.1313
  940POPC   C1B13705  15.348  17.924   6.543  0.0323 -0.1273 -0.0469
  940POPC   C2B13706  15.120  18.065   6.922  0.0805 -0.2941  0.1099
  940POPC   C3B13707  15.037  18.362   7.226  0.3927 -0.1070  0.0029
  940POPC   C4B13708  15.217  18.222   7.561  0.0413  0.0474 -0.1362
  941POPC   NC313709   1.545  15.547   5.529 -0.2783  0.3438 -0.0522
  941POPC   PO413710   1.725  15.208   5.817  0.2622 -0.1626  0.1931
  941POPC   GL113711   1.840  15.200   6.264  0.4276 -0.2585 -0.1603
  941POPC   GL213712   2.177  15.313   6.131  0.0100  0.0764 -0.2033
  941POPC   C1A13713   2.053  15.349   6.710  0.5021 -0.2175  0.1695
  941POPC   D2A13714   2.377  15.628   6.905 -0.0433  0.4795  0.3901
  941POPC   C3A13715   2.396  15.722   7.414 -0.0204 -0.1192  0.1938
  941POPC   C4A13716   2.379  15.613   7.859 -0.1695 -0.1639 -0.5377
  941POPC   C1B13717   2.293  14.925   6.467 -0.5166 -0.0662  0.2224
  941POPC   C2B13718   2.359  14.436   6.628  0.1272 -0.0079  0.2914
  941POPC   C3B13719   2.075  14.088   6.827  0.5469  0.0704 -0.1426
  941POPC   C4B13720   1.941  13.772   7.114  0.1606 -0.0045  0.1289
  942POPC   NC313721   0.914   3.645   6.088 -0.2007 -0.1353  0.1690
  942POPC   PO413722   1.260   3.306   6.085 -0.0125 -0.1612 -0.0352
  942POPC   GL113723   1.137   3.297   6.451 -0.0974 -0.1069  0.1819
  942POPC   GL213724   0.802   3.425   6.534  0.1569  0.1473 -0.0821
  942POPC   C1A13725   1.254   3.420   6.789 -0.2087  0.2716  0.2338
  942POPC   D2A13726   1.226   3.544   7.188  0.0993 -0.1056 -0.3740
  942POPC   C3A13727   1.577   3.397   7.407  0.0280  0.1142  0.1112
  942POPC   C4A13728   1.602   3.228   7.708  0.1518  0.0039 -0.3903
  942POPC   C1B13729   0.670   3.479   6.883  0.2225  0.1599  0.2920
  942POPC   C2B13730   0.726   3.642   7.209 -0.0327 -0.2422  0.0665
  942POPC   C3B13731   0.825   3.637   7.601  0.0675 -0.1034 -0.1755
  942POPC   C4B13732   0.816   4.149   7.742  0.2784 -0.0934 -0.1933
  943POPC   NC313733  12.348   9.204   5.039 -0.2422 -0.1622  0.0538
  943POPC   PO413734  12.757   8.987   5.188  0.3122 -0.1111  0.3567
  943POPC   GL113735  12.824   9.127   5.662 -0.2535  0.5018  0.0548
  943POPC   GL213736  13.129   9.071   5.790 -0.2369 -0.1464  0.1121
  943POPC   C1A13737  12.510   9.196   6.024 -0.1666  0.2849 -0.0795
  943POPC   D2A13738  12.635   9.455   6.321  0.0240 -0.2168  0.2631
  943POPC   C3A13739  12.716   9.407   6.729 -0.1217  0.1525  0.2055
  943POPC   C4A13740  13.022   9.592   7.127 -0.2371  0.1605  0.1274
  943POPC   C1B13741  12.955   8.972   6.167 -0.2109  0.0984  0.2488
  943POPC   C2B13742  12.866   8.958   6.536  0.1070 -0.1998  0.1965
  943POPC   C3B13743  12.891   9.055   7.029 -0.1726  0.0642  0.0352
  943POPC   C4B13744  12.711   9.217   7.293 -0.2496  0.0057  0.3297
  944POPC   NC313745   6.505   6.642   5.458 -0.1185  0.1419  0.0119
  944POPC   PO413746   6.576   6.296   5.490 -0.2766 -0.0314  0.2000
  944POPC   GL113747   6.698   6.307   5.895 -0.1464  0.0541 -0.3510
  944POPC   GL213748   7.095   6.357   5.923  0.1170  0.2643 -0.1367
  944POPC   C1A13749   6.715   6.343   6.313  0.1292 -0.0956  0.2565
  944POPC   D2A13750   6.545   6.237   6.505 -0.2788  0.0996 -0.0975
  944POPC   C3A13751   6.791   5.992   6.666 -0.1402  0.0778  0.1960
  944POPC   C4A13752   7.167   6.105   6.782  0.0951  0.1125 -0.1732
  944POPC   C1B13753   7.226   6.108   6.253  0.3541  0.2593  0.0431
  944POPC   C2B13754   7.511   5.898   6.489 -0.1298  0.0707  0.2546
  944POPC   C3B13755   7.874   6.007   6.621 -0.1224  0.1149 -0.3231
  944POPC   C4B13756   8.028   6.211   6.986 -0.0417  0.0651  0.1193
  945POPC   NC313757   9.775  14.317   5.195 -0.0254 -0.4008 -0.0404
  945POPC   PO413758  10.088  14.617   5.266 -0.1999  0.3873  0.1414
  945POPC   GL113759  10.183  14.600   5.739  0.1597  0.3952  0.1919
  945POPC   GL213760  10.162  14.987   5.807 -0.3179  0.1358 -0.0675
  945POPC   C1A13761   9.992  14.415   6.027 -0.4251  0.0715  0.3960
  945POPC   D2A13762   9.951  14.127   6.379  0.0390 -0.2520  0.1823
  945POPC   C3A13763   9.681  14.106   6.692 -0.0989  0.1517 -0.0289
  945POPC   C4A13764   9.322  14.039   6.967  0.2483 -0.2276  0.0339
  945POPC   C1B13765   9.978  14.935   6.207  0.1604 -0.3303 -0.0306
  945POPC   C2B13766   9.996  14.996   6.729  0.0632  0.1485 -0.0641
  945POPC   C3B13767  10.061  15.160   7.098  0.0286  0.0963 -0.3485
  945POPC   C4B13768  10.507  15.268   7.101 -0.1223  0.0052  0.0852
  946POPC   NC313769  11.255   6.222   5.415  0.0905  0.0760 -0.0674
  946POPC   PO413770  11.493   5.795   5.399  0.1128 -0.1340  0.0670
  946POPC   GL113771  11.252   5.816   5.764 -0.2757  0.0709 -0.0109
  946POPC   GL213772  10.997   5.590   5.674  0.0028  0.1407 -0.1086
  946POPC   C1A13773  11.341   6.048   6.160 -0.0029 -0.0498 -0.3176
  946POPC   D2A13774  11.526   6.167   6.652  0.2458 -0.3810 -0.1740
  946POPC   C3A13775  11.553   6.353   7.058  0.0316 -0.1585 -0.1835
  946POPC   C4A13776  11.218   6.392   7.382 -0.0213 -0.0928 -0.2069
  946POPC   C1B13777  11.138   5.388   6.111 -0.1705  0.0490  0.2341
  946POPC   C2B13778  10.995   5.273   6.456  0.0514 -0.2514 -0.1658
  946POPC   C3B13779  10.787   5.123   6.780 -0.1029  0.2188  0.3218
  946POPC   C4B13780  10.580   5.143   7.126  0.0099 -0.1537  0.4223
  947POPC   NC313781   6.074   7.332   5.409 -0.1980 -0.1367  0.1942
  947POPC   PO413782   6.180   6.997   5.650 -0.0201 -0.0100  0.2563
  947POPC   GL113783   6.530   6.960   5.922 -0.0532 -0.1327 -0.2370
  947POPC   GL213784   6.575   7.224   6.143  0.0004  0.2289  0.2667
  947POPC   C1A13785   6.936   6.825   5.987 -0.0294  0.0041 -0.2129
  947POPC   D2A13786   7.114   6.654   6.393  0.1110 -0.1808  0.0735
  947POPC   C3A13787   7.122   6.772   6.790 -0.1527 -0.0253  0.0117
  947POPC   C4A13788   7.473   6.847   7.066  0.1248 -0.0884 -0.0885
  947POPC   C1B13789   6.325   7.279   6.529 -0.2330  0.4441 -0.1012
  947POPC   C2B13790   5.910   7.326   6.830  0.3017  0.0418 -0.2089
  947POPC   C3B13791   5.541   7.428   7.103 -0.2198  0.2168 -0.1596
  947POPC   C4B13792   5.576   7.467   7.533  0.2123  0.0120 -0.0774
  948POPC   NC313793   6.817  15.362   5.069 -0.2612 -0.0444  0.1809
  948POPC   PO413794   6.640  15.496   5.482 -0.0196 -0.1473  0.3840
  948POPC   GL113795   6.523  15.519   5.842 -0.0939 -0.1147 -0.0098
  948POPC   GL213796   6.547  15.217   6.049  0.2449 -0.0700  0.0094
  948POPC   C1A13797   6.550  15.758   6.257 -0.1476  0.1003  0.1056
  948POPC   D2A13798   6.924  15.802   6.516 -0.0010  0.0900  0.0399
  948POPC   C3A13799   7.078  15.881   6.882 -0.1413 -0.1895  0.0044
  948POPC   C4A13800   6.891  15.963   7.278 -0.0671  0.2557  0.0723
  948POPC   C1B13801   6.559  15.347   6.509 -0.0707 -0.2139  0.0436
  948POPC   C2B13802   6.335  15.376   6.982  0.0320 -0.1308 -0.0594
  948POPC   C3B13803   6.207  15.131   7.302  0.2383  0.2647 -0.0262
  948POPC   C4B13804   5.915  14.973   7.694  0.2098  0.0714 -0.2235
  949POPC   NC313805   3.727   6.508   5.528  0.0050  0.0337  0.2087
  949POPC   PO413806   3.983   6.136   5.662 -0.2925 -0.2448  0.2921
  949POPC   GL113807   3.997   5.990   6.106  0.1842 -0.1158 -0.0757
  949POPC   GL213808   4.163   5.807   6.328 -0.0248 -0.0028  0.0232
  949POPC   C1A13809   3.775   6.186   6.493 -0.0724 -0.0553  0.0450
  949POPC   D2A13810   3.940   6.474   6.734  0.0475  0.2442  0.3969
  949POPC   C3A13811   3.593   6.797   6.765  0.0589 -0.1873 -0.0474
  949POPC   C4A13812   3.493   7.185   6.869 -0.2266 -0.1292  0.2015
  949POPC   C1B13813   4.197   5.957   6.687  0.1643  0.1819  0.0074
  949POPC   C2B13814   4.054   5.938   7.108  0.1171 -0.1137  0.0729
  949POPC   C3B13815   3.872   6.157   7.469  0.0951 -0.1460 -0.2706
  949POPC   C4B13816   3.537   6.361   7.791  0.1324 -0.1051  0.0338
  950POPC   NC313817  11.338   6.777   4.825 -0.1569  0.3089  0.1500
  950POPC   PO413818  11.371   6.722   5.297  0.1401  0.1004 -0.1833
  950POPC   GL113819  11.389   6.612   5.719 -0.0764  0.0714  0.3000
  950POPC   GL213820  11.696   6.592   5.800  0.4138  0.2247 -0.3267
  950POPC   C1A13821  11.439   6.949   6.106  0.2244 -0.0728 -0.1111
  950POPC   D2A13822  11.838   6.961   6.212  0.3238  0.0092  0.2304
  950POPC   C3A13823  12.092   7.061   6.636  0.2569  0.4093  0.1455
  950POPC   C4A13824  11.796   7.251   7.000  0.1264 -0.2051  0.1728
  950POPC   C1B13825  11.656   6.503   6.290 -0.0647  0.0476 -0.2096
  950POPC   C2B13826  11.729   6.727   6.629  0.1684  0.1562 -0.3644
  950POPC   C3B13827  11.892   6.722   7.027  0.0619 -0.2594 -0.3673
  950POPC   C4B13828  11.793   6.852   7.386  0.1099  0.0935 -0.3535
  951POPC   NC313829  16.482   4.299   4.776 -0.2101  0.0730 -0.2172
  951POPC   PO413830  16.786   4.228   5.141  0.1527 -0.2462 -0.0555
  951POPC   GL113831  16.723   4.173   5.558 -0.1137 -0.0763  0.1640
  951POPC   GL213832  17.000   4.206   5.724  0.2209 -0.0163  0.1342
  951POPC   C1A13833  16.461   4.207   5.821  0.2858  0.1703  0.1492
  951POPC   D2A13834  15.959   4.313   6.008 -0.2662  0.2620 -0.4058
  951POPC   C3A13835  16.001   4.344   6.386  0.0558  0.2232  0.1000
  951POPC   C4A13836  16.346   4.181   6.556 -0.3993  0.1842  0.3015
  951POPC   C1B13837  16.894   4.343   6.131  0.0906 -0.0764 -0.0335
  951POPC   C2B13838  16.820   4.429   6.501 -0.0182 -0.2518  0.1373
  951POPC   C3B13839  16.691   4.498   6.859  0.1662  0.3636 -0.2495
  951POPC   C4B13840  16.706   4.763   7.226  0.2040 -0.2096  0.0927
  952POPC   NC313841   8.703  10.436   5.503 -0.1867  0.1176  0.1664
  952POPC   PO413842   9.095  10.436   5.579 -0.0722  0.5207 -0.0010
  952POPC   GL113843   9.314  10.381   5.906 -0.1468  0.1361  0.0212
  952POPC   GL213844   9.125  10.098   6.139 -0.2066  0.0329  0.2815
  952POPC   C1A13845   9.578  10.415   6.300  0.2265  0.0308 -0.2629
  952POPC   D2A13846   9.625  10.297   6.738  0.0159 -0.0751 -0.2397
  952POPC   C3A13847   9.967  10.127   6.873 -0.1728 -0.1043  0.1161
  952POPC   C4A13848  10.338  10.245   7.163  0.2605 -0.1657  0.1847
  952POPC   C1B13849   9.210  10.152   6.494 -0.1445 -0.0562 -0.2467
  952POPC   C2B13850   9.159  10.366   6.967 -0.2011  0.1546  0.0698
  952POPC   C3B13851   8.880  10.677   6.974  0.1181 -0.1197 -0.0182
  952POPC   C4B13852   8.462  11.011   6.959 -0.1642  0.1455  0.0838
  953POPC   NC313853   6.882   8.667   5.483 -0.0402  0.0817 -0.1560
  953POPC   PO413854   6.677   8.241   5.476  0.0253  0.1761  0.1202
  953POPC   GL113855   6.576   8.111   5.829 -0.2236  0.0832  0.0370
  953POPC   GL213856   6.735   8.361   5.953  0.0548  0.2363  0.1919
  953POPC   C1A13857   6.282   7.900   6.076  0.0898  0.0148 -0.0135
  953POPC   D2A13858   6.029   7.756   6.403  0.0396  0.2175 -0.1814
  953POPC   C3A13859   5.612   7.636   6.558 -0.5816 -0.0694  0.1171
  953POPC   C4A13860   5.211   7.688   6.403 -0.1982 -0.3383  0.0483
  953POPC   C1B13861   6.565   8.218   6.392  0.2199  0.0383  0.0822
  953POPC   C2B13862   6.428   7.898   6.709 -0.1023 -0.3300  0.0409
  953POPC   C3B13863   6.376   7.570   6.991 -0.0086  0.1112  0.0251
  953POPC   C4B13864   6.625   7.447   7.357  0.3201 -0.0759 -0.2734
  954POPC   NC313865   8.118   7.767   5.827 -0.1242  0.2952 -0.4490
  954POPC   PO413866   8.392   8.049   5.667  0.0226 -0.4175 -0.1152
  954POPC   GL113867   8.473   8.213   6.108  0.1184  0.1104 -0.0229
  954POPC   GL213868   8.600   8.470   6.208  0.0046  0.4386 -0.0097
  954POPC   C1A13869   8.698   8.026   6.455 -0.0907 -0.0563  0.1955
  954POPC   D2A13870   8.844   7.892   6.902 -0.0192  0.0196 -0.2501
  954POPC   C3A13871   8.726   7.897   7.438  0.2335 -0.0595 -0.2427
  954POPC   C4A13872   8.375   7.907   7.693 -0.1111  0.2641 -0.0829
  954POPC   C1B13873   8.440   8.824   6.409 -0.4476  0.0863  0.1013
  954POPC   C2B13874   8.390   8.843   6.811 -0.1190  0.1292  0.1628
  954POPC   C3B13875   8.182   9.064   7.155 -0.1405  0.1323 -0.2515
  954POPC   C4B13876   8.095   9.356   7.460  0.1158 -0.1316 -0.0798
  955POPC   NC313877  17.510  11.958   5.791 -0.2704  0.0249  0.0811
  955POPC   PO413878  17.741  11.746   5.999  0.1145  0.0860  0.1151
  955POPC   GL113879  17.539  11.623   6.407 -0.1809  0.1048  0.1958
  955POPC   GL213880  17.476  11.263   6.411  0.2278  0.0893  0.0328
  955POPC   C1A13881  17.434  11.653   6.761  0.1554  0.0217 -0.2295
  955POPC   D2A13882  17.575  11.801   7.054  0.1643  0.1919 -0.0576
  955POPC   C3A13883  17.840  11.695   7.340  0.0915  0.0682  0.1161
  955POPC   C4A13884  18.157  11.517   7.563 -0.1237  0.0257 -0.1138
  955POPC   C1B13885  17.258  11.136   6.814 -0.0643  0.1151  0.0752
  955POPC   C2B13886  17.198  10.931   7.248  0.1645  0.0408 -0.0312
  955POPC   C3B13887  17.416  10.894   7.680  0.1874  0.0544  0.0163
  955POPC   C4B13888  17.460  11.025   8.068 -0.1905 -0.1269 -0.4720
  956POPC   NC313889  13.407  16.795   5.176  0.1699 -0.0885 -0.0962
  956POPC   PO413890  13.032  16.380   4.969 -0.1775 -0.3192  0.1144
  956POPC   GL113891  12.994  16.389   5.482 -0.4043  0.0973 -0.0288
  956POPC   GL213892  12.756  16.179   5.615 -0.1254  0.0891 -0.0240
  956POPC   C1A13893  13.179  16.290   5.912  0.2003  0.5422 -0.0222
  956POPC   D2A13894  13.403  16.472   6.162 -0.0836  0.1750  0.2536
  956POPC   C3A13895  13.657  16.287   6.514  0.4769 -0.1540 -0.1438
  956POPC   C4A13896  13.611  16.263   6.993  0.0703  0.0175  0.2144
  956POPC   C1B13897  12.682  16.489   5.874  0.0414 -0.2667 -0.3632
  956POPC   C2B13898  12.528  16.658   6.217  0.1680  0.2875 -0.0428
  956POPC   C3B13899  12.302  16.550   6.478  0.0568  0.3609 -0.1505
  956POPC   C4B13900  12.266  16.615   6.959  0.1093  0.1866  0.0150
  957POPC   NC313901  18.590   0.731   5.153 -0.2698  0.4542 -0.3936
  957POPC   PO413902  18.207   0.819   5.431 -0.0817  0.1861  0.0452
  957POPC   GL113903  18.048   0.738   5.896 -0.1037 -0.2187  0.1307
  957POPC   GL213904  17.781   0.560   6.112  0.0507  0.0392  0.0196
  957POPC   C1A13905  18.168   0.868   6.416  0.2309  0.0177  0.1044
  957POPC   D2A13906  17.941   0.763   6.775  0.0098  0.0905  0.1236
  957POPC   C3A13907  18.008   1.051   7.201 -0.0290 -0.0892  0.1364
  957POPC   C4A13908  17.958   1.445   7.415  0.2905 -0.0512 -0.0205
  957POPC   C1B13909  17.735   0.433   6.472  0.1291 -0.0361 -0.0253
  957POPC   C2B13910  17.714   0.380   6.898 -0.2251 -0.1159 -0.2973
  957POPC   C3B13911  17.920   0.553   7.239 -0.2264 -0.2099  0.1273
  957POPC   C4B13912  17.890   0.765   7.591 -0.1372  0.0849  0.0243
  958POPC   NC313913  11.824  18.867   5.123 -0.2831 -0.1729  0.0268
  958POPC   PO413914  12.150  18.871   5.397  0.0882 -0.2514  0.1018
  958POPC   GL113915  12.214  19.123   5.675  0.1496  0.0426 -0.0984
  958POPC   GL213916  12.591  19.205   5.707 -0.2260  0.3350 -0.0089
  958POPC   C1A13917  12.237  19.359   6.108 -0.2290 -0.2437  0.2258
  958POPC   D2A13918  12.028  19.415   6.479  0.1075  0.1091 -0.0891
  958POPC   C3A13919  12.165  19.785   6.716 -0.0764  0.0162 -0.1471
  958POPC   C4A13920  12.245  19.932   7.064 -0.0363  0.1010 -0.0259
  958POPC   C1B13921  12.774  19.032   6.074  0.2648 -0.2277  0.1407
  958POPC   C2B13922  12.907  19.033   6.476  0.1407  0.2502 -0.2132
  958POPC   C3B13923  12.867  19.092   7.006 -0.0538 -0.2397  0.3402
  958POPC   C4B13924  12.979  19.108   7.439  0.3469  0.0508  0.2186
  959POPC   NC313925   8.148  13.591   5.048 -0.1168  0.3083  0.1090
  959POPC   PO413926   8.423  13.535   5.409 -0.0291  0.0827  0.1552
  959POPC   GL113927   8.355  13.619   5.798  0.0160 -0.3692 -0.2779
  959POPC   GL213928   8.125  13.515   6.072 -0.2568 -0.0242  0.3763
  959POPC   C1A13929   8.612  13.764   6.134 -0.0861  0.0215 -0.2024
  959POPC   D2A13930   8.743  13.642   6.540 -0.1882  0.0694  0.0279
  959POPC   C3A13931   8.961  13.227   6.681 -0.0790 -0.0341 -0.2712
  959POPC   C4A13932   9.085  12.817   6.765 -0.3556  0.1259  0.3400
  959POPC   C1B13933   8.009  13.539   6.434 -0.0505  0.0917  0.0349
  959POPC   C2B13934   8.019  13.593   6.877 -0.3107  0.0491  0.2119
  959POPC   C3B13935   7.609  13.632   7.207 -0.2629 -0.3244  0.2588
  959POPC   C4B13936   7.447  13.612   7.636 -0.1639 -0.3031  0.0614
  960POPC   NC313937   5.335   4.947   5.539  0.0333  0.0873 -0.0754
  960POPC   PO413938   5.716   4.674   5.560  0.0925 -0.0096 -0.0598
  960POPC   GL113939   5.567   4.724   5.959  0.0210  0.2286 -0.1890
  960POPC   GL213940   5.650   4.513   6.080  0.1660 -0.3892  0.0268
  960POPC   C1A13941   5.282   4.976   6.207  0.1836 -0.0851  0.4157
  960POPC   D2A13942   4.972   5.085   6.323 -0.2606  0.0086 -0.2411
  960POPC   C3A13943   4.752   4.899   6.656 -0.3160 -0.0897 -0.0006
  960POPC   C4A13944   4.389   5.095   6.996 -0.0406 -0.0655  0.2116
  960POPC   C1B13945   5.751   4.734   6.426  0.3526  0.2629  0.1547
  960POPC   C2B13946   5.781   4.820   6.843 -0.1855 -0.1896 -0.0630
  960POPC   C3B13947   6.099   4.942   7.164  0.1931 -0.0387  0.1299
  960POPC   C4B13948   6.118   5.151   7.586  0.1299 -0.0589  0.0989
  961YOPC   NC313949  14.129   2.638   5.125  0.0784 -0.0058 -0.1116
  961YOPC   PO413950  13.942   2.277   5.264  0.3739  0.0107  0.1104
  961YOPC   GL113951  14.195   2.583   5.620 -0.0288 -0.2725  0.0907
  961YOPC   GL213952  13.857   2.606   5.859 -0.0272  0.0592  0.0365
  961YOPC   C1A13953  14.455   2.567   6.045 -0.0706 -0.0978 -0.0357
  961YOPC   D2A13954  14.531   2.323   6.425 -0.0121  0.2352  0.2447
  961YOPC   C3A13955  14.298   2.396   6.692  0.1184 -0.0624  0.0815
  961YOPC   C4A13956  14.352   2.155   7.071 -0.3091  0.2488  0.0769
  961YOPC   C1B13957  13.813   2.682   6.240 -0.0772 -0.1453 -0.1008
  961YOPC   C2B13958  13.693   2.640   6.674 -0.1364 -0.0092  0.0049
  961YOPC   D3B13959  14.060   2.694   6.961 -0.2835 -0.3734  0.0774
  961YOPC   C4B13960  14.065   2.407   7.412  0.0120  0.2366  0.1172
  962YOPC   NC313961  10.462  18.676   4.985 -0.2142  0.2354 -0.1485
  962YOPC   PO413962  10.141  18.459   5.273  0.1322  0.2132 -0.0809
  962YOPC   GL113963  10.224  18.408   5.636 -0.1046  0.1500 -0.2679
  962YOPC   GL213964  10.065  18.178   5.786  0.0980  0.1670  0.1658
  962YOPC   C1A13965  10.199  18.760   5.983 -0.0732  0.2429  0.3001
  962YOPC   D2A13966  10.195  18.663   6.400  0.1025 -0.0935  0.0683
  962YOPC   C3A13967  10.467  18.295   6.685  0.2082  0.1709 -0.0921
  962YOPC   C4A13968  10.849  18.302   6.835 -0.0387 -0.1906 -0.0557
  962YOPC   C1B13969  10.375  17.932   5.920  0.0486  0.0705  0.2998
  962YOPC   C2B13970  10.653  17.794   6.240 -0.1933 -0.0434 -0.0189
  962YOPC   D3B13971  10.395  17.717   6.608  0.0788 -0.0729  0.1483
  962YOPC   C4B13972  10.193  17.947   6.969  0.0309 -0.0344  0.0522
  963YOPC   NC313973  10.203   8.423   5.683 -0.2871  0.2470 -0.0374
  963YOPC   PO413974  10.189   8.022   5.647  0.3345 -0.3497 -0.2145
  963YOPC   GL113975  10.287   7.698   5.897  0.0888  0.1124  0.0988
  963YOPC   GL213976   9.996   7.636   5.978  0.4313 -0.1499 -0.2277
  963YOPC   C1A13977  10.529   7.529   6.187 -0.0558  0.0988  0.0452
  963YOPC   D2A13978  10.541   7.508   6.636 -0.1230 -0.0691  0.1332
  963YOPC   C3A13979  10.824   7.607   7.037 -0.1753 -0.1651 -0.0182
  963YOPC   C4A13980  10.894   7.324   7.416  0.0860  0.0266  0.0489
  963YOPC   C1B13981   9.681   7.528   6.421 -0.2797  0.1410 -0.1143
  963YOPC   C2B13982   9.371   7.182   6.604  0.3730  0.1320 -0.1622
  963YOPC   D3B13983   9.043   7.089   6.857 -0.2093 -0.3550  0.0133
  963YOPC   C4B13984   8.988   6.956   7.233  0.1938 -0.0055  0.3966
  964YOPC   NC313985  14.107  17.310   5.502 -0.2789 -0.0394  0.0336
  964YOPC   PO413986  13.778  16.985   5.551  0.1609 -0.0796 -0.2963
  964YOPC   GL113987  13.490  16.886   5.866  0.1589 -0.0722 -0.0286
  964YOPC   GL213988  13.180  16.801   5.679 -0.0538  0.0037 -0.0810
  964YOPC   C1A13989  13.493  16.939   6.316 -0.1845  0.3617 -0.1609
  964YOPC   D2A13990  13.368  16.669   6.660  0.0127  0.2707 -0.0892
  964YOPC   C3A13991  13.534  16.829   7.032 -0.2192  0.3972 -0.1660
  964YOPC   C4A13992  13.530  17.248   7.055 -0.0760 -0.0112 -0.2178
  964YOPC   C1B13993  13.055  16.845   6.101 -0.0326 -0.0300 -0.1764
  964YOPC   C2B13994  12.911  16.594   6.468 -0.2859 -0.0262  0.2271
  964YOPC   D3B13995  12.724  16.681   6.732 -0.1042 -0.0269  0.0006
  964YOPC   C4B13996  12.535  17.039   6.788 -0.0491  0.0703  0.0970
  965YOPC   NC313997  16.425   3.281   5.356 -0.0547  0.0301 -0.2017
  965YOPC   PO413998  16.148   3.583   5.257  0.0278  0.0105 -0.0346
  965YOPC   GL113999  15.882   3.741   5.575  0.0954 -0.1125  0.0204
  965YOPC   GL214000  15.606   3.495   5.443  0.0313  0.0946  0.0540
  965YOPC   C1A14001  15.486   3.980   5.875  0.0392 -0.0445 -0.1513
  965YOPC   D2A14002  15.154   3.847   6.106 -0.2505 -0.0923 -0.2618
  965YOPC   C3A14003  14.754   3.538   5.947 -0.2014 -0.0256 -0.2388
  965YOPC   C4A14004  14.587   3.166   5.910 -0.2760  0.1899 -0.0585
  965YOPC   C1B14005  15.380   3.490   5.786 -0.0706  0.1356  0.0130
  965YOPC   C2B14006  15.700   3.556   6.111 -0.1893 -0.1015 -0.0655
  965YOPC   D3B14007  15.719   3.252   6.502 -0.4556 -0.0696 -0.1779
  965YOPC   C4B14008  15.789   2.785   6.633  0.2865  0.0996  0.0916
  966YOPC   NC314009   3.457   8.172   5.599  0.0623 -0.2112  0.0088
  966YOPC   PO414010   3.291   8.503   5.357 -0.0778  0.0493 -0.1949
  966YOPC   GL114011   3.008   8.440   5.735  0.0247  0.1524  0.1747
  966YOPC   GL214012   3.093   8.257   5.994  0.0141 -0.0351 -0.1351
  966YOPC   C1A14013   2.890   8.688   6.115 -0.0175 -0.0854  0.0549
  966YOPC   D2A14014   2.533   8.774   6.292  0.2744  0.0294 -0.3116
  966YOPC   C3A14015   2.456   9.181   6.342  0.4452  0.0216  0.4454
  966YOPC   C4A14016   2.369   9.510   6.601  0.2620 -0.4281 -0.0711
  966YOPC   C1B14017   3.297   8.435   6.255 -0.4901  0.0301  0.0899
  966YOPC   C2B14018   3.202   8.678   6.609  0.0737  0.0636 -0.0726
  966YOPC   D3B14019   3.432   8.648   6.985 -0.0187 -0.1495 -0.3581
  966YOPC   C4B14020   3.540   8.813   7.380 -0.4000 -0.0606  0.2613
  967YOPC   NC314021   8.858  14.808   4.958 -0.2116  0.1011 -0.1600
  967YOPC   PO414022   8.618  14.491   5.166 -0.0148 -0.3518 -0.1054
  967YOPC   GL114023   8.909  14.459   5.496  0.0495  0.0795 -0.1583
  967YOPC   GL214024   8.920  14.202   5.514  0.1251  0.0676  0.1110
  967YOPC   C1A14025   9.128  14.489   5.897  0.2243  0.2155 -0.1440
  967YOPC   D2A14026   9.052  14.669   6.329 -0.0228 -0.0024  0.0922
  967YOPC   C3A14027   8.841  14.647   6.684 -0.1659 -0.1114  0.0051
  967YOPC   C4A14028   8.985  14.745   7.051  0.1948 -0.0159  0.3211
  967YOPC   C1B14029   8.752  14.169   5.886 -0.2491 -0.1756  0.0428
  967YOPC   C2B14030   8.707  14.274   6.294 -0.2742 -0.1381  0.2792
  967YOPC   D3B14031   8.715  14.080   6.734 -0.1245 -0.1709  0.1511
  967YOPC   C4B14032   8.489  13.831   7.029  0.1586 -0.0667 -0.2946
  968YOPC   NC314033   5.115   9.950   5.465 -0.0545 -0.0047 -0.0125
  968YOPC   PO414034   5.376  10.251   5.736  0.0030  0.0851 -0.1750
  968YOPC   GL114035   5.500  10.405   6.169  0.0807  0.1960  0.0773
  968YOPC   GL214036   5.734  10.448   6.132  0.1059  0.1815  0.1538
  968YOPC   C1A14037   5.440  10.495   6.550  0.2178 -0.1048 -0.1298
  968YOPC   D2A14038   5.655  10.447   6.862 -0.0133 -0.0168 -0.0823
  968YOPC   C3A14039   5.421  10.568   7.207  0.0459  0.0135 -0.1424
  968YOPC   C4A14040   5.155  10.485   7.602  0.0388  0.1290  0.2545
  968YOPC   C1B14041   5.861  10.227   6.490 -0.3988 -0.4378 -0.1653
  968YOPC   C2B14042   5.979  10.033   6.882  0.1588  0.1453  0.2664
  968YOPC   D3B14043   5.877  10.167   7.283  0.1643 -0.1665 -0.2016
  968YOPC   C4B14044   5.627  10.285   7.655 -0.1294  0.1617 -0.1468
  969YOPC   NC314045   9.963  16.562   5.205 -0.0926 -0.1438 -0.0865
  969YOPC   PO414046  10.247  16.968   5.148  0.1468 -0.1848 -0.1531
  969YOPC   GL114047  10.364  16.750   5.618  0.0478  0.3110  0.1181
  969YOPC   GL214048  10.065  16.830   5.728  0.3795 -0.2374 -0.0824
  969YOPC   C1A14049  10.521  16.475   5.899  0.1132  0.2365  0.1693
  969YOPC   D2A14050  10.369  16.440   6.252  0.2951 -0.0975 -0.1313
  969YOPC   C3A14051  10.544  16.392   6.719 -0.1165 -0.2560  0.3509
  969YOPC   C4A14052  10.580  16.762   7.100  0.1753  0.1792  0.1166
  969YOPC   C1B14053  10.230  16.919   6.130  0.3931  0.2591 -0.1071
  969YOPC   C2B14054  10.413  16.839   6.512 -0.1519 -0.0257 -0.1230
  969YOPC   D3B14055  10.818  16.874   6.614 -0.1774 -0.0564  0.0596
  969YOPC   C4B14056  11.088  16.909   6.935 -0.0399 -0.0695  0.1327
  970YOPC   NC314057  17.268   0.857   5.545 -0.0102  0.2691 -0.3831
  970YOPC   PO414058  16.849   0.657   5.534  0.1874  0.2008 -0.1504
  970YOPC   GL114059  17.002   0.428   5.947  0.1527 -0.1792 -0.1226
  970YOPC   GL214060  17.062   0.091   5.941 -0.1036  0.2919  0.4334
  970YOPC   C1A14061  16.815   0.197   6.307 -0.1074 -0.2023  0.0445
  970YOPC   D2A14062  16.958  -0.114   6.505  0.0122 -0.1759 -0.1181
  970YOPC   C3A14063  16.781  -0.449   6.635 -0.1834 -0.1478  0.0195
  970YOPC   C4A14064  16.756  -0.732   7.020 -0.3079 -0.0489  0.1062
  970YOPC   C1B14065  17.316   0.189   6.245  0.0765  0.0997 -0.2522
  970YOPC   C2B14066  17.107   0.527   6.401  0.1630  0.0886  0.0196
  970YOPC   D3B14067  17.100   0.429   6.932  0.0714  0.3302 -0.1188
  970YOPC   C4B14068  16.978   0.272   7.308  0.0295 -0.0425  0.0656
  971YOPC   NC314069  18.943   3.907   5.423 -0.2416 -0.1159 -0.0863
  971YOPC   PO414070  19.033   4.342   5.416 -0.0497 -0.1948 -0.1281
  971YOPC   GL114071  19.081   4.528   5.728  0.0452  0.0984  0.0375
  971YOPC   GL214072  19.190   4.288   5.861  0.3535 -0.1987  0.0552
  971YOPC   C1A14073  19.082   4.808   6.124  0.0928  0.3636 -0.3604
  971YOPC   D2A14074  19.215   4.966   6.395 -0.0309  0.1889 -0.0037
  971YOPC   C3A14075  19.265   5.171   6.813  0.2801 -0.2475  0.2108
  971YOPC   C4A14076  19.268   5.226   7.217  0.1735 -0.1615 -0.1724
  971YOPC   C1B14077  19.205   4.273   6.322  0.1028 -0.3090  0.1104
  971YOPC   C2B14078  19.094   4.306   6.712  0.1371 -0.3812 -0.2408
  971YOPC   D3B14079  18.781   4.240   6.957  0.3605 -0.4525  0.2020
  971YOPC   C4B14080  18.571   3.986   7.276  0.1538 -0.1182  0.1030
  972YOPC   NC314081   7.776  10.732   5.887  0.1627 -0.1547 -0.0850
  972YOPC   PO414082   8.089  10.457   5.961  0.0726  0.1328  0.0568
  972YOPC   GL114083   8.301  10.752   6.057 -0.1539  0.1537 -0.1195
  972YOPC   GL214084   8.071  10.851   6.243 -0.0632 -0.1976  0.0491
  972YOPC   C1A14085   8.547  10.919   6.439  0.2110 -0.0544 -0.0257
  972YOPC   D2A14086   8.871  11.059   6.596  0.1670 -0.0935 -0.2229
  972YOPC   C3A14087   8.982  11.131   7.021  0.1437  0.1511 -0.1258
  972YOPC   C4A14088   9.404  11.258   7.186 -0.0860 -0.3635  0.1734
  972YOPC   C1B14089   8.131  10.747   6.677 -0.2527  0.1722 -0.1393
  972YOPC   C2B14090   8.150  10.384   6.902  0.3553  0.1181  0.0493
  972YOPC   D3B14091   8.447  10.520   7.244 -0.1826 -0.3983 -0.2034
  972YOPC   C4B14092   8.645  10.902   7.409  0.1446  0.2726  0.0337
  973YOPC   NC314093   0.471   8.490   5.173  0.1399 -0.2827  0.0038
  973YOPC   PO414094   0.698   8.682   5.476  0.0908 -0.1788  0.3369
  973YOPC   GL114095   0.742   8.938   5.834 -0.1077 -0.2956 -0.0304
  973YOPC   GL214096   0.858   9.313   5.881  0.3532  0.0392  0.1095
  973YOPC   C1A14097   0.680   9.024   6.294 -0.1444 -0.1157  0.0216
  973YOPC   D2A14098   0.805   9.020   6.732  0.3421 -0.0874 -0.2060
  973YOPC   C3A14099   0.929   8.706   7.079  0.0881 -0.1080  0.1322
  973YOPC   C4A14100   0.691   8.520   7.319 -0.1267 -0.1172  0.2312
  973YOPC   C1B14101   0.971   9.396   6.281  0.1444 -0.1171  0.2971
  973YOPC   C2B14102   1.096   9.646   6.688  0.0559  0.2351  0.0109
  973YOPC   D3B14103   1.283   9.705   7.020 -0.2945 -0.0223  0.0326
  973YOPC   C4B14104   1.467   9.696   7.454  0.0555  0.1554  0.1501
  974YOPC   NC314105  13.734   9.746   5.426  0.1243 -0.0275 -0.3101
  974YOPC   PO414106  14.025  10.086   5.409  0.0846 -0.0744 -0.2031
  974YOPC   GL114107  13.986   9.939   5.889 -0.3126 -0.4140 -0.1807
  974YOPC   GL214108  13.964  10.150   6.106  0.0582 -0.1059 -0.1327
  974YOPC   C1A14109  14.008   9.480   6.095  0.1467  0.2685 -0.2437
  974YOPC   D2A14110  14.332   9.272   6.476 -0.0190  0.1317 -0.4595
  974YOPC   C3A14111  14.240   9.198   6.873  0.0463 -0.1841 -0.4770
  974YOPC   C4A14112  14.549   9.077   7.154 -0.2648 -0.1762 -0.1893
  974YOPC   C1B14113  14.093   9.859   6.429  0.2374 -0.0233  0.1830
  974YOPC   C2B14114  13.928   9.535   6.668 -0.3436 -0.3274  0.0315
  974YOPC   D3B14115  14.043   9.586   7.083  0.0846  0.2116 -0.0603
  974YOPC   C4B14116  14.348   9.550   7.260 -0.1133  0.2009 -0.2477
  975YOPC   NC314117   4.480   4.728   5.684 -0.1363  0.1142 -0.0172
  975YOPC   PO414118   4.890   4.737   5.563  0.0629  0.0313 -0.1377
  975YOPC   GL114119   4.990   5.093   5.833 -0.1656 -0.2882 -0.0320
  975YOPC   GL214120   5.312   5.354   5.906 -0.4229  0.0080  0.1569
  975YOPC   C1A14121   4.864   5.566   6.056 -0.1800  0.2196 -0.0628
  975YOPC   D2A14122   5.037   5.651   6.482 -0.0093  0.2383  0.0848
  975YOPC   C3A14123   5.136   5.383   6.705 -0.1393  0.2382 -0.0226
  975YOPC   C4A14124   5.478   5.169   6.581 -0.0006  0.1125 -0.1364
  975YOPC   C1B14125   5.539   5.761   6.167  0.2001 -0.2948  0.0751
  975YOPC   C2B14126   5.475   5.825   6.564 -0.2138  0.0230 -0.0921
  975YOPC   D3B14127   5.616   6.233   6.583  0.0624 -0.2680 -0.2411
  975YOPC   C4B14128   5.378   6.555   6.520  0.1389  0.0017 -0.1146
  976YOPC   NC314129   7.052  11.278   5.835 -0.0041 -0.1723 -0.1314
  976YOPC   PO414130   7.512  11.204   5.803  0.0349  0.0542 -0.0491
  976YOPC   GL114131   7.352  11.292   6.221 -0.4947 -0.1975 -0.0815
  976YOPC   GL214132   7.580  10.973   6.292 -0.0198  0.5043  0.4237
  976YOPC   C1A14133   7.269  11.376   6.579 -0.2992 -0.4870 -0.0958
  976YOPC   D2A14134   6.999  11.644   6.900 -0.2018 -0.4741 -0.0809
  976YOPC   C3A14135   7.022  11.509   7.323  0.0322  0.0465  0.1598
  976YOPC   C4A14136   6.842  11.087   7.539 -0.3130 -0.2171 -0.2164
  976YOPC   C1B14137   7.592  10.899   6.666 -0.1528  0.1146  0.0012
  976YOPC   C2B14138   7.687  10.622   7.049 -0.1185 -0.1040 -0.0071
  976YOPC   D3B14139   7.587  10.817   7.375  0.0766 -0.1038  0.1386
  976YOPC   C4B14140   7.167  10.670   7.495  0.1563  0.3753 -0.2666
  977YOPC   NC314141  14.878   1.676   5.416 -0.0189 -0.1940 -0.0344
  977YOPC   PO414142  15.018   2.065   5.406  0.1586 -0.2532  0.1129
  977YOPC   GL114143  15.224   2.098   5.765  0.0750  0.3182  0.0800
  977YOPC   GL214144  15.512   2.097   5.830 -0.1018  0.1617  0.0137
  977YOPC   C1A14145  15.165   1.867   6.246 -0.1174 -0.1579  0.0623
  977YOPC   D2A14146  15.083   1.678   6.650 -0.0118  0.1167 -0.0692
  977YOPC   C3A14147  15.281   1.582   7.015 -0.1623  0.1776 -0.2765
  977YOPC   C4A14148  15.501   1.698   7.405 -0.1069 -0.0662  0.2679
  977YOPC   C1B14149  15.668   1.765   6.136  0.3223  0.1841  0.0564
  977YOPC   C2B14150  15.577   1.770   6.547  0.2841 -0.1500  0.1475
  977YOPC   D3B14151  15.472   2.104   6.791  0.1349 -0.2651  0.0847
  977YOPC   C4B14152  15.269   2.267   7.215  0.0798 -0.0099  0.0602
  978YOPC   NC314153   3.989  12.777   5.689 -0.2450 -0.2006  0.0514
  978YOPC   PO414154   4.282  13.114   5.800 -0.2051  0.3744  0.2864
  978YOPC   GL114155   4.455  13.177   6.197  0.0643 -0.1480 -0.0166
  978YOPC   GL214156   4.461  12.867   6.326 -0.3643 -0.2004 -0.1883
  978YOPC   C1A14157   4.258  13.270   6.667 -0.2886  0.2167  0.0172
  978YOPC   D2A14158   4.346  13.456   7.060 -0.1940 -0.0410 -0.3443
  978YOPC   C3A14159   4.787  13.556   7.207 -0.3409  0.0084 -0.2071
  978YOPC   C4A14160   4.970  13.900   7.357 -0.1276 -0.2486 -0.0046
  978YOPC   C1B14161   4.280  12.691   6.771 -0.0026  0.2161  0.0730
  978YOPC   C2B14162   3.875  12.544   6.886  0.0154  0.2115  0.1809
  978YOPC   D3B14163   3.514  12.596   6.794  0.2073  0.0883 -0.4067
  978YOPC   C4B14164   3.198  12.768   6.502  0.0510 -0.1707  0.0813
  979YOPC   NC314165   2.206  13.022   4.921  0.0342  0.2218 -0.2944
  979YOPC   PO414166   2.054  13.383   5.179  0.0962  0.3074  0.0341
  979YOPC   GL114167   2.095  13.189   5.590  0.2320  0.2155  0.1178
  979YOPC   GL214168   1.784  13.354   5.680  0.5565  0.1544 -0.2245
  979YOPC   C1A14169   2.333  13.118   6.050  0.1177  0.1686  0.0122
  979YOPC   D2A14170   2.342  13.291   6.500  0.3543  0.0277  0.2124
  979YOPC   C3A14171   2.027  13.227   6.761  0.1278 -0.2642 -0.0808
  979YOPC   C4A14172   1.769  13.293   7.176 -0.2426  0.0655 -0.1144
  979YOPC   C1B14173   1.880  13.714   6.009  0.2800 -0.1141  0.0338
  979YOPC   C2B14174   2.261  13.798   6.106 -0.0672 -0.0188  0.2909
  979YOPC   D3B14175   2.637  13.465   6.073  0.1980 -0.0470  0.1082
  979YOPC   C4B14176   2.932  13.380   6.341 -0.1286  0.1323  0.2872
  980YOPC   NC314177  10.336  13.145   5.474  0.1561 -0.2750  0.0258
  980YOPC   PO414178  10.706  13.223   5.285  0.0472  0.1316 -0.2486
  980YOPC   GL114179  10.656  13.358   5.832  0.1339 -0.1826  0.1709
  980YOPC   GL214180  10.443  13.602   5.856 -0.1557  0.0029 -0.4180
  980YOPC   C1A14181  10.468  13.343   6.285  0.0247 -0.1459 -0.3760
  980YOPC   D2A14182  10.452  13.446   6.643  0.1275  0.3013 -0.2433
  980YOPC   C3A14183  10.552  13.837   6.782 -0.0085  0.1323 -0.0188
  980YOPC   C4A14184  10.269  14.173   6.826 -0.1739 -0.0001 -0.1720
  980YOPC   C1B14185  10.161  13.687   6.295 -0.0193 -0.0722  0.0740
  980YOPC   C2B14186  10.013  13.705   6.738 -0.5152  0.2055 -0.0462
  980YOPC   D3B14187  10.017  13.398   6.935 -0.0543  0.2161 -0.0150
  980YOPC   C4B14188   9.872  13.144   7.310  0.1990  0.0545  0.5481
  981YOPC   NC314189   4.659   2.974   5.421  0.1345  0.1304  0.3437
  981YOPC   PO414190   4.821   2.917   5.827  0.1245  0.3597  0.2828
  981YOPC   GL114191   4.908   3.121   6.169 -0.1059  0.1256 -0.1536
  981YOPC   GL214192   5.126   3.443   6.246 -0.6084 -0.1096 -0.0626
  981YOPC   C1A14193   4.755   3.334   6.580 -0.2582  0.3911 -0.0089
  981YOPC   D2A14194   4.593   3.312   7.035  0.0156  0.2029  0.3537
  981YOPC   C3A14195   4.847   3.461   7.423 -0.2558  0.2271  0.0976
  981YOPC   C4A14196   5.226   3.714   7.546  0.0450 -0.4197  0.1488
  981YOPC   C1B14197   5.248   3.691   6.542 -0.1103  0.2765 -0.3316
  981YOPC   C2B14198   5.138   4.092   6.777 -0.0424 -0.0817 -0.0754
  981YOPC   D3B14199   5.287   4.367   7.140 -0.0985  0.2444  0.0171
  981YOPC   C4B14200   5.489   4.770   7.327  0.1251 -0.1614  0.3264
  982YOPC   NC314201  10.816  12.710   5.383 -0.1889 -0.1705 -0.1586
  982YOPC   PO414202  10.971  12.356   5.445 -0.1292 -0.1609  0.0795
  982YOPC   GL114203  10.907  12.499   5.844 -0.3180  0.0343  0.0508
  982YOPC   GL214204  10.758  12.280   5.950 -0.0154 -0.0636  0.2066
  982YOPC   C1A14205  10.882  12.772   6.212 -0.0573 -0.2436  0.1516
  982YOPC   D2A14206  10.701  12.954   6.577  0.0383  0.0162 -0.1420
  982YOPC   C3A14207  10.750  12.693   6.901  0.2643 -0.4416  0.1250
  982YOPC   C4A14208  10.780  12.292   7.074  0.0514  0.1746 -0.2844
  982YOPC   C1B14209  10.493  12.504   6.280  0.1259 -0.1253 -0.1625
  982YOPC   C2B14210  10.452  12.266   6.727 -0.1935  0.3926 -0.1891
  982YOPC   D3B14211  10.320  11.867   6.778 -0.4860  0.2478  0.0826
  982YOPC   C4B14212  10.179  11.710   6.316 -0.0708 -0.1665 -0.4001
  983YOPC   NC314213   9.103   3.696   5.553  0.0048  0.1585 -0.1320
  983YOPC   PO414214   8.622   3.468   5.605  0.4158  0.0173 -0.1967
  983YOPC   GL114215   8.565   3.024   5.824 -0.2235  0.0366 -0.4439
  983YOPC   GL214216   8.207   2.934   6.035  0.0164  0.2639  0.3627
  983YOPC   C1A14217   8.633   2.928   6.247 -0.1300  0.1479  0.1761
  983YOPC   D2A14218   8.494   2.868   6.684  0.1843 -0.2049  0.3430
  983YOPC   C3A14219   8.250   2.428   6.740 -0.0397  0.0203 -0.1226
  983YOPC   C4A14220   8.268   1.991   6.755 -0.2289  0.2787 -0.1617
  983YOPC   C1B14221   7.917   2.798   6.434 -0.2351 -0.3524  0.1485
  983YOPC   C2B14222   8.017   2.855   6.933  0.2326  0.2906  0.2739
  983YOPC   D3B14223   8.031   2.985   7.425  0.2100  0.4966  0.1408
  983YOPC   C4B14224   7.874   3.426   7.519 -0.1665  0.0177 -0.1426
  984YOPC   NC314225  16.195   5.913   5.002 -0.0535  0.1634  0.1660
  984YOPC   PO414226  16.160   5.770   5.371 -0.3662 -0.0388 -0.1050
  984YOPC   GL114227  16.196   5.965   5.789 -0.3372 -0.0752  0.1361
  984YOPC   GL214228  15.970   6.242   5.922  0.0715  0.0143 -0.0722
  984YOPC   C1A14229  16.288   6.030   6.244 -0.1920  0.2555 -0.2896
  984YOPC   D2A14230  16.414   6.223   6.589 -0.0057  0.2116 -0.2261
  984YOPC   C3A14231  16.451   6.054   7.010 -0.0217  0.1431 -0.2131
  984YOPC   C4A14232  16.726   5.928   7.351  0.2145 -0.1983  0.1350
  984YOPC   C1B14233  15.809   6.329   6.302  0.1790 -0.1015  0.0812
  984YOPC   C2B14234  16.000   6.382   6.772 -0.2999  0.3898  0.0706
  984YOPC   D3B14235  16.175   6.519   7.058 -0.0407  0.1159 -0.2406
  984YOPC   C4B14236  16.047   6.495   7.544 -0.0212 -0.1324 -0.2546
  985YOPC   NC314237  14.051  14.629   5.618 -0.1955  0.1477  0.2470
  985YOPC   PO414238  13.908  15.099   5.599  0.0473  0.1590 -0.2285
  985YOPC   GL114239  13.775  14.791   5.991  0.2405  0.0381  0.0662
  985YOPC   GL214240  13.473  14.785   5.836 -0.3564 -0.2318 -0.0698
  985YOPC   C1A14241  13.586  14.883   6.389 -0.1553 -0.2503  0.4416
  985YOPC   D2A14242  13.629  15.012   6.830 -0.1899  0.0183 -0.1942
  985YOPC   C3A14243  13.204  14.961   7.120 -0.0816 -0.1219  0.0665
  985YOPC   C4A14244  13.117  14.663   7.463 -0.0926  0.2346 -0.2545
  985YOPC   C1B14245  13.163  14.927   6.101 -0.0160 -0.1292 -0.2719
  985YOPC   C2B14246  12.921  14.850   6.408 -0.0379  0.0272  0.1690
  985YOPC   D3B14247  12.819  14.744   6.905  0.1221  0.3000  0.1175
  985YOPC   C4B14248  12.656  14.747   7.315  0.0004  0.0841 -0.0791
  986YOPC   NC314249   5.826  17.396   5.345  0.4148 -0.2064  0.0623
  986YOPC   PO414250   6.026  16.973   5.342 -0.1678 -0.0489  0.0759
  986YOPC   GL114251   6.218  17.030   5.773  0.2359 -0.0315  0.2250
  986YOPC   GL214252   6.002  17.039   6.074 -0.2400  0.1811  0.1641
  986YOPC   C1A14253   6.483  16.789   6.177  0.0323  0.0760  0.0296
  986YOPC   D2A14254   6.860  16.550   6.458  0.1569 -0.1405  0.0583
  986YOPC   C3A14255   6.708  16.193   6.691  0.0189 -0.0303 -0.2029
  986YOPC   C4A14256   6.472  15.855   6.799  0.3423  0.0599  0.0055
  986YOPC   C1B14257   6.151  16.944   6.434  0.3462  0.0956  0.1577
  986YOPC   C2B14258   6.388  16.769   6.696  0.3663  0.1474  0.1834
  986YOPC   D3B14259   6.359  16.750   7.150  0.2244  0.0772  0.1122
  986YOPC   C4B14260   6.459  16.592   7.537 -0.0195  0.0916  0.0420
  987YOPC   NC314261   0.814  10.951   5.235 -0.0127  0.3108 -0.0001
  987YOPC   PO414262   0.763  10.505   5.462 -0.2036 -0.0407  0.4885
  987YOPC   GL114263   0.458  10.581   5.898 -0.0892 -0.0441 -0.1768
  987YOPC   GL214264   0.288  10.822   5.983 -0.1673 -0.0760  0.2281
  987YOPC   C1A14265   0.437  10.673   6.409  0.0025 -0.2725  0.0976
  987YOPC   D2A14266   0.513  10.602   6.669 -0.3284 -0.0096  0.0510
  987YOPC   C3A14267   0.881  10.622   6.844  0.1473 -0.3309 -0.3064
  987YOPC   C4A14268   1.124  10.515   7.165  0.1625  0.0485  0.3126
  987YOPC   C1B14269   0.027  10.941   6.308  0.1169  0.2953  0.2190
  987YOPC   C2B14270   0.249  11.223   6.617  0.1087  0.0426  0.0738
  987YOPC   D3B14271   0.376  11.058   6.896 -0.0851 -0.1868  0.1116
  987YOPC   C4B14272   0.194  10.847   7.272  0.0170  0.3801  0.1035
  988YOPC   NC314273   6.842   9.390   5.046 -0.1167 -0.0909 -0.0929
  988YOPC   PO414274   6.760   9.264   5.445  0.0994  0.0345 -0.0899
  988YOPC   GL114275   6.649   9.191   5.844  0.0758 -0.1919 -0.2455
  988YOPC   GL214276   6.514   8.884   5.753  0.1183  0.0750  0.1646
  988YOPC   C1A14277   6.760   9.220   6.265 -0.0278  0.0386 -0.1450
  988YOPC   D2A14278   6.531   9.242   6.619  0.0253 -0.0309  0.2390
  988YOPC   C3A14279   6.718   9.464   6.912  0.0015 -0.1342  0.1023
  988YOPC   C4A14280   6.757   9.790   7.236  0.4232 -0.1919 -0.1771
  988YOPC   C1B14281   6.429   8.778   6.206 -0.3380  0.0322 -0.1250
  988YOPC   C2B14282   6.202   8.878   6.613 -0.1587  0.1303  0.1602
  988YOPC   D3B14283   6.066   8.685   7.068 -0.1273 -0.2044  0.0418
  988YOPC   C4B14284   6.118   8.586   7.455  0.1442 -0.4923 -0.2537
  989YOPC   NC314285  14.808   5.999   5.496  0.5363  0.1655 -0.3065
  989YOPC   PO414286  14.624   5.634   5.560 -0.0616  0.1512 -0.2650
  989YOPC   GL114287  14.518   5.495   5.955  0.0757 -0.0411 -0.1886
  989YOPC   GL214288  14.544   5.119   6.069  0.2363 -0.3721  0.1204
  989YOPC   C1A14289  14.387   5.492   6.383 -0.0164  0.0972 -0.0092
  989YOPC   D2A14290  14.560   5.417   6.820  0.3418  0.1834  0.0086
  989YOPC   C3A14291  14.532   5.639   7.239  0.1857 -0.2192 -0.0147
  989YOPC   C4A14292  14.726   5.827   7.578 -0.2601  0.2444 -0.3572
  989YOPC   C1B14293  14.685   5.053   6.408  0.1506 -0.0299  0.2679
  989YOPC   C2B14294  14.863   5.059   6.886 -0.2353 -0.4039 -0.1543
  989YOPC   D3B14295  14.644   5.043   7.175 -0.4550  0.2078 -0.0520
  989YOPC   C4B14296  14.622   5.262   7.603 -0.3332  0.1403 -0.1878
  990YOPC   NC314297  13.449   7.216   5.373 -0.0805  0.3184  0.5963
  990YOPC   PO414298  13.127   7.290   5.210 -0.0442  0.0556  0.0973
  990YOPC   GL114299  12.988   7.568   5.537 -0.3367  0.2081 -0.2072
  990YOPC   GL214300  13.054   7.418   5.820  0.2548 -0.3746  0.2380
  990YOPC   C1A14301  12.652   7.714   5.808  0.0119 -0.3084 -0.1063
  990YOPC   D2A14302  12.228   7.623   6.124  0.0841 -0.0730 -0.2483
  990YOPC   C3A14303  12.220   7.506   6.530  0.2627  0.0292 -0.1706
  990YOPC   C4A14304  12.316   7.568   6.938  0.1809 -0.3225  0.2329
  990YOPC   C1B14305  13.373   7.279   6.080 -0.0557  0.1242  0.1851
  990YOPC   C2B14306  13.937   7.252   6.166  0.3214  0.2939 -0.0779
  990YOPC   D3B14307  14.012   7.119   6.528  0.0368 -0.2467 -0.0249
  990YOPC   C4B14308  14.031   7.015   6.948  0.0700 -0.0121  0.1167
  991YOPC   NC314309   3.971   3.320   5.489  0.0642  0.0462 -0.1390
  991YOPC   PO414310   4.165   2.962   5.347 -0.1948 -0.0306 -0.0375
  991YOPC   GL114311   4.188   2.925   5.820 -0.1175 -0.1659  0.1557
  991YOPC   GL214312   4.429   2.933   6.099  0.0243 -0.0242 -0.4357
  991YOPC   C1A14313   3.923   2.684   6.067  0.0896 -0.4417 -0.3908
  991YOPC   D2A14314   3.726   2.520   6.516  0.0823  0.2796 -0.0829
  991YOPC   C3A14315   3.442   2.596   6.914 -0.1564 -0.0686 -0.1732
  991YOPC   C4A14316   3.312   2.888   7.090  0.3016 -0.1532 -0.2494
  991YOPC   C1B14317   4.147   3.322   6.230  0.1376 -0.0958 -0.0732
  991YOPC   C2B14318   3.775   3.535   6.312 -0.2406 -0.1350 -0.1597
  991YOPC   D3B14319   3.866   3.604   6.787 -0.2721  0.0322 -0.0651
  991YOPC   C4B14320   4.036   3.337   7.011  0.0831  0.0223 -0.0669
  992YOPC   NC314321   7.230  16.278   5.393 -0.4444 -0.1668  0.2720
  992YOPC   PO414322   7.697  16.377   5.340  0.0079  0.1079  0.2164
  992YOPC   GL114323   7.904  16.130   5.673  0.1061 -0.0713  0.0518
  992YOPC   GL214324   8.084  16.162   5.912  0.1107 -0.1400 -0.2766
  992YOPC   C1A14325   7.740  15.753   5.921 -0.0726 -0.1145  0.0533
  992YOPC   D2A14326   7.432  15.726   6.239 -0.1897  0.1156 -0.1402
  992YOPC   C3A14327   7.464  15.844   6.586  0.1605 -0.0164  0.0249
  992YOPC   C4A14328   7.615  15.968   7.001 -0.0945  0.1169 -0.2053
  992YOPC   C1B14329   7.961  15.862   6.341  0.0185 -0.1413  0.0205
  992YOPC   C2B14330   7.924  15.625   6.688  0.0512  0.1506 -0.1182
  992YOPC   D3B14331   8.406  15.654   6.980 -0.3372  0.0489 -0.1635
  992YOPC   C4B14332   8.767  15.700   7.134  0.0721 -0.1590 -0.0258
  993YOPC   NC314333  13.500   4.844   5.079  0.1469 -0.1490  0.0301
  993YOPC   PO414334  13.381   5.056   5.457  0.0649  0.1917 -0.0478
  993YOPC   GL114335  13.280   4.908   5.912 -0.0480  0.2045 -0.1282
  993YOPC   GL214336  13.153   4.547   5.734 -0.4285 -0.2866  0.1222
  993YOPC   C1A14337  13.362   4.696   6.243  0.2338 -0.0567 -0.0737
  993YOPC   D2A14338  13.536   4.794   6.641 -0.1208 -0.1996  0.6062
  993YOPC   C3A14339  13.710   4.859   7.046  0.1946  0.0601 -0.0842
  993YOPC   C4A14340  13.636   4.935   7.399  0.0394  0.0039 -0.0167
  993YOPC   C1B14341  12.950   4.187   5.988 -0.3452 -0.1173  0.1931
  993YOPC   C2B14342  12.553   4.122   6.326  0.2075 -0.2235  0.0916
  993YOPC   D3B14343  12.450   4.354   6.620 -0.2905 -0.1239 -0.1160
  993YOPC   C4B14344  12.629   4.198   6.967  0.1349  0.0835 -0.2595
  994YOPC   NC314345  13.337   1.039   5.114  0.1026  0.0735 -0.1379
  994YOPC   PO414346  13.639   1.239   5.442  0.1571 -0.0620  0.4113
  994YOPC   GL114347  13.760   1.299   5.857  0.0549 -0.3433  0.0560
  994YOPC   GL214348  13.987   1.566   5.944 -0.2047 -0.0974  0.2212
  994YOPC   C1A14349  13.636   1.276   6.279 -0.0883 -0.1407 -0.1222
  994YOPC   D2A14350  13.880   1.129   6.514 -0.0303 -0.0808  0.2134
  994YOPC   C3A14351  14.068   1.310   6.749 -0.1276 -0.2231  0.1752
  994YOPC   C4A14352  14.000   1.357   7.231 -0.1511  0.0636 -0.0406
  994YOPC   C1B14353  14.252   1.283   6.129  0.0450 -0.1342 -0.1761
  994YOPC   C2B14354  14.402   1.109   6.410 -0.0659 -0.1187 -0.2481
  994YOPC   D3B14355  14.569   0.816   6.708 -0.1921  0.0686  0.1468
  994YOPC   C4B14356  14.804   0.777   7.174  0.1132 -0.2163  0.1609
  995YOPC   NC314357   7.137   5.597   5.268  0.1974  0.1227  0.1673
  995YOPC   PO414358   7.040   5.214   5.565 -0.1879 -0.2387  0.2911
  995YOPC   GL114359   6.800   5.287   5.954  0.2223  0.0849  0.1942
  995YOPC   GL214360   6.576   5.211   5.789 -0.1044  0.1514  0.4191
  995YOPC   C1A14361   6.717   5.135   6.425  0.0522 -0.0178  0.3019
  995YOPC   D2A14362   6.664   4.933   6.802 -0.1711 -0.1372 -0.1084
  995YOPC   C3A14363   6.697   4.718   7.155 -0.2794 -0.1062 -0.1496
  995YOPC   C4A14364   6.809   4.483   7.567  0.2601 -0.0001 -0.1747
  995YOPC   C1B14365   6.316   5.133   6.162  0.0170  0.1786 -0.3856
  995YOPC   C2B14366   6.149   5.058   6.579 -0.0522 -0.2339  0.0966
  995YOPC   D3B14367   6.353   5.283   6.932 -0.0572  0.2795 -0.0850
  995YOPC   C4B14368   6.603   5.173   7.384 -0.2239 -0.0396 -0.4613
  996YOPC   NC314369   6.950   0.567   5.242  0.0271  0.2148  0.2564
  996YOPC   PO414370   6.888   0.886   5.569 -0.1860  0.1262 -0.0296
  996YOPC   GL114371   6.646   0.782   5.820 -0.0803  0.1583 -0.4457
  996YOPC   GL214372   6.736   0.668   6.203  0.0275 -0.0817  0.1134
  996YOPC   C1A14373   6.294   0.571   5.939 -0.0153  0.0224 -0.0783
  996YOPC   D2A14374   5.881   0.593   6.036  0.3854 -0.1022  0.1800
  996YOPC   C3A14375   5.719   0.942   6.146 -0.1547  0.1084  0.0048
  996YOPC   C4A14376   5.369   1.106   6.440 -0.0013 -0.1206  0.1839
  996YOPC   C1B14377   7.106   0.542   6.340  0.1882  0.0343  0.1804
  996YOPC   C2B14378   7.443   0.597   6.670 -0.1202 -0.2909  0.2446
  996YOPC   D3B14379   7.348   0.970   7.005  0.1041 -0.2508 -0.1392
  996YOPC   C4B14380   7.556   1.375   7.158  0.0822  0.1962 -0.0620
  997YOPC   NC314381   4.871   0.225   5.515 -0.0677 -0.2569 -0.3002
  997YOPC   PO414382   5.239  -0.137   5.527 -0.1282  0.0871  0.0956
  997YOPC   GL114383   5.229  -0.155   5.894 -0.1031  0.1148  0.0372
  997YOPC   GL214384   5.387  -0.327   5.991 -0.0369  0.1233 -0.0215
  997YOPC   C1A14385   5.173   0.220   6.103  0.5106  0.1009  0.0906
  997YOPC   D2A14386   4.962   0.331   6.541  0.0272 -0.2353  0.0584
  997YOPC   C3A14387   5.078   0.816   6.707  0.2063 -0.0291  0.0192
  997YOPC   C4A14388   5.277   1.137   6.994  0.2493 -0.3844  0.0598
  997YOPC   C1B14389   5.519  -0.443   6.339 -0.0795  0.0693 -0.0699
  997YOPC   C2B14390   5.438  -0.406   6.786 -0.4590 -0.0293 -0.0573
  997YOPC   D3B14391   5.790  -0.316   6.979  0.0486 -0.0280  0.1631
  997YOPC   C4B14392   5.970  -0.593   7.099  0.0157 -0.0775 -0.0045
  998YOPC   NC314393  14.981   2.854   5.117  0.0232  0.0301  0.1091
  998YOPC   PO414394  15.147   3.246   5.180 -0.0395 -0.1310  0.2644
  998YOPC   GL114395  15.398   3.062   5.505  0.1418 -0.1299 -0.0464
  998YOPC   GL214396  15.597   2.677   5.584  0.2435 -0.2275 -0.1447
  998YOPC   C1A14397  15.250   3.055   5.879 -0.2177  0.1599  0.3648
  998YOPC   D2A14398  14.957   2.841   6.032 -0.1096 -0.2825  0.2230
  998YOPC   C3A14399  14.882   2.745   6.405  0.2755 -0.1318  0.2283
  998YOPC   C4A14400  14.806   2.555   6.865  0.1692 -0.0278 -0.0830
  998YOPC   C1B14401  15.840   2.417   5.885 -0.2644 -0.1170  0.2262
  998YOPC   C2B14402  16.113   2.038   5.996  0.0370  0.2001  0.1997
  998YOPC   D3B14403  16.522   1.889   5.888 -0.0714  0.1197 -0.1064
  998YOPC   C4B14404  16.888   1.935   6.030  0.1209  0.0361 -0.2345
  999YOPC   NC314405   3.087   3.185   5.611 -0.1334 -0.0864  0.2106
  999YOPC   PO414406   3.049   2.862   5.880 -0.4291 -0.2781 -0.0100
  999YOPC   GL114407   3.155   2.702   6.224 -0.0005 -0.0557  0.0561
  999YOPC   GL214408   3.233   2.418   6.362  0.0165  0.0510  0.0881
  999YOPC   C1A14409   3.119   2.912   6.625  0.1191 -0.0583 -0.3053
  999YOPC   D2A14410   2.974   3.230   6.936  0.0800 -0.2802  0.2007
  999YOPC   C3A14411   2.946   3.634   6.846  0.1411 -0.1170  0.1838
  999YOPC   C4A14412   3.060   3.792   6.429  0.1448 -0.0880  0.0410
  999YOPC   C1B14413   3.549   2.029   6.622 -0.3208 -0.0238 -0.2473
  999YOPC   C2B14414   3.738   1.743   6.306 -0.1509  0.1508 -0.1370
  999YOPC   D3B14415   4.160   1.583   6.256 -0.1920 -0.0011 -0.2179
  999YOPC   C4B14416   4.368   1.214   6.251  0.0734  0.2630 -0.2065
 1000YOPC   NC314417   2.564   6.502   5.690  0.0196  0.0542  0.1829
 1000YOPC   PO414418   2.527   6.823   5.596  0.0863 -0.1218 -0.0531
 1000YOPC   GL114419   2.441   6.853   5.976 -0.2197 -0.1230 -0.0494
 1000YOPC   GL214420   2.652   7.060   6.149  0.1862  0.2826 -0.0665
 1000YOPC   C1A14421   2.108   6.874   6.242 -0.1922 -0.0209 -0.1247
 1000YOPC   D2A14422   1.864   6.722   6.561  0.2995 -0.2395 -0.0234
 1000YOPC   C3A14423   1.585   6.610   7.050 -0.0721  0.3020 -0.1498
 1000YOPC   C4A14424   1.472   6.228   7.065 -0.0384 -0.3976 -0.0320
 1000YOPC   C1B14425   2.550   6.961   6.583 -0.2546 -0.1291 -0.2827
 1000YOPC   C2B14426   2.142   7.269   6.698 -0.2095  0.0624  0.1630
 1000YOPC   D3B14427   2.071   7.281   7.136  0.1755  0.2014 -0.0537
 1000YOPC   C4B14428   2.194   7.231   7.578  0.1561  0.0849  0.4034
 1001YOPC   NC314429   8.151   1.343   5.332  0.3520 -0.0266  0.0328
 1001YOPC   PO414430   8.005   1.715   5.580 -0.0941  0.1744 -0.0502
 1001YOPC   GL114431   7.985   1.370   5.893 -0.0602 -0.3590  0.2249
 1001YOPC   GL214432   8.331   1.282   5.910 -0.1246  0.2892 -0.4102
 1001YOPC   C1A14433   7.963   0.955   6.072  0.0092 -0.2779 -0.0883
 1001YOPC   D2A14434   7.707   0.701   6.278 -0.0683  0.2885 -0.1147
 1001YOPC   C3A14435   7.921   0.445   6.560 -0.1406  0.1581  0.2506
 1001YOPC   C4A14436   8.332   0.479   6.777 -0.4687 -0.1438  0.0832
 1001YOPC   C1B14437   8.460   1.564   6.126 -0.1141 -0.0693  0.1632
 1001YOPC   C2B14438   8.791   1.848   6.335  0.1321  0.1121 -0.0025
 1001YOPC   D3B14439   8.944   1.794   6.779 -0.2087  0.2460  0.1020
 1001YOPC   C4B14440   8.958   2.042   7.039  0.2538 -0.1722 -0.0608
 1002YOPC   NC314441  12.535  17.441   5.136  0.1415 -0.2878 -0.0652
 1002YOPC   PO414442  12.790  17.314   5.416 -0.2497  0.2457  0.0663
 1002YOPC   GL114443  12.748  17.071   5.727 -0.0860 -0.0500  0.0206
 1002YOPC   GL214444  12.416  16.900   5.802 -0.0892  0.1124 -0.1264
 1002YOPC   C1A14445  12.588  17.182   6.180  0.2237  0.2940 -0.1813
 1002YOPC   D2A14446  12.447  17.467   6.459  0.1898 -0.0443  0.1884
 1002YOPC   C3A14447  12.399  17.507   6.868 -0.0836  0.0144  0.0843
 1002YOPC   C4A14448  12.368  17.662   7.320 -0.0116 -0.0081 -0.1615
 1002YOPC   C1B14449  12.123  16.551   5.918 -0.0519  0.1615 -0.0838
 1002YOPC   C2B14450  12.365  16.170   6.065  0.3507  0.2054  0.0537
 1002YOPC   D3B14451  12.008  15.965   6.250 -0.1641  0.1307  0.1498
 1002YOPC   C4B14452  11.578  15.811   6.285  0.1409  0.3552  0.0963
 1003YOPC   NC314453  18.333   3.003   5.808  0.1048 -0.0676 -0.1880
 1003YOPC   PO414454  18.744   3.141   5.852  0.0737 -0.1214  0.1825
 1003YOPC   GL114455  18.705   2.915   6.145 -0.0151  0.0222  0.1127
 1003YOPC   GL214456  18.704   2.560   6.192 -0.0450  0.0206  0.4435
 1003YOPC   C1A14457  18.638   2.782   6.603 -0.2704 -0.1308  0.5372
 1003YOPC   D2A14458  18.530   2.454   6.931  0.0739  0.0090 -0.3194
 1003YOPC   C3A14459  18.572   2.509   7.365 -0.0227  0.0519 -0.0106
 1003YOPC   C4A14460  18.343   2.547   7.764 -0.3204  0.0856 -0.1248
 1003YOPC   C1B14461  18.450   2.305   6.482 -0.0878 -0.1337  0.0556
 1003YOPC   C2B14462  18.429   1.990   6.813  0.2314  0.2000 -0.1518
 1003YOPC   D3B14463  18.364   2.051   7.223  0.1193 -0.4879 -0.0336
 1003YOPC   C4B14464  18.282   1.808   7.450 -0.0511 -0.1204 -0.0342
 1004YOPC   NC314465  11.898   2.972   4.685 -0.1488 -0.0394  0.1512
 1004YOPC   PO414466  11.548   3.269   4.667 -0.1167 -0.1286 -0.0975
 1004YOPC   GL114467  11.295   3.431   5.030 -0.3037  0.0189  0.0600
 1004YOPC   GL214468  11.090   3.165   5.066 -0.0585  0.4310  0.2380
 1004YOPC   C1A14469  11.453   3.680   5.410  0.0776 -0.1319  0.2250
 1004YOPC   D2A14470  11.240   4.063   5.732  0.0551  0.0061 -0.1442
 1004YOPC   C3A14471  11.078   3.952   6.136  0.2016 -0.3913  0.1875
 1004YOPC   C4A14472  10.774   3.619   6.275  0.0677  0.0448  0.1210
 1004YOPC   C1B14473  11.445   3.168   5.442 -0.0599 -0.1046  0.1448
 1004YOPC   C2B14474  11.629   2.997   5.693  0.1438 -0.1126  0.0233
 1004YOPC   D3B14475  11.990   3.342   5.730  0.2828  0.0424 -0.0089
 1004YOPC   C4B14476  12.453   3.276   5.787 -0.0910  0.1918 -0.1573
 1005YOPC   NC314477   9.383   3.613   5.173 -0.1711  0.0655 -0.2289
 1005YOPC   PO414478   9.146   3.210   4.993 -0.4429  0.1525 -0.2263
 1005YOPC   GL114479   9.197   3.183   5.429 -0.3414  0.1391 -0.0796
 1005YOPC   GL214480   9.117   2.907   5.570  0.2714  0.0595 -0.0518
 1005YOPC   C1A14481   9.497   3.136   5.835 -0.1399  0.0833  0.1177
 1005YOPC   D2A14482   9.860   3.380   6.082 -0.3292 -0.1539  0.0132
 1005YOPC   C3A14483   9.836   3.386   6.488 -0.0852  0.1721 -0.1735
 1005YOPC   C4A14484   9.827   3.464   7.000  0.3218 -0.2079 -0.1157
 1005YOPC   C1B14485   9.058   2.923   5.972  0.0334  0.0726 -0.0376
 1005YOPC   C2B14486   9.067   2.823   6.488  0.1741  0.0449  0.1461
 1005YOPC   D3B14487   9.511   2.669   6.611 -0.0401  0.1507  0.0581
 1005YOPC   C4B14488   9.776   2.596   6.910  0.1108  0.0758 -0.2849
 1006YOPC   NC314489  10.201  12.261   5.128 -0.2105 -0.2670  0.0544
 1006YOPC   PO414490  10.345  12.694   5.273 -0.2626 -0.0929  0.3166
 1006YOPC   GL114491  10.339  12.710   5.764  0.2229 -0.0240 -0.0218
 1006YOPC   GL214492  10.519  12.891   5.827  0.0489  0.1324 -0.0379
 1006YOPC   C1A14493  10.064  12.472   5.991 -0.3481  0.0740  0.0910
 1006YOPC   D2A14494  10.032  12.202   6.454  0.2687 -0.3046 -0.1864
 1006YOPC   C3A14495   9.843  11.951   6.659 -0.1775  0.0754  0.1104
 1006YOPC   C4A14496   9.639  11.501   6.830  0.1764 -0.1552  0.0478
 1006YOPC   C1B14497  10.263  12.955   6.168  0.1047 -0.0251 -0.1720
 1006YOPC   C2B14498   9.912  13.238   6.383  0.1135 -0.2526  0.0716
 1006YOPC   D3B14499   9.670  13.665   6.286 -0.0855  0.1453  0.1285
 1006YOPC   C4B14500   9.687  13.841   5.929  0.1410  0.0722  0.1369
 1007YOPC   NC314501  11.286   0.586   5.146 -0.1428  0.3570  0.1667
 1007YOPC   PO414502  10.947   0.368   5.273 -0.1270  0.1651  0.1790
 1007YOPC   GL114503  11.225   0.392   5.594  0.2660 -0.1302 -0.1933
 1007YOPC   GL214504  11.070   0.514   5.806  0.1193  0.0588 -0.2257
 1007YOPC   C1A14505  11.414   0.090   5.953  0.0384 -0.1498 -0.1242
 1007YOPC   D2A14506  11.812   0.059   6.172 -0.0169 -0.0875  0.2276
 1007YOPC   C3A14507  11.914  -0.319   6.252 -0.1170 -0.0933  0.1646
 1007YOPC   C4A14508  12.144  -0.606   6.548  0.0516  0.2586 -0.4482
 1007YOPC   C1B14509  11.048   0.939   6.010  0.2157  0.2810  0.2375
 1007YOPC   C2B14510  11.275   1.120   6.356 -0.0124  0.1969  0.2431
 1007YOPC   D3B14511  11.073   0.943   6.750 -0.2108  0.1292  0.1638
 1007YOPC   C4B14512  11.057   0.942   7.142 -0.3907  0.4241  0.0163
 1008YOPC   NC314513  12.357  14.697   4.856  0.0733 -0.0532  0.1694
 1008YOPC   PO414514  12.227  14.286   5.212  0.0388  0.0665  0.0366
 1008YOPC   GL114515  12.408  14.513   5.651  0.4166 -0.1839 -0.0512
 1008YOPC   GL214516  12.390  14.305   5.854  0.0025  0.0510 -0.0403
 1008YOPC   C1A14517  12.664  14.681   6.008 -0.2409  0.1207 -0.0063
 1008YOPC   D2A14518  12.752  14.343   6.420 -0.0075  0.0697 -0.1442
 1008YOPC   C3A14519  13.012  14.273   6.718  0.4056 -0.3718 -0.2516
 1008YOPC   C4A14520  12.925  14.298   7.149 -0.2005 -0.1466 -0.1891
 1008YOPC   C1B14521  12.276  14.238   6.271 -0.3018  0.0832 -0.3415
 1008YOPC   C2B14522  11.973  14.105   6.383  0.0353 -0.0183  0.2628
 1008YOPC   D3B14523  11.851  14.181   6.812 -0.1397  0.4296 -0.1419
 1008YOPC   C4B14524  11.980  14.029   7.125  0.1858 -0.0033  0.1100
 1009YOPC   NC314525   0.083   7.077   5.556 -0.2979  0.1782  0.1865
 1009YOPC   PO414526   0.104   7.334   5.660 -0.0200  0.0731  0.0187
 1009YOPC   GL114527   0.182   7.609   6.089  0.1407  0.2205 -0.1616
 1009YOPC   GL214528   0.421   7.866   6.088  0.1115  0.1309  0.4877
 1009YOPC   C1A14529  -0.040   7.622   6.465 -0.1330  0.2329  0.3244
 1009YOPC   D2A14530  -0.030   7.300   6.754 -0.3438  0.1288 -0.2322
 1009YOPC   C3A14531   0.198   6.877   6.812 -0.0966 -0.0598  0.0994
 1009YOPC   C4A14532  -0.062   6.535   6.859 -0.4291 -0.0745 -0.0471
 1009YOPC   C1B14533   0.854   7.801   6.287  0.1784  0.1441  0.0450
 1009YOPC   C2B14534   0.989   7.887   6.681 -0.1063 -0.0051 -0.1217
 1009YOPC   D3B14535   0.997   8.130   7.018  0.4336 -0.1163 -0.2187
 1009YOPC   C4B14536   1.452   8.165   7.294 -0.2747  0.0382  0.2126
 1010YOPC   NC314537  15.461  17.582   5.554  0.0152 -0.3697  0.0134
 1010YOPC   PO414538  15.500  17.207   5.357  0.2194  0.3007 -0.0186
 1010YOPC   GL114539  15.593  17.187   5.795  0.0444  0.2422  0.2533
 1010YOPC   GL214540  15.812  17.382   5.895  0.1081 -0.2244  0.1423
 1010YOPC   C1A14541  15.324  17.047   6.086 -0.2587 -0.5267 -0.2032
 1010YOPC   D2A14542  15.071  16.769   6.270 -0.1124  0.1578  0.1047
 1010YOPC   C3A14543  15.175  16.663   6.697 -0.0830 -0.1603  0.1607
 1010YOPC   C4A14544  15.210  16.869   7.110  0.0606  0.2919 -0.1466
 1010YOPC   C1B14545  15.811  17.362   6.377  0.2162  0.1556  0.1653
 1010YOPC   C2B14546  16.059  17.082   6.662  0.2724  0.1377 -0.1917
 1010YOPC   D3B14547  15.835  16.986   7.010 -0.4433  0.1267 -0.1554
 1010YOPC   C4B14548  15.626  16.772   7.415 -0.3024 -0.1409  0.3121
 1011YOPC   NC314549   1.591   6.513   5.489  0.2960 -0.1483  0.1436
 1011YOPC   PO414550   1.257   6.578   5.200 -0.1375  0.2337 -0.2305
 1011YOPC   GL114551   0.999   6.795   5.580 -0.2128 -0.0975  0.2700
 1011YOPC   GL214552   0.932   6.709   6.033  0.0114  0.2562  0.2291
 1011YOPC   C1A14553   1.140   7.162   5.923 -0.1033  0.1280  0.3645
 1011YOPC   D2A14554   1.311   7.511   6.022 -0.1211 -0.2431  0.0472
 1011YOPC   C3A14555   1.395   7.730   6.388 -0.2156 -0.0697 -0.1313
 1011YOPC   C4A14556   1.425   7.967   6.791  0.0648  0.0876 -0.0553
 1011YOPC   C1B14557   0.842   6.773   6.460 -0.1094 -0.0863 -0.0200
 1011YOPC   C2B14558   0.698   6.945   6.798 -0.1954 -0.2782 -0.4287
 1011YOPC   D3B14559   0.432   7.255   6.947  0.2536  0.0509 -0.0704
 1011YOPC   C4B14560   0.300   7.479   7.231  0.0043  0.2759 -0.0170
 1012YOPC   NC314561  10.868   8.339   4.983 -0.0762 -0.4437  0.1526
 1012YOPC   PO414562  11.065   8.497   5.359  0.0182  0.0813 -0.0585
 1012YOPC   GL114563  10.981   8.473   5.755  0.0850  0.1034 -0.2007
 1012YOPC   GL214564  11.036   8.167   5.928  0.1985 -0.4308  0.0742
 1012YOPC   C1A14565  11.031   8.799   6.073  0.3676  0.0031 -0.3035
 1012YOPC   D2A14566  10.701   9.054   6.175 -0.1310  0.1176  0.2471
 1012YOPC   C3A14567  10.876   9.519   6.323 -0.1599 -0.0704  0.2401
 1012YOPC   C4A14568  11.362   9.563   6.510  0.0154 -0.0786 -0.2361
 1012YOPC   C1B14569  10.895   7.961   6.284  0.1828  0.0002 -0.3893
 1012YOPC   C2B14570  10.958   7.959   6.685 -0.0881 -0.0830 -0.2104
 1012YOPC   D3B14571  11.378   7.836   6.716  0.2611 -0.1002 -0.1019
 1012YOPC   C4B14572  11.721   7.778   6.752  0.1124  0.0501 -0.1697
 1013YOPC   NC314573   9.060   9.955   5.676 -0.3220  0.1820  0.2059
 1013YOPC   PO414574   8.606   9.880   5.454 -0.0057  0.0676  0.0530
 1013YOPC   GL114575   8.524   9.784   5.947  0.2839 -0.2432  0.1388
 1013YOPC   GL214576   8.801   9.628   5.914 -0.0958  0.1532 -0.2778
 1013YOPC   C1A14577   8.653   9.926   6.357  0.1787 -0.0887 -0.0294
 1013YOPC   D2A14578   8.748  10.364   6.572 -0.1286  0.4028 -0.1078
 1013YOPC   C3A14579   9.115  10.643   6.377 -0.2310 -0.1194 -0.1918
 1013YOPC   C4A14580   9.242  10.935   6.075 -0.1194  0.0193  0.0628
 1013YOPC   C1B14581   9.024   9.589   6.290 -0.0444  0.2766 -0.3179
 1013YOPC   C2B14582   8.996   9.710   6.592  0.2311  0.2845 -0.4057
 1013YOPC   D3B14583   8.771   9.893   6.857 -0.1002 -0.1889 -0.1507
 1013YOPC   C4B14584   8.730  10.044   7.299 -0.0663  0.0442  0.0910
 1014YOPC   NC314585   4.660  17.123   5.432 -0.1856 -0.0488 -0.1323
 1014YOPC   PO414586   4.450  16.770   5.485 -0.1852  0.2106 -0.1949
 1014YOPC   GL114587   4.705  16.549   5.795  0.0382 -0.0936 -0.1721
 1014YOPC   GL214588   4.766  16.175   5.759 -0.0008 -0.4002 -0.2432
 1014YOPC   C1A14589   4.732  16.577   6.186 -0.1479  0.0277 -0.0328
 1014YOPC   D2A14590   4.778  16.717   6.571 -0.1139  0.2955  0.1795
 1014YOPC   C3A14591   4.995  16.540   6.991 -0.0304 -0.1730  0.2611
 1014YOPC   C4A14592   5.004  16.250   7.263 -0.0139  0.0899 -0.1944
 1014YOPC   C1B14593   4.936  16.161   6.165  0.1815 -0.1996  0.1786
 1014YOPC   C2B14594   5.114  16.202   6.639 -0.2579  0.3187 -0.0382
 1014YOPC   D3B14595   4.773  16.089   6.882 -0.1183 -0.3057 -0.4265
 1014YOPC   C4B14596   4.473  16.112   7.220  0.1555 -0.2537 -0.1748
 1015YOPC   NC314597   7.800  12.639   5.106 -0.1038 -0.1471 -0.0248
 1015YOPC   PO414598   7.803  12.859   5.512  0.3187 -0.1184  0.0154
 1015YOPC   GL114599   7.880  12.892   5.908 -0.2912  0.3128  0.0881
 1015YOPC   GL214600   7.850  13.120   5.989 -0.5789  0.1704  0.2438
 1015YOPC   C1A14601   7.806  12.541   6.263  0.2136  0.2946 -0.1324
 1015YOPC   D2A14602   7.779  12.237   6.579  0.0643 -0.0366  0.0129
 1015YOPC   C3A14603   7.679  12.548   6.895 -0.0829  0.2585  0.2305
 1015YOPC   C4A14604   7.782  12.810   6.972 -0.0650 -0.0732 -0.2721
 1015YOPC   C1B14605   7.780  13.005   6.455 -0.0690 -0.0217 -0.0535
 1015YOPC   C2B14606   7.642  13.233   6.841  0.2438  0.0933 -0.1517
 1015YOPC   D3B14607   7.952  13.227   7.308  0.0523 -0.0706  0.0114
 1015YOPC   C4B14608   8.057  13.074   7.711  0.1712 -0.0194  0.1199
 1016YOPC   NC314609  10.651   0.460   4.855 -0.0336 -0.0075 -0.0382
 1016YOPC   PO414610  10.485   0.192   5.202 -0.2111  0.3547 -0.0421
 1016YOPC   GL114611  10.445   0.274   5.671 -0.1311  0.1705  0.4638
 1016YOPC   GL214612  10.060   0.318   5.878  0.0813 -0.3722 -0.2046
 1016YOPC   C1A14613  10.532   0.082   6.134 -0.3451 -0.0073 -0.1177
 1016YOPC   D2A14614  10.580   0.102   6.560  0.2282 -0.4085 -0.0768
 1016YOPC   C3A14615  10.567  -0.194   6.902 -0.0503 -0.0813 -0.0145
 1016YOPC   C4A14616  10.445  -0.339   7.286 -0.1594 -0.2160  0.0470
 1016YOPC   C1B14617  10.176   0.381   6.271 -0.2068  0.0712 -0.0036
 1016YOPC   C2B14618  10.316   0.505   6.618  0.3327 -0.0702 -0.1262
 1016YOPC   D3B14619  10.106   0.764   6.995 -0.2863  0.2418 -0.2527
 1016YOPC   C4B14620  10.172   0.660   7.444 -0.0686  0.0399  0.1177
 1017YOPC   NC314621   9.384   1.958   5.278 -0.1840 -0.1349 -0.0975
 1017YOPC   PO414622   9.570   1.501   5.413  0.1771  0.1543  0.1310
 1017YOPC   GL114623   9.671   1.289   5.696 -0.1920 -0.0472  0.0805
 1017YOPC   GL214624   9.938   1.353   5.803  0.1141 -0.0483 -0.2980
 1017YOPC   C1A14625   9.504   1.132   6.019  0.2430 -0.0212  0.2256
 1017YOPC   D2A14626   9.203   0.974   6.144  0.1830 -0.1203  0.0956
 1017YOPC   C3A14627   9.091   0.664   6.193 -0.3101 -0.0287 -0.0823
 1017YOPC   C4A14628   8.795   0.440   6.117  0.1731 -0.2716 -0.0089
 1017YOPC   C1B14629  10.132   1.380   6.151 -0.2269  0.0701  0.0228
 1017YOPC   C2B14630  10.226   1.687   6.540 -0.1807 -0.0978  0.1118
 1017YOPC   D3B14631  10.529   1.747   6.876 -0.2010 -0.4587  0.1689
 1017YOPC   C4B14632  10.600   1.924   7.342 -0.0353 -0.0959 -0.0237
 1018YOPC   NC314633   3.797  11.313   5.444  0.1306 -0.0802 -0.0244
 1018YOPC   PO414634   3.603  11.477   5.770  0.1395  0.1195 -0.2078
 1018YOPC   GL114635   3.384  11.626   6.158 -0.1885  0.0244 -0.1615
 1018YOPC   GL214636   3.215  11.349   6.233 -0.1023  0.1313  0.0425
 1018YOPC   C1A14637   3.338  11.691   6.537  0.6166  0.3078 -0.0573
 1018YOPC   D2A14638   3.259  11.896   6.819  0.1953  0.0669  0.0058
 1018YOPC   C3A14639   3.502  12.064   7.043  0.4417  0.2324 -0.0961
 1018YOPC   C4A14640   3.776  12.334   7.344  0.1936 -0.1672  0.0189
 1018YOPC   C1B14641   3.242  11.191   6.652 -0.0524  0.1749  0.1348
 1018YOPC   C2B14642   2.914  10.918   6.828  0.1314 -0.4816 -0.0321
 1018YOPC   D3B14643   2.533  11.140   6.932 -0.1721 -0.1269 -0.0943
 1018YOPC   C4B14644   2.082  11.341   6.835  0.0991  0.0570  0.1013
 1019YOPC   NC314645   7.857  15.138   5.566  0.2204  0.1347 -0.0390
 1019YOPC   PO414646   7.765  14.679   5.563 -0.0410 -0.0337 -0.2698
 1019YOPC   GL114647   8.124  14.542   5.711  0.3195  0.0202  0.1941
 1019YOPC   GL214648   8.409  14.534   5.671 -0.0615 -0.2504  0.2870
 1019YOPC   C1A14649   8.255  14.485   6.137  0.0581 -0.1550  0.1385
 1019YOPC   D2A14650   8.340  14.457   6.541  0.1017 -0.1238  0.1098
 1019YOPC   C3A14651   8.336  14.847   6.847 -0.0689  0.0851 -0.1324
 1019YOPC   C4A14652   8.171  15.167   7.167  0.0419  0.2640  0.0161
 1019YOPC   C1B14653   8.680  14.686   5.960  0.3061  0.0378 -0.1412
 1019YOPC   C2B14654   8.514  14.884   6.341  0.4201 -0.1186  0.3704
 1019YOPC   D3B14655   8.294  15.243   6.435  0.0630  0.0744 -0.2861
 1019YOPC   C4B14656   7.816  15.397   6.266  0.0085 -0.0365 -0.3224
 1020YOPC   NC314657   8.044   5.083   5.206  0.2953 -0.1706  0.0882
 1020YOPC   PO414658   8.268   4.735   5.339  0.3298 -0.0872  0.1736
 1020YOPC   GL114659   8.465   4.690   5.733 -0.0596  0.4015 -0.1946
 1020YOPC   GL214660   8.828   4.659   5.849 -0.0610 -0.0438  0.0132
 1020YOPC   C1A14661   8.564   4.306   6.114  0.0447  0.2533  0.0946
 1020YOPC   D2A14662   8.525   4.188   6.548  0.1084 -0.2238 -0.1327
 1020YOPC   C3A14663   8.204   3.917   6.670  0.1045  0.4547 -0.2797
 1020YOPC   C4A14664   7.873   3.778   6.707 -0.0076  0.1839  0.0162
 1020YOPC   C1B14665   8.708   4.813   6.261 -0.0055  0.1398 -0.2132
 1020YOPC   C2B14666   8.600   4.689   6.683 -0.3829 -0.2417  0.0305
 1020YOPC   D3B14667   8.306   4.779   6.857 -0.2917  0.0980  0.0271
 1020YOPC   C4B14668   7.870   4.787   7.018  0.3383 -0.0133 -0.2793
 1021YOPC   NC314669   9.002   5.411   5.479  0.0890 -0.2220  0.0315
 1021YOPC   PO414670   8.751   5.043   5.414 -0.1053  0.3122  0.1167
 1021YOPC   GL114671   8.644   5.145   5.793  0.3705 -0.1176 -0.0286
 1021YOPC   GL214672   8.894   5.148   5.911 -0.0117  0.5166 -0.2241
 1021YOPC   C1A14673   8.389   5.127   6.105 -0.1199  0.4227  0.0897
 1021YOPC   D2A14674   8.332   5.068   6.495 -0.2723 -0.0863  0.3436
 1021YOPC   C3A14675   8.728   5.183   6.758  0.4088 -0.2143  0.0376
 1021YOPC   C4A14676   8.857   4.924   7.053  0.0500 -0.3959  0.0514
 1021YOPC   C1B14677   9.024   5.281   6.312 -0.0078 -0.0359 -0.0101
 1021YOPC   C2B14678   9.081   5.468   6.612 -0.0662  0.1366  0.0236
 1021YOPC   D3B14679   8.685   5.646   6.579  0.1056  0.2233 -0.1413
 1021YOPC   C4B14680   8.336   5.775   6.853  0.0883  0.1361 -0.2439
 1022YOPC   NC314681   7.648   9.765   5.574 -0.0995 -0.0130  0.2158
 1022YOPC   PO414682   8.108   9.755   5.605  0.2660 -0.1052 -0.5761
 1022YOPC   GL114683   7.968   9.744   6.027  0.2448 -0.1349 -0.0835
 1022YOPC   GL214684   7.811  10.016   6.060  0.1384  0.0982  0.5034
 1022YOPC   C1A14685   8.133   9.780   6.432 -0.2237 -0.3670 -0.0800
 1022YOPC   D2A14686   8.305   9.863   6.760 -0.1487 -0.0402 -0.0933
 1022YOPC   C3A14687   8.256   9.906   7.177  0.0075  0.0266 -0.1589
 1022YOPC   C4A14688   8.212   9.890   7.585 -0.0639  0.2356 -0.2358
 1022YOPC   C1B14689   7.560   9.709   6.329  0.1359  0.1455 -0.1604
 1022YOPC   C2B14690   7.546   9.467   6.718  0.1078 -0.0780 -0.0046
 1022YOPC   D3B14691   7.764   9.081   6.769  0.2295 -0.2129 -0.0295
 1022YOPC   C4B14692   7.938   8.789   6.596  0.2407  0.1626 -0.0634
 1023YOPC   NC314693  15.617   1.347   5.471 -0.1408  0.3170 -0.0541
 1023YOPC   PO414694  15.147   1.190   5.362 -0.0815  0.2365  0.2793
 1023YOPC   GL114695  15.201   1.032   5.817  0.0853  0.0113 -0.3030
 1023YOPC   GL214696  15.581   0.970   5.792 -0.0279 -0.1399  0.2801
 1023YOPC   C1A14697  15.308   1.162   6.222  0.1458 -0.0507 -0.0964
 1023YOPC   D2A14698  15.407   1.257   6.562 -0.2029 -0.1278 -0.2353
 1023YOPC   C3A14699  15.329   1.104   6.928  0.0199  0.1046 -0.0244
 1023YOPC   C4A14700  15.314   1.013   7.368 -0.0527 -0.0817 -0.2038
 1023YOPC   C1B14701  15.612   0.754   6.183 -0.2016  0.1782  0.1151
 1023YOPC   C2B14702  15.482   0.789   6.576  0.0758  0.3338  0.0698
 1023YOPC   D3B14703  15.057   0.918   6.579  0.1506 -0.0043  0.0185
 1023YOPC   C4B14704  14.876   1.246   6.716 -0.1042 -0.1012  0.1979
 1024YOPC   NC314705   0.548  12.877   5.499  0.1904  0.0146  0.1869
 1024YOPC   PO414706   0.751  12.446   5.565  0.0558  0.3350  0.2728
 1024YOPC   GL114707   0.652  12.417   6.083  0.4169 -0.0591  0.1202
 1024YOPC   GL214708   0.487  12.775   6.121 -0.1707  0.0983 -0.1410
 1024YOPC   C1A14709   0.544  12.263   6.387  0.1572  0.1150  0.1025
 1024YOPC   D2A14710   0.212  12.257   6.727 -0.1041  0.0423 -0.0722
 1024YOPC   C3A14711   0.170  12.006   6.951  0.0394  0.1224 -0.3034
 1024YOPC   C4A14712   0.231  12.162   7.381  0.0475 -0.1128  0.0337
 1024YOPC   C1B14713   0.408  12.698   6.544  0.2453 -0.0670  0.0619
 1024YOPC   C2B14714   0.340  12.804   6.938  0.1136 -0.1144 -0.2084
 1024YOPC   D3B14715   0.071  12.566   7.087  0.0095  0.0397 -0.1333
 1024YOPC   C4B14716  -0.266  12.241   7.163  0.1958 -0.3850 -0.0256
 1025YOPC   NC314717  13.301   8.984   5.340  0.1991  0.0103 -0.1987
 1025YOPC   PO414718  13.672   8.722   5.176 -0.1709 -0.2159 -0.1729
 1025YOPC   GL114719  13.818   8.678   5.571  0.2695 -0.1263 -0.1242
 1025YOPC   GL214720  13.596   8.682   5.721  0.1111  0.0580 -0.2133
 1025YOPC   C1A14721  13.979   8.463   5.904 -0.1912 -0.0207  0.0059
 1025YOPC   D2A14722  14.010   8.199   6.301 -0.0407 -0.3133  0.2486
 1025YOPC   C3A14723  14.151   8.263   6.742  0.0763 -0.1984 -0.0913
 1025YOPC   C4A14724  14.026   8.219   7.150  0.2909  0.1206 -0.0610
 1025YOPC   C1B14725  13.225   8.572   5.924 -0.1584  0.1073 -0.0184
 1025YOPC   C2B14726  13.112   8.434   6.378  0.1481 -0.1799 -0.2560
 1025YOPC   D3B14727  13.102   8.210   6.774  0.1401  0.0425  0.0252
 1025YOPC   C4B14728  13.158   7.782   6.894  0.1980 -0.1372  0.1137
 1026YOPC   NC314729   9.343   4.522   5.113 -0.1224 -0.3465 -0.0028
 1026YOPC   PO414730   9.252   4.867   5.516  0.0690 -0.0388  0.0368
 1026YOPC   GL114731   9.609   4.541   5.555  0.0521  0.0963  0.0819
 1026YOPC   GL214732   9.674   4.734   5.807  0.1305 -0.2006  0.2914
 1026YOPC   C1A14733  10.018   4.447   5.710  0.3467 -0.0990  0.1881
 1026YOPC   D2A14734  10.302   4.527   5.906 -0.0424 -0.1286 -0.1282
 1026YOPC   C3A14735  10.296   4.483   6.261 -0.0067  0.0543 -0.0829
 1026YOPC   C4A14736  10.365   4.286   6.644  0.0223 -0.0794  0.1586
 1026YOPC   C1B14737   9.830   4.599   6.178  0.0798  0.0891  0.2157
 1026YOPC   C2B14738   9.561   4.620   6.606  0.1391 -0.2737  0.6500
 1026YOPC   D3B14739   9.697   4.827   7.000  0.0628 -0.2582  0.0034
 1026YOPC   C4B14740  10.106   4.826   7.326 -0.0886  0.2716 -0.2474
 1027YOPC   NC314741  12.108   0.779   5.426  0.3385  0.0365 -0.1096
 1027YOPC   PO414742  12.551   0.856   5.369  0.1510 -0.0508 -0.2298
 1027YOPC   GL114743  12.606   0.877   5.707  0.2161  0.0431 -0.0842
 1027YOPC   GL214744  12.317   0.830   5.895  0.2432  0.1169 -0.1903
 1027YOPC   C1A14745  12.750   0.597   6.006 -0.2574  0.2279 -0.1449
 1027YOPC   D2A14746  12.613   0.458   6.404  0.0306  0.1461  0.2266
 1027YOPC   C3A14747  12.674   0.680   6.836 -0.2853  0.0870 -0.0539
 1027YOPC   C4A14748  12.934   1.002   7.116  0.1244  0.2694  0.0312
 1027YOPC   C1B14749  12.467   0.908   6.357  0.1030  0.0958  0.0896
 1027YOPC   C2B14750  12.659   1.212   6.535  0.0970  0.1740  0.0892
 1027YOPC   D3B14751  12.527   1.266   6.919  0.2801 -0.3124 -0.0582
 1027YOPC   C4B14752  12.596   1.451   7.305  0.1316 -0.0347  0.2187
 1028YOPC   NC314753  18.172  11.537   5.673  0.0474 -0.0156 -0.3711
 1028YOPC   PO414754  18.346  11.687   5.311 -0.5020 -0.3181  0.0888
 1028YOPC   GL114755  18.552  11.819   5.670  0.1453 -0.0461 -0.0391
 1028YOPC   GL214756  18.750  11.684   5.657 -0.0093  0.1991 -0.0860
 1028YOPC   C1A14757  18.657  12.019   5.996  0.0730  0.1575  0.0069
 1028YOPC   D2A14758  18.817  11.994   6.443 -0.2050  0.3422 -0.1886
 1028YOPC   C3A14759  18.509  12.112   6.737 -0.1621  0.0124  0.1845
 1028YOPC   C4A14760  18.325  12.509   6.846 -0.1993  0.1578 -0.1561
 1028YOPC   C1B14761  18.696  11.516   6.189 -0.3141 -0.2352 -0.1098
 1028YOPC   C2B14762  18.539  11.197   6.420 -0.0008  0.0507 -0.3426
 1028YOPC   D3B14763  18.357  11.192   6.642 -0.0952 -0.3420 -0.1246
 1028YOPC   C4B14764  18.034  11.460   6.444 -0.0383 -0.0631 -0.4142
 1029YOPC   NC314765  14.018  15.593   5.575  0.0928  0.1912 -0.1407
 1029YOPC   PO414766  13.608  15.927   5.657 -0.0265  0.1693 -0.0137
 1029YOPC   GL114767  13.742  16.116   6.017 -0.1558  0.0971 -0.1521
 1029YOPC   GL214768  14.000  15.935   6.030  0.4446 -0.3321 -0.2671
 1029YOPC   C1A14769  13.960  16.558   6.060 -0.2635 -0.1190 -0.1061
 1029YOPC   D2A14770  14.441  16.651   6.266  0.1515 -0.0054 -0.0583
 1029YOPC   C3A14771  14.655  17.042   6.236  0.2903 -0.0280 -0.2209
 1029YOPC   C4A14772  14.918  17.365   5.969 -0.0704 -0.0325 -0.2598
 1029YOPC   C1B14773  14.132  16.216   6.373  0.2565  0.0528  0.1445
 1029YOPC   C2B14774  14.054  16.306   6.771 -0.2141  0.1543 -0.0470
 1029YOPC   D3B14775  14.388  16.283   7.205 -0.0100  0.0345 -0.2002
 1029YOPC   C4B14776  14.803  16.180   7.434  0.2811  0.0602 -0.2679
 1030YOPC   NC314777  15.677  11.288   5.776 -0.1132  0.0926  0.0879
 1030YOPC   PO414778  15.541  10.941   5.591 -0.2030  0.0679 -0.0196
 1030YOPC   GL114779  15.545  10.913   6.089 -0.0915 -0.1247  0.2022
 1030YOPC   GL214780  15.718  11.080   6.203 -0.1316  0.1380  0.1447
 1030YOPC   C1A14781  15.299  10.944   6.503  0.0974  0.0781  0.0536
 1030YOPC   D2A14782  15.402  10.854   6.963  0.1017 -0.0177  0.1777
 1030YOPC   C3A14783  15.643  11.125   7.217  0.1061 -0.2676  0.2800
 1030YOPC   C4A14784  16.050  11.258   7.397 -0.0044 -0.0676  0.2636
 1030YOPC   C1B14785  15.727  11.112   6.682 -0.0230  0.1911  0.0616
 1030YOPC   C2B14786  15.909  10.898   6.892  0.0894  0.0489 -0.1396
 1030YOPC   D3B14787  15.827  10.648   7.304 -0.0170  0.4408  0.3446
 1030YOPC   C4B14788  15.854  10.833   7.669 -0.0720 -0.3506 -0.0215
 1031YOPC   NC314789   5.379   7.719   5.595 -0.0093 -0.1774 -0.1463
 1031YOPC   PO414790   5.670   7.405   5.756  0.1517  0.2972  0.3918
 1031YOPC   GL114791   5.573   7.203   6.079  0.0164  0.2067  0.0330
 1031YOPC   GL214792   5.558   6.839   6.022 -0.2084 -0.0686  0.0913
 1031YOPC   C1A14793   5.614   7.065   6.536 -0.1214  0.0348  0.0744
 1031YOPC   D2A14794   5.559   6.940   6.902 -0.0364 -0.1411  0.4610
 1031YOPC   C3A14795   5.525   6.892   7.414 -0.2612  0.1103  0.3011
 1031YOPC   C4A14796   5.503   7.083   7.802  0.0405  0.0315 -0.2776
 1031YOPC   C1B14797   5.228   6.944   6.236 -0.3052 -0.4085  0.1453
 1031YOPC   C2B14798   5.037   7.047   6.604 -0.2078  0.0202  0.2538
 1031YOPC   D3B14799   4.767   7.407   6.502 -0.0943  0.2025 -0.3180
 1031YOPC   C4B14800   4.356   7.407   6.569 -0.3608 -0.1032 -0.0909
 1032YOPC   NC314801   5.189  13.902   5.459 -0.3430 -0.2130  0.0278
 1032YOPC   PO414802   5.092  13.379   5.510 -0.2074  0.0632 -0.1533
 1032YOPC   GL114803   5.099  13.531   5.956  0.2498 -0.2716  0.1442
 1032YOPC   GL214804   5.055  13.802   5.914 -0.0818  0.0080  0.1235
 1032YOPC   C1A14805   4.903  13.463   6.277 -0.2030 -0.1179  0.0987
 1032YOPC   D2A14806   4.816  13.540   6.598  0.0866  0.2374  0.0807
 1032YOPC   C3A14807   4.698  13.106   6.811 -0.1717  0.3822 -0.1140
 1032YOPC   C4A14808   4.543  12.979   7.231 -0.0232  0.2935  0.2074
 1032YOPC   C1B14809   5.106  13.915   6.345  0.1086  0.1927 -0.0215
 1032YOPC   C2B14810   5.223  14.297   6.637 -0.2285 -0.4365 -0.3508
 1032YOPC   D3B14811   5.523  14.147   6.859  0.1710  0.1068 -0.4104
 1032YOPC   C4B14812   5.775  13.901   6.893  0.0238  0.1782 -0.3460
 1033YOPC   NC314813   1.850  18.311   5.346 -0.1215 -0.3636  0.1835
 1033YOPC   PO414814   1.813  18.824   5.386 -0.1843 -0.0298  0.1245
 1033YOPC   GL114815   1.818  18.960   5.756  0.0182  0.0611 -0.2695
 1033YOPC   GL214816   1.500  19.091   6.060 -0.1872  0.0941 -0.2970
 1033YOPC   C1A14817   1.999  18.853   6.060 -0.2076  0.1294 -0.0595
 1033YOPC   D2A14818   2.065  18.647   6.527  0.0605  0.0843 -0.1737
 1033YOPC   C3A14819   1.976  18.565   6.980 -0.2871  0.1639  0.0972
 1033YOPC   C4A14820   2.069  18.465   7.475  0.2740  0.1006  0.2187
 1033YOPC   C1B14821   1.625  18.684   6.313  0.0752 -0.1913 -0.3784
 1033YOPC   C2B14822   1.836  18.294   6.092  0.0406 -0.3103  0.1400
 1033YOPC   D3B14823   1.790  17.786   6.046 -0.4088  0.1654  0.1056
 1033YOPC   C4B14824   1.693  17.505   6.439 -0.2896 -0.0214 -0.1799
 1034YOPC   NC314825  14.045   4.432   5.632  0.0893 -0.1847 -0.0423
 1034YOPC   PO414826  14.160   4.226   5.290  0.0528  0.0759  0.0254
 1034YOPC   GL114827  14.140   3.869   5.607  0.1269  0.1592 -0.0543
 1034YOPC   GL214828  13.865   3.583   5.650  0.1149 -0.2372 -0.0379
 1034YOPC   C1A14829  14.225   3.616   6.065 -0.4982 -0.2267 -0.1973
 1034YOPC   D2A14830  14.372   3.443   6.411 -0.1479  0.1311 -0.0677
 1034YOPC   C3A14831  14.740   3.271   6.387 -0.0619  0.5595  0.0515
 1034YOPC   C4A14832  15.123   3.379   6.209 -0.1425 -0.1375 -0.1949
 1034YOPC   C1B14833  13.809   3.305   6.170 -0.1143 -0.1086 -0.2626
 1034YOPC   C2B14834  13.832   3.201   6.682 -0.1461  0.0369  0.0956
 1034YOPC   D3B14835  14.140   3.418   6.895 -0.1368  0.1240  0.0963
 1034YOPC   C4B14836  14.543   3.718   6.941  0.1302  0.1183  0.0653
 1035YOPC   NC314837  12.799   0.427   5.359 -0.0214 -0.1178  0.1075
 1035YOPC   PO414838  13.118   0.538   5.304 -0.0118 -0.0664  0.3915
 1035YOPC   GL114839  13.145   0.658   5.737  0.1720  0.0548 -0.0491
 1035YOPC   GL214840  13.408   0.819   5.597  0.2283 -0.0542 -0.0646
 1035YOPC   C1A14841  13.215   0.390   6.111 -0.2642  0.2871 -0.1036
 1035YOPC   D2A14842  13.305   0.256   6.600  0.0857  0.3352  0.3604
 1035YOPC   C3A14843  13.380   0.028   7.084  0.1800  0.2248 -0.0098
 1035YOPC   C4A14844  13.454  -0.181   7.503 -0.1316  0.0345  0.0664
 1035YOPC   C1B14845  13.562   0.822   6.008 -0.0400  0.0472  0.0161
 1035YOPC   C2B14846  13.572   0.626   6.375  0.0647 -0.1313  0.0869
 1035YOPC   D3B14847  13.644   0.897   6.828  0.2175  0.1645 -0.0941
 1035YOPC   C4B14848  13.441   1.096   7.202  0.0110 -0.0800  0.0603
 1036YOPC   NC314849  10.805  14.049   5.133  0.0099  0.0223 -0.1544
 1036YOPC   PO414850  10.611  13.774   5.432  0.1321  0.1130 -0.0828
 1036YOPC   GL114851  10.875  13.908   5.693  0.1148 -0.4886 -0.0744
 1036YOPC   GL214852  10.916  14.213   5.708  0.0311  0.1481 -0.1219
 1036YOPC   C1A14853  11.054  13.642   5.924  0.0425 -0.3757  0.1939
 1036YOPC   D2A14854  10.995  13.351   6.236  0.2588 -0.1473 -0.1093
 1036YOPC   C3A14855  11.098  13.414   6.602 -0.1124  0.2049  0.1002
 1036YOPC   C4A14856  10.861  13.200   6.983  0.3213 -0.2504  0.5763
 1036YOPC   C1B14857  10.980  14.365   6.168  0.2111 -0.0369  0.6434
 1036YOPC   C2B14858  11.031  14.724   6.437  0.0466  0.0103  0.0695
 1036YOPC   D3B14859  10.946  14.709   6.842  0.0134  0.3397 -0.4057
 1036YOPC   C4B14860  10.917  14.816   7.189  0.1143 -0.0381 -0.0202
 1037YOPC   NC314861   0.623   6.847   5.168  0.2222  0.0512 -0.2022
 1037YOPC   PO414862   0.449   6.719   5.528 -0.0176 -0.1997 -0.0621
 1037YOPC   GL114863   0.486   6.880   5.935  0.0450 -0.0166 -0.0430
 1037YOPC   GL214864   0.260   7.098   6.061 -0.3248 -0.0486 -0.1830
 1037YOPC   C1A14865   0.268   6.727   6.330 -0.1589  0.0056  0.0818
 1037YOPC   D2A14866   0.010   6.351   6.425 -0.0794  0.2626  0.1469
 1037YOPC   C3A14867  -0.420   6.274   6.380  0.0776 -0.2096  0.1926
 1037YOPC   C4A14868  -0.794   6.525   6.334  0.3012  0.5661 -0.0050
 1037YOPC   C1B14869   0.314   7.229   6.444 -0.4128  0.0469  0.2873
 1037YOPC   C2B14870   0.470   7.605   6.503 -0.0612  0.1483 -0.0512
 1037YOPC   D3B14871   0.584   7.700   6.902 -0.0541 -0.0406 -0.2669
 1037YOPC   C4B14872   0.659   7.887   7.262 -0.2307 -0.2465 -0.1024
 1038YOPC   NC314873  11.122   1.968   4.816  0.1423 -0.0107  0.2848
 1038YOPC   PO414874  11.431   2.419   5.018  0.0117 -0.1398 -0.1214
 1038YOPC   GL114875  11.228   2.724   5.354  0.5608 -0.0290  0.0037
 1038YOPC   GL214876  10.921   2.772   5.294 -0.0369  0.0125 -0.0249
 1038YOPC   C1A14877  11.100   2.890   5.776 -0.2417  0.3978  0.1692
 1038YOPC   D2A14878  11.365   3.254   5.984  0.1567  0.1527 -0.0948
 1038YOPC   C3A14879  11.263   3.502   6.360 -0.0219  0.0866  0.4944
 1038YOPC   C4A14880  11.103   3.775   6.635 -0.1164 -0.0994  0.3245
 1038YOPC   C1B14881  10.821   2.501   5.614  0.4301  0.1753  0.1270
 1038YOPC   C2B14882  10.721   2.145   5.685  0.1684  0.1475  0.1084
 1038YOPC   D3B14883  11.028   2.007   5.926  0.2001  0.3130  0.0940
 1038YOPC   C4B14884  11.363   1.866   6.111  0.0958 -0.3565  0.0190
 1039YOPC   NC314885  16.011  17.118   5.437  0.3070  0.1923 -0.1814
 1039YOPC   PO414886  15.677  16.734   5.365 -0.1957 -0.0343 -0.0776
 1039YOPC   GL114887  15.702  16.615   5.836 -0.3989  0.2237 -0.2745
 1039YOPC   GL214888  15.542  16.329   5.928  0.3751  0.1217  0.0469
 1039YOPC   C1A14889  15.778  16.795   6.261 -0.3626  0.1157  0.1610
 1039YOPC   D2A14890  15.573  16.922   6.575  0.2666  0.0480 -0.1339
 1039YOPC   C3A14891  15.691  16.540   6.796  0.0959  0.0936 -0.0541
 1039YOPC   C4A14892  15.738  16.239   7.137  0.2663  0.2252  0.2599
 1039YOPC   C1B14893  15.447  16.362   6.376  0.1746  0.5469 -0.0044
 1039YOPC   C2B14894  15.388  16.119   6.717 -0.2928 -0.1671 -0.1640
 1039YOPC   D3B14895  15.201  16.173   7.082  0.0152 -0.1334 -0.0552
 1039YOPC   C4B14896  15.317  16.327   7.473 -0.0166  0.1847  0.6545
 1040YOPC   NC314897   5.581   8.675   5.696  0.2843  0.1154  0.0590
 1040YOPC   PO414898   6.008   8.899   5.607  0.1276  0.1317  0.0035
 1040YOPC   GL114899   5.963   8.633   6.022  0.2297 -0.0824  0.0463
 1040YOPC   GL214900   5.698   8.694   6.194  0.1585 -0.0684  0.1739
 1040YOPC   C1A14901   5.994   8.309   6.332  0.1668 -0.1286 -0.0660
 1040YOPC   D2A14902   5.925   8.261   6.753  0.1087 -0.4247  0.1744
 1040YOPC   C3A14903   5.942   7.858   6.900 -0.1277  0.5291 -0.1796
 1040YOPC   C4A14904   5.808   7.756   7.279  0.2644 -0.0345 -0.2608
 1040YOPC   C1B14905   5.722   8.742   6.664 -0.0147  0.3149  0.4190
 1040YOPC   C2B14906   5.592   8.480   7.088  0.0070 -0.3174  0.0397
 1040YOPC   D3B14907   5.819   8.235   7.399 -0.0865  0.0079 -0.2161
 1040YOPC   C4B14908   5.926   7.903   7.829  0.1259 -0.1431 -0.1025
 1041YOPC   NC314909   0.399   0.749   5.726 -0.2224  0.0068  0.1803
 1041YOPC   PO414910  -0.007   0.894   5.434  0.3194 -0.3039  0.0689
 1041YOPC   GL114911  -0.006   0.900   5.992 -0.0437 -0.0544  0.3884
 1041YOPC   GL214912   0.168   1.113   6.168 -0.0242 -0.0907 -0.0958
 1041YOPC   C1A14913   0.083   0.774   6.543 -0.1148  0.0342  0.0424
 1041YOPC   D2A14914   0.247   0.841   6.930  0.1390 -0.1102  0.1259
 1041YOPC   C3A14915   0.603   1.049   7.013  0.1958 -0.1837  0.0184
 1041YOPC   C4A14916   1.006   1.109   7.158 -0.2285 -0.0872 -0.1309
 1041YOPC   C1B14917   0.473   1.117   6.503 -0.0732  0.1218  0.1065
 1041YOPC   C2B14918   0.725   1.406   6.656  0.2056  0.0971  0.0119
 1041YOPC   D3B14919   1.145   1.421   6.793  0.4960 -0.0299 -0.0143
 1041YOPC   C4B14920   1.441   1.440   6.470 -0.1230  0.0142  0.1225
 1042YOPC   NC314921   5.097  12.244   5.466 -0.1460 -0.1342 -0.0072
 1042YOPC   PO414922   5.154  11.820   5.713 -0.1206  0.0481  0.1851
 1042YOPC   GL114923   5.142  11.661   6.169 -0.1760  0.4953  0.1602
 1042YOPC   GL214924   5.326  11.322   6.179 -0.0088  0.0088  0.1632
 1042YOPC   C1A14925   5.179  11.457   6.589 -0.3901 -0.1088  0.1078
 1042YOPC   D2A14926   5.286  11.644   6.970 -0.0602  0.2517 -0.0321
 1042YOPC   C3A14927   5.196  11.629   7.446 -0.0927 -0.1702  0.2310
 1042YOPC   C4A14928   5.329  11.475   7.836  0.0037 -0.1664  0.0611
 1042YOPC   C1B14929   5.621  11.546   6.405  0.0564  0.2435  0.3125
 1042YOPC   C2B14930   5.883  11.767   6.731  0.3122  0.0314 -0.3106
 1042YOPC   D3B14931   6.273  11.738   6.521 -0.0594 -0.0496  0.0639
 1042YOPC   C4B14932   6.704  11.437   6.570 -0.0801  0.0676  0.1329
 1043YOPC   NC314933   1.991  11.897   5.524  0.2896  0.0315 -0.1937
 1043YOPC   PO414934   1.895  12.347   5.527  0.3571  0.1718  0.0759
 1043YOPC   GL114935   1.759  12.523   5.988 -0.0280  0.2026  0.0819
 1043YOPC   GL214936   1.882  12.767   5.894 -0.1960  0.0606  0.1314
 1043YOPC   C1A14937   1.779  12.651   6.475  0.1167  0.2380  0.0118
 1043YOPC   D2A14938   1.592  12.653   6.737 -0.2632 -0.2952  0.0868
 1043YOPC   C3A14939   1.398  12.651   7.120  0.0669  0.5143 -0.2240
 1043YOPC   C4A14940   1.094  12.738   7.432  0.0602 -0.2121 -0.1765
 1043YOPC   C1B14941   1.870  13.120   6.277  0.1328  0.4310 -0.1538
 1043YOPC   C2B14942   1.564  13.387   6.326 -0.0746  0.1867  0.1959
 1043YOPC   D3B14943   1.474  13.798   6.309  0.0994 -0.0696  0.1878
 1043YOPC   C4B14944   1.593  14.180   6.595 -0.2670 -0.0347 -0.1823
 1044YOPC   NC314945  14.280  13.796   5.509 -0.0334  0.0055 -0.0759
 1044YOPC   PO414946  14.364  14.176   5.664  0.0367 -0.0773  0.1442
 1044YOPC   GL114947  14.153  14.170   6.061 -0.0272 -0.3069 -0.0730
 1044YOPC   GL214948  14.089  14.404   6.038 -0.0492  0.1470  0.0338
 1044YOPC   C1A14949  14.170  14.005   6.395 -0.1904 -0.2100  0.0772
 1044YOPC   D2A14950  14.061  13.928   6.640 -0.1155  0.0624 -0.4884
 1044YOPC   C3A14951  14.268  13.615   6.815  0.1239 -0.0996  0.0391
 1044YOPC   C4A14952  14.135  13.319   6.901  0.1381 -0.0167  0.0277
 1044YOPC   C1B14953  13.922  14.503   6.375 -0.1243  0.0826 -0.2499
 1044YOPC   C2B14954  13.932  14.397   6.802  0.3649 -0.1385 -0.0794
 1044YOPC   D3B14955  13.896  14.243   7.089  0.3769 -0.2113  0.1702
 1044YOPC   C4B14956  13.438  14.061   7.205  0.1631  0.2363 -0.0262
 1045YOPC   NC314957   9.552   8.842   5.581 -0.0881  0.1618  0.1015
 1045YOPC   PO414958   9.852   8.801   5.862 -0.0718  0.2413  0.1421
 1045YOPC   GL114959  10.139   8.830   6.132 -0.1032  0.1580 -0.3157
 1045YOPC   GL214960  10.179   9.174   6.069 -0.0613 -0.1500  0.1848
 1045YOPC   C1A14961  10.354   8.775   6.476  0.0732  0.1657 -0.0979
 1045YOPC   D2A14962  10.804   8.929   6.605 -0.1394 -0.0769 -0.1070
 1045YOPC   C3A14963  10.774   9.309   6.771  0.2121 -0.1829 -0.2543
 1045YOPC   C4A14964  10.501   9.619   6.930  0.1172 -0.1764  0.0388
 1045YOPC   C1B14965  10.267   9.260   6.492 -0.5040  0.1574  0.2294
 1045YOPC   C2B14966  10.377   9.031   6.911  0.1687  0.4563 -0.0856
 1045YOPC   D3B14967  10.768   8.935   7.088  0.0072 -0.1722  0.0478
 1045YOPC   C4B14968  10.952   9.329   7.305  0.0149  0.3879 -0.0608
 1046YOPC   NC314969  13.619   3.483   5.227 -0.2675 -0.1348  0.0402
 1046YOPC   PO414970  13.609   3.921   5.352 -0.4660 -0.2584 -0.0368
 1046YOPC   GL114971  13.625   3.996   5.741  0.1717  0.1604  0.1241
 1046YOPC   GL214972  13.438   4.193   6.006  0.1572  0.1843  0.2857
 1046YOPC   C1A14973  13.710   3.767   6.116 -0.1451 -0.0876  0.1010
 1046YOPC   D2A14974  13.882   3.705   6.424  0.4838 -0.0528  0.0305
 1046YOPC   C3A14975  14.229   3.919   6.591  0.1605 -0.1561  0.2364
 1046YOPC   C4A14976  14.354   4.172   6.866  0.0995  0.2220 -0.0527
 1046YOPC   C1B14977  13.514   4.265   6.459 -0.1760 -0.2130 -0.1260
 1046YOPC   C2B14978  13.723   4.050   6.751 -0.0797  0.2730  0.0832
 1046YOPC   D3B14979  13.516   3.887   7.210 -0.1182 -0.0446  0.2799
 1046YOPC   C4B14980  13.315   4.187   7.480 -0.0055  0.3677 -0.0353
 1047YOPC   NC314981   1.941  10.237   5.287  0.2482 -0.1615 -0.0413
 1047YOPC   PO414982   1.787  10.576   5.501 -0.0218 -0.1628 -0.0859
 1047YOPC   GL114983   1.731  10.431   5.910 -0.0977 -0.0278 -0.0171
 1047YOPC   GL214984   1.431  10.622   6.162  0.1603  0.0777 -0.1952
 1047YOPC   C1A14985   1.745  10.259   6.362 -0.3065 -0.0643 -0.1956
 1047YOPC   D2A14986   1.972  10.329   6.825  0.0517 -0.0871 -0.1434
 1047YOPC   C3A14987   1.989  10.460   7.183 -0.2973 -0.2254 -0.1105
 1047YOPC   C4A14988   2.209  10.614   7.615  0.3263 -0.0766 -0.1494
 1047YOPC   C1B14989   1.754  10.749   6.381  0.1027 -0.1037  0.0746
 1047YOPC   C2B14990   2.034  10.807   6.692  0.1217  0.0099  0.1214
 1047YOPC   D3B14991   2.009  10.946   7.134  0.1686 -0.2143  0.0503
 1047YOPC   C4B14992   2.365  11.029   7.376  0.0931 -0.0373 -0.1226
 1048YOPC   NC314993  18.161   1.429   5.275  0.0078  0.1804 -0.0514
 1048YOPC   PO414994  18.135   1.303   5.731  0.0504  0.0515  0.0278
 1048YOPC   GL114995  18.307   1.381   6.115 -0.1522 -0.1243  0.0374
 1048YOPC   GL214996  18.627   1.269   6.138  0.1975 -0.2415  0.2220
 1048YOPC   C1A14997  18.251   1.330   6.575 -0.1711  0.0578  0.0265
 1048YOPC   D2A14998  18.291   1.502   7.058 -0.3420 -0.0877 -0.1510
 1048YOPC   C3A14999  18.445   1.297   7.467  0.0029  0.0274  0.0662
 1048YOPC   C4A15000  18.216   1.105   7.758  0.1450 -0.1740  0.1686
 1048YOPC   C1B15001  18.644   1.617   6.499 -0.2708  0.1744  0.2457
 1048YOPC   C2B15002  18.854   1.701   6.907 -0.0676 -0.0018 -0.1853
 1048YOPC   D3B15003  18.827   1.953   7.270  0.1410 -0.1480 -0.3885
 1048YOPC   C4B15004  18.703   2.079   7.600  0.3191 -0.3641  0.2675
 1049YOPC   NC315005  12.236   3.756   5.075  0.1130  0.1283 -0.2021
 1049YOPC   PO415006  12.126   4.199   5.184 -0.2318  0.0244 -0.1420
 1049YOPC   GL115007  12.358   4.129   5.564  0.2797 -0.3820  0.0934
 1049YOPC   GL215008  12.392   3.754   5.588 -0.1402 -0.2411  0.1316
 1049YOPC   C1A15009  12.239   4.167   5.990  0.1601  0.1451 -0.0854
 1049YOPC   D2A15010  11.885   4.257   6.259 -0.1642  0.1529  0.0984
 1049YOPC   C3A15011  11.879   4.238   6.673  0.0895 -0.0168  0.2245
 1049YOPC   C4A15012  12.152   4.295   7.125  0.0930 -0.0400 -0.0254
 1049YOPC   C1B15013  12.226   3.682   6.036  0.1320 -0.1338  0.0474
 1049YOPC   C2B15014  12.076   3.820   6.414  0.2130 -0.0547 -0.1041
 1049YOPC   D3B15015  11.688   3.778   6.600  0.4374 -0.2274  0.0265
 1049YOPC   C4B15016  11.532   3.461   6.764 -0.0987 -0.1279 -0.1825
 1050YOPC   NC315017   4.597   7.852   5.606 -0.2527  0.1984  0.0465
 1050YOPC   PO415018   4.869   7.469   5.901 -0.2389  0.0053 -0.0367
 1050YOPC   GL115019   4.535   7.624   6.096 -0.0754 -0.0320 -0.2661
 1050YOPC   GL215020   4.205   7.527   6.084 -0.0666 -0.2264 -0.2175
 1050YOPC   C1A15021   4.303   7.896   6.385  0.1541 -0.0718 -0.1326
 1050YOPC   D2A15022   4.238   8.236   6.672 -0.2233 -0.1989  0.2858
 1050YOPC   C3A15023   4.326   8.274   7.189 -0.1690 -0.2154  0.0269
 1050YOPC   C4A15024   4.173   8.020   7.527  0.2141 -0.0149 -0.1168
 1050YOPC   C1B15025   3.871   7.650   6.227  0.2002 -0.0281  0.3075
 1050YOPC   C2B15026   3.648   7.492   6.541  0.1547 -0.2785  0.2086
 1050YOPC   D3B15027   3.901   7.453   6.870  0.0242  0.1251 -0.0717
 1050YOPC   C4B15028   4.220   7.745   6.883  0.0423  0.1033 -0.0800
 1051YOPC   NC315029  17.072   7.247   5.185 -0.1024  0.1847  0.2080
 1051YOPC   PO415030  16.864   6.869   5.208  0.1474  0.0161  0.2534
 1051YOPC   GL115031  16.845   6.634   5.592 -0.1494  0.2971  0.1129
 1051YOPC   GL215032  16.735   6.798   5.925 -0.1471 -0.3439 -0.0417
 1051YOPC   C1A15033  17.207   6.671   5.930 -0.1536 -0.1022 -0.1375
 1051YOPC   D2A15034  17.685   6.557   6.321  0.3400 -0.3222 -0.3458
 1051YOPC   C3A15035  17.639   6.713   6.674  0.0564  0.0037 -0.2537
 1051YOPC   C4A15036  17.583   6.858   7.021  0.1335  0.0604  0.1349
 1051YOPC   C1B15037  16.807   7.043   6.328 -0.3568 -0.0823 -0.2709
 1051YOPC   C2B15038  16.900   7.470   6.520 -0.0439  0.0308 -0.1810
 1051YOPC   D3B15039  17.041   7.467   6.873  0.0985 -0.2504 -0.0625
 1051YOPC   C4B15040  17.111   7.472   7.326  0.2911 -0.4010  0.1897
 1052YOPC   NC315041  10.904  15.743   5.305  0.0973  0.1896 -0.3071
 1052YOPC   PO415042  10.886  16.184   5.319 -0.0636  0.3085 -0.2874
 1052YOPC   GL115043  11.095  16.063   5.700  0.1404  0.3083  0.2358
 1052YOPC   GL215044  11.194  15.782   5.833  0.2356 -0.0371  0.0699
 1052YOPC   C1A15045  11.337  16.222   6.054  0.1918 -0.1585  0.1014
 1052YOPC   D2A15046  11.663  16.432   6.277  0.1380 -0.0751  0.1376
 1052YOPC   C3A15047  11.886  16.321   6.623  0.2185  0.1892 -0.2341
 1052YOPC   C4A15048  11.840  16.381   7.067  0.0625  0.1334  0.0459
 1052YOPC   C1B15049  10.875  15.660   6.117 -0.3971  0.2058  0.2124
 1052YOPC   C2B15050  10.596  15.678   6.373 -0.2668 -0.0366 -0.3693
 1052YOPC   D3B15051  10.687  15.649   6.795  0.0197  0.0880 -0.3164
 1052YOPC   C4B15052  10.637  15.792   7.165  0.2152  0.2239  0.1236
 1053YOPC   NC315053  14.919  11.522   5.500  0.0232 -0.1363 -0.2406
 1053YOPC   PO415054  15.257  11.749   5.650  0.2899  0.0394  0.0346
 1053YOPC   GL115055  15.333  12.015   5.912 -0.1171  0.5220  0.1159
 1053YOPC   GL215056  15.565  12.086   6.160  0.2130 -0.1663  0.0972
 1053YOPC   C1A15057  15.075  12.259   6.148 -0.0188 -0.0103 -0.1027
 1053YOPC   D2A15058  14.626  12.070   6.168  0.2154  0.6077  0.0599
 1053YOPC   C3A15059  14.409  11.744   6.142  0.0573 -0.0987  0.0734
 1053YOPC   C4A15060  14.349  11.459   6.326  0.2140 -0.1719 -0.0006
 1053YOPC   C1B15061  15.677  12.016   6.574 -0.1018 -0.0171  0.1098
 1053YOPC   C2B15062  15.954  12.072   6.783  0.0667  0.0855  0.0463
 1053YOPC   D3B15063  15.926  12.444   6.903  0.0331  0.0680 -0.4484
 1053YOPC   C4B15064  16.045  12.865   7.029  0.1691  0.2894 -0.5693
 1054YOPC   NC315065   5.534   2.144   5.506 -0.0624 -0.0200 -0.1081
 1054YOPC   PO415066   5.739   1.843   5.788 -0.0469 -0.2771 -0.1028
 1054YOPC   GL115067   5.939   1.619   6.113 -0.4042  0.3805 -0.2507
 1054YOPC   GL215068   6.019   1.331   6.060  0.0185  0.0100  0.1455
 1054YOPC   C1A15069   5.782   1.570   6.467 -0.2355 -0.0211  0.0167
 1054YOPC   D2A15070   5.749   1.538   6.863  0.1036 -0.2522  0.2294
 1054YOPC   C3A15071   5.524   1.494   7.230  0.2064 -0.0057 -0.0136
 1054YOPC   C4A15072   5.510   1.357   7.656 -0.2014  0.0957 -0.0253
 1054YOPC   C1B15073   6.228   1.294   6.493  0.0703 -0.1980  0.0945
 1054YOPC   C2B15074   6.636   1.372   6.781  0.1494  0.1076 -0.1543
 1054YOPC   D3B15075   6.853   1.780   6.864 -0.2419 -0.1549  0.2034
 1054YOPC   C4B15076   6.987   2.198   7.118 -0.0527  0.0947 -0.0058
 1055YOPC   NC315077  16.556   8.545   5.415 -0.1113  0.0915 -0.1146
 1055YOPC   PO415078  16.507   8.994   5.611  0.1829  0.1071 -0.0844
 1055YOPC   GL115079  16.885   9.067   5.801  0.0681 -0.4678 -0.2048
 1055YOPC   GL215080  17.060   9.437   5.912  0.3279  0.0514 -0.3040
 1055YOPC   C1A15081  17.053   9.062   6.310  0.0567  0.0113 -0.1241
 1055YOPC   D2A15082  17.475   8.926   6.496  0.0617 -0.1198 -0.3634
 1055YOPC   C3A15083  17.397   8.605   6.843 -0.3141  0.3170  0.1615
 1055YOPC   C4A15084  17.489   8.313   7.151  0.0591 -0.1621 -0.1665
 1055YOPC   C1B15085  17.321   9.399   6.353  0.1049 -0.0602  0.0194
 1055YOPC   C2B15086  17.562   9.757   6.562 -0.0329  0.0932 -0.2691
 1055YOPC   D3B15087  17.772   9.740   6.910 -0.0520  0.3429  0.2584
 1055YOPC   C4B15088  18.053   9.805   7.255  0.2308  0.0651  0.1314
 1056YOPC   NC315089   2.277  15.640   5.045  0.1108  0.0402  0.0296
 1056YOPC   PO415090   2.616  15.527   5.240  0.2795  0.0762 -0.2199
 1056YOPC   GL115091   2.623  15.344   5.670  0.4193  0.0181  0.0584
 1056YOPC   GL215092   2.421  15.624   5.823  0.0767  0.1173  0.1184
 1056YOPC   C1A15093   2.803  15.402   6.115 -0.3018 -0.2218 -0.2094
 1056YOPC   D2A15094   2.761  15.466   6.489 -0.2516  0.1270  0.3106
 1056YOPC   C3A15095   3.055  15.361   6.797 -0.0845  0.1238 -0.0684
 1056YOPC   C4A15096   2.980  14.939   7.113  0.3577  0.0342 -0.2341
 1056YOPC   C1B15097   2.377  15.733   6.243  0.1513 -0.1837  0.1608
 1056YOPC   C2B15098   2.505  15.930   6.535  0.2933  0.0730 -0.3118
 1056YOPC   D3B15099   2.847  15.850   6.817  0.0053  0.4904  0.0114
 1056YOPC   C4B15100   3.168  16.093   6.929 -0.3764  0.0971 -0.1304
 1057YOPC   NC315101  11.313   4.888   5.225 -0.0453  0.1398  0.0756
 1057YOPC   PO415102  11.597   4.672   5.391  0.1397  0.0839  0.1787
 1057YOPC   GL115103  11.450   4.722   5.697 -0.1578  0.0101 -0.0563
 1057YOPC   GL215104  11.396   4.895   5.926  0.1637 -0.4803  0.1875
 1057YOPC   C1A15105  11.408   4.443   6.057 -0.0276  0.3013  0.0799
 1057YOPC   D2A15106  11.440   4.148   6.429  0.2745  0.1472 -0.1526
 1057YOPC   C3A15107  11.416   4.193   6.894 -0.3061  0.1416  0.1440
 1057YOPC   C4A15108  11.558   4.347   7.109 -0.0876  0.0301  0.3993
 1057YOPC   C1B15109  11.160   4.881   6.100  0.1330  0.2220 -0.1672
 1057YOPC   C2B15110  11.105   4.774   6.524  0.0205  0.0062 -0.0809
 1057YOPC   D3B15111  11.147   4.618   6.961 -0.1885 -0.2321 -0.2120
 1057YOPC   C4B15112  11.050   4.465   7.337 -0.1020 -0.4126  0.1321
 1058YOPC   NC315113   2.298   1.279   5.387  0.0969 -0.1047 -0.1563
 1058YOPC   PO415114   2.073   0.834   5.334  0.4344  0.0104  0.2441
 1058YOPC   GL115115   2.258   0.883   5.745 -0.1123 -0.0714  0.2429
 1058YOPC   GL215116   2.272   0.584   5.817  0.1367 -0.1944 -0.0188
 1058YOPC   C1A15117   2.304   1.101   6.146 -0.0771  0.0818  0.1269
 1058YOPC   D2A15118   2.541   1.198   6.472 -0.1104  0.0533  0.0799
 1058YOPC   C3A15119   2.597   0.977   6.781 -0.0360  0.0317  0.1418
 1058YOPC   C4A15120   2.761   0.749   7.129  0.0611 -0.0996  0.1075
 1058YOPC   C1B15121   2.554   0.343   6.145 -0.1444 -0.1096  0.0782
 1058YOPC   C2B15122   2.405   0.116   6.413 -0.0842  0.1690  0.1247
 1058YOPC   D3B15123   2.364  -0.026   6.886 -0.2169  0.0116  0.0817
 1058YOPC   C4B15124   2.367   0.232   7.323 -0.1412  0.2410  0.0357
 1059YOPC   NC315125   0.767  16.777   5.349  0.3693  0.0360  0.2271
 1059YOPC   PO415126   0.694  17.139   5.532 -0.0419  0.1739  0.0247
 1059YOPC   GL115127   0.976  17.239   6.001  0.3491 -0.0785  0.0088
 1059YOPC   GL215128   1.284  17.585   6.027  0.1430  0.2346  0.0539
 1059YOPC   C1A15129   0.812  17.252   6.379  0.1188 -0.2481 -0.1819
 1059YOPC   D2A15130   0.834  17.324   6.817 -0.0880  0.1627 -0.2761
 1059YOPC   C3A15131   0.775  17.467   7.223  0.4155  0.0276 -0.0504
 1059YOPC   C4A15132   0.925  17.305   7.533  0.2960  0.0264  0.1386
 1059YOPC   C1B15133   1.233  17.495   6.460 -0.0350  0.1308  0.2764
 1059YOPC   C2B15134   1.295  17.122   6.655 -0.0271  0.1731  0.0042
 1059YOPC   D3B15135   1.296  17.190   7.055 -0.3083 -0.1534 -0.1843
 1059YOPC   C4B15136   1.400  17.493   7.345  0.1380 -0.1730  0.1831
 1060YOPC   NC315137  17.158   6.416   5.212  0.1847  0.1238 -0.0591
 1060YOPC   PO415138  17.136   6.126   5.481  0.0234  0.0721 -0.0000
 1060YOPC   GL115139  16.882   6.211   5.857 -0.3879  0.0221  0.0460
 1060YOPC   GL215140  16.619   5.977   5.942 -0.1012  0.0824  0.0002
 1060YOPC   C1A15141  16.668   6.399   6.222  0.0785 -0.2312  0.0094
 1060YOPC   D2A15142  16.451   6.668   6.348 -0.0807  0.1182 -0.0727
 1060YOPC   C3A15143  16.466   6.717   6.726  0.3453 -0.3080  0.1957
 1060YOPC   C4A15144  16.303   6.985   6.993  0.0311 -0.1594  0.0938
 1060YOPC   C1B15145  16.792   5.969   6.440  0.3243 -0.0943 -0.0758
 1060YOPC   C2B15146  16.998   6.150   6.808  0.1718  0.4180 -0.2472
 1060YOPC   D3B15147  16.820   6.397   7.053  0.1191  0.0230 -0.4919
 1060YOPC   C4B15148  16.677   6.728   7.277  0.0305 -0.4307  0.1766
 1061YOPC   NC315149  14.947  12.697   5.648 -0.0214  0.3071 -0.6126
 1061YOPC   PO415150  14.569  12.553   5.673 -0.0506  0.0672  0.0349
 1061YOPC   GL115151  14.316  12.384   5.909 -0.0347 -0.0897  0.2590
 1061YOPC   GL215152  14.098  12.655   5.995 -0.0942  0.2848 -0.0259
 1061YOPC   C1A15153  14.219  12.196   6.375 -0.0172 -0.0591  0.0515
 1061YOPC   D2A15154  14.055  11.812   6.555  0.0691  0.1846 -0.4023
 1061YOPC   C3A15155  13.747  11.483   6.777  0.0732 -0.0070  0.3194
 1061YOPC   C4A15156  13.523  11.317   7.004  0.0008  0.2595 -0.4259
 1061YOPC   C1B15157  13.916  12.571   6.391 -0.0517  0.0182 -0.0113
 1061YOPC   C2B15158  13.956  12.347   6.769  0.1623  0.2740 -0.0043
 1061YOPC   D3B15159  14.234  12.476   7.054  0.1209 -0.0295 -0.0470
 1061YOPC   C4B15160  14.657  12.516   7.057 -0.0682 -0.3977 -0.2644
 1062YOPC   NC315161  14.019  13.326   4.878 -0.0794  0.2390  0.2350
 1062YOPC   PO415162  13.919  13.694   5.153  0.3720  0.3642 -0.0791
 1062YOPC   GL115163  13.717  13.640   5.529 -0.2376 -0.1167  0.1277
 1062YOPC   GL215164  13.848  13.770   5.832 -0.3463 -0.0570  0.1255
 1062YOPC   C1A15165  13.405  13.471   5.724  0.0792 -0.0581  0.0566
 1062YOPC   D2A15166  13.477  13.484   6.189  0.0366  0.0511 -0.2071
 1062YOPC   C3A15167  13.279  13.291   6.563 -0.0091  0.1926 -0.3700
 1062YOPC   C4A15168  13.004  13.082   6.866  0.2477 -0.0730  0.0522
 1062YOPC   C1B15169  13.961  13.555   6.176 -0.0256 -0.1752 -0.3867
 1062YOPC   C2B15170  13.744  13.418   6.569 -0.0737  0.2437 -0.2538
 1062YOPC   D3B15171  13.566  13.279   6.997  0.0977 -0.0422 -0.0028
 1062YOPC   C4B15172  13.696  13.257   7.411 -0.1860  0.2050 -0.1893
 1063YOPC   NC315173  15.099   0.282   5.417  0.0529 -0.1155  0.3177
 1063YOPC   PO415174  15.419   0.228   5.197  0.0099 -0.0058  0.0904
 1063YOPC   GL115175  15.624   0.237   5.609 -0.3525  0.1514 -0.2492
 1063YOPC   GL215176  15.797   0.482   5.705  0.0883 -0.2158  0.2475
 1063YOPC   C1A15177  15.515   0.249   6.095  0.2085  0.1856  0.0955
 1063YOPC   D2A15178  15.809   0.297   6.508 -0.1388  0.2123 -0.1897
 1063YOPC   C3A15179  15.575   0.311   6.871 -0.3288 -0.1300  0.4233
 1063YOPC   C4A15180  15.438   0.114   7.257 -0.0740  0.2410 -0.2609
 1063YOPC   C1B15181  16.005   0.149   6.039 -0.0290  0.0620  0.0209
 1063YOPC   C2B15182  16.330   0.224   6.378 -0.3165 -0.1992  0.0101
 1063YOPC   D3B15183  16.068   0.184   6.882 -0.1775  0.0734 -0.0779
 1063YOPC   C4B15184  16.039   0.365   7.306 -0.1603  0.0646 -0.1112
 1064YOPC   NC315185   6.139   3.203   5.916 -0.1897  0.2066  0.0772
 1064YOPC   PO415186   5.814   3.142   5.736  0.3881 -0.1224 -0.1543
 1064YOPC   GL115187   5.766   2.918   6.152 -0.1996  0.0420 -0.1437
 1064YOPC   GL215188   5.997   2.668   6.244  0.2791 -0.0188 -0.2763
 1064YOPC   C1A15189   5.897   3.108   6.581 -0.2079 -0.1477  0.1995
 1064YOPC   D2A15190   6.252   3.225   6.891 -0.0905  0.1867  0.1239
 1064YOPC   C3A15191   6.208   3.249   7.298 -0.1346 -0.1797 -0.0868
 1064YOPC   C4A15192   6.238   3.398   7.722 -0.0165 -0.0284 -0.2537
 1064YOPC   C1B15193   5.796   2.583   6.626 -0.0317  0.1055 -0.1704
 1064YOPC   C2B15194   5.767   2.729   7.049 -0.0835 -0.0975  0.3226
 1064YOPC   D3B15195   5.759   3.068   7.208 -0.0800 -0.2838 -0.2932
 1064YOPC   C4B15196   5.769   3.436   7.513 -0.1246 -0.1919 -0.1685
 1065YOPC   NC315197  14.468  17.417   4.877  0.1460  0.1761  0.0565
 1065YOPC   PO415198  14.551  17.512   5.312  0.2160  0.1175 -0.0439
 1065YOPC   GL115199  14.472  17.560   5.839  0.1724 -0.0981  0.1354
 1065YOPC   GL215200  14.229  17.359   5.997 -0.3120  0.3292  0.0951
 1065YOPC   C1A15201  14.390  17.906   6.100 -0.2042 -0.0071  0.1095
 1065YOPC   D2A15202  14.500  18.297   6.117 -0.2891 -0.1372  0.1980
 1065YOPC   C3A15203  14.346  18.631   6.471 -0.0455 -0.1591  0.1787
 1065YOPC   C4A15204  14.118  18.928   6.840 -0.0857 -0.0795  0.1573
 1065YOPC   C1B15205  14.159  17.067   6.368 -0.2843  0.0791  0.2962
 1065YOPC   C2B15206  13.919  16.816   6.645  0.0890  0.0417  0.0257
 1065YOPC   D3B15207  14.041  16.730   7.032 -0.1553  0.1034  0.1183
 1065YOPC   C4B15208  13.791  16.946   7.427  0.1602 -0.0703 -0.1031
 1066YOPC   NC315209   5.453  15.738   5.293  0.1368  0.2642 -0.1852
 1066YOPC   PO415210   5.632  15.465   5.556  0.0578 -0.1081 -0.0985
 1066YOPC   GL115211   5.884  15.402   5.930  0.0916 -0.2406 -0.2754
 1066YOPC   GL215212   6.121  15.591   6.073  0.2582 -0.1992 -0.0729
 1066YOPC   C1A15213   5.744  15.150   6.227 -0.3535 -0.1909 -0.1417
 1066YOPC   D2A15214   5.646  15.117   6.646 -0.0391  0.0075  0.0282
 1066YOPC   C3A15215   5.408  14.731   6.872 -0.3391  0.2248  0.0953
 1066YOPC   C4A15216   5.115  14.379   7.110  0.1444 -0.0868 -0.0116
 1066YOPC   C1B15217   6.033  15.516   6.606 -0.2447 -0.0293 -0.1236
 1066YOPC   C2B15218   5.852  15.486   7.051  0.0546 -0.0862 -0.1256
 1066YOPC   D3B15219   5.473  15.522   7.357  0.1234  0.0536  0.0047
 1066YOPC   C4B15220   5.084  15.427   7.591 -0.0260  0.0158  0.0883
 1067YOPC   NC315221   6.248   9.435   5.616 -0.1726 -0.1027 -0.0755
 1067YOPC   PO415222   5.791   9.367   5.711  0.1319  0.1574 -0.0931
 1067YOPC   GL115223   5.834   9.587   6.090 -0.2132 -0.0449 -0.0261
 1067YOPC   GL215224   5.744   9.908   6.037 -0.0097 -0.2094  0.1609
 1067YOPC   C1A15225   5.923   9.699   6.525 -0.1393 -0.1631 -0.1375
 1067YOPC   D2A15226   6.103   9.444   6.739  0.1747 -0.0241  0.1720
 1067YOPC   C3A15227   6.237   9.166   7.039 -0.0964  0.2550 -0.3479
 1067YOPC   C4A15228   6.507   9.286   7.317  0.0765 -0.1993 -0.1093
 1067YOPC   C1B15229   6.214  10.146   6.177  0.3686  0.0122 -0.1681
 1067YOPC   C2B15230   6.330  10.402   6.544  0.1553 -0.0017 -0.3303
 1067YOPC   D3B15231   6.755  10.419   6.671  0.0924  0.0352 -0.0551
 1067YOPC   C4B15232   6.900  10.638   7.116 -0.2501 -0.2536  0.2824
 1068YOPC   NC315233  15.149  13.689   5.884 -0.1262  0.0491  0.2714
 1068YOPC   PO415234  15.039  14.092   5.634  0.1032  0.1615  0.4164
 1068YOPC   GL115235  15.064  14.403   6.001  0.2246  0.1287 -0.0153
 1068YOPC   GL215236  15.124  14.747   6.127 -0.1473  0.1834  0.0856
 1068YOPC   C1A15237  15.042  14.216   6.342 -0.1859  0.0609 -0.1249
 1068YOPC   D2A15238  15.185  13.805   6.364 -0.1955  0.0258  0.1125
 1068YOPC   C3A15239  15.689  13.626   6.442  0.1377 -0.0931  0.0148
 1068YOPC   C4A15240  16.129  13.670   6.452 -0.0862 -0.0346 -0.0575
 1068YOPC   C1B15241  14.989  14.619   6.594  0.1457  0.0955  0.0255
 1068YOPC   C2B15242  14.741  14.607   7.037  0.0330  0.0891  0.1176
 1068YOPC   D3B15243  14.483  15.016   7.236  0.0887  0.0024 -0.1905
 1068YOPC   C4B15244  14.545  15.143   7.687  0.5113  0.2534 -0.3469
 1069YOPC   NC315245   9.432  12.666   5.273  0.1082 -0.1718  0.0143
 1069YOPC   PO415246   9.699  12.368   5.471 -0.2302  0.3907 -0.1415
 1069YOPC   GL115247   9.904  12.110   5.745  0.1480  0.4362 -0.2566
 1069YOPC   GL215248   9.871  12.029   6.034 -0.0972  0.0578 -0.2489
 1069YOPC   C1A15249  10.372  11.960   5.907 -0.0238 -0.0199 -0.3033
 1069YOPC   D2A15250  10.617  12.007   6.344  0.1426 -0.0375  0.1015
 1069YOPC   C3A15251  10.641  11.581   6.545  0.2894  0.1540 -0.0492
 1069YOPC   C4A15252  10.665  11.309   6.867 -0.4855  0.0843 -0.1486
 1069YOPC   C1B15253   9.581  11.947   6.228 -0.1406  0.0905  0.2242
 1069YOPC   C2B15254   9.341  11.874   6.619 -0.1743 -0.2012 -0.0278
 1069YOPC   D3B15255   9.353  12.200   6.926  0.2655 -0.1938 -0.0024
 1069YOPC   C4B15256   9.302  12.208   7.343 -0.2253  0.0002 -0.1810
 1070YOPC   NC315257  13.290   5.495   5.246  0.0580  0.0201 -0.1603
 1070YOPC   PO415258  13.412   5.856   5.309 -0.0925 -0.0981 -0.2668
 1070YOPC   GL115259  13.329   5.713   5.825  0.1692  0.0075  0.1633
 1070YOPC   GL215260  13.005   5.544   5.824  0.2029  0.0691 -0.1034
 1070YOPC   C1A15261  13.173   5.686   6.291  0.0560 -0.2919 -0.1149
 1070YOPC   D2A15262  13.089   5.551   6.685 -0.0940  0.2244  0.1299
 1070YOPC   C3A15263  12.772   5.614   6.941 -0.1828  0.1693 -0.0700
 1070YOPC   C4A15264  12.748   6.024   6.881 -0.0979 -0.0103  0.0215
 1070YOPC   C1B15265  12.974   5.236   6.147 -0.2195  0.1639 -0.3667
 1070YOPC   C2B15266  13.091   5.061   6.567  0.4484  0.3000 -0.1059
 1070YOPC   D3B15267  13.146   5.250   7.092 -0.0589  0.1522 -0.0531
 1070YOPC   C4B15268  13.279   5.382   7.504 -0.0467 -0.0058 -0.1500
 1071YOPC   NC315269   6.645  10.158   5.411 -0.6129  0.0368  0.2587
 1071YOPC   PO415270   6.975  10.462   5.594 -0.0129 -0.0408  0.1395
 1071YOPC   GL115271   7.086  10.316   5.958 -0.2555  0.0907  0.1987
 1071YOPC   GL215272   7.402  10.360   5.928  0.0831  0.2368 -0.1413
 1071YOPC   C1A15273   6.978  10.080   6.342  0.0009 -0.0965 -0.1832
 1071YOPC   D2A15274   7.223  10.058   6.731  0.0020 -0.0748  0.0633
 1071YOPC   C3A15275   6.992  10.155   7.015 -0.1487  0.1573 -0.2924
 1071YOPC   C4A15276   6.932  10.280   7.450  0.0716  0.0009 -0.4270
 1071YOPC   C1B15277   7.239  10.537   6.382  0.2541 -0.2523 -0.3146
 1071YOPC   C2B15278   7.252  10.571   6.804  0.0434  0.1100 -0.2855
 1071YOPC   D3B15279   7.254  10.969   7.022  0.0431  0.2116  0.0471
 1071YOPC   C4B15280   7.420  11.238   7.118  0.1327  0.3850  0.2634
 1072YOPC   NC315281   5.390  10.740   5.805 -0.1118 -0.2172 -0.2083
 1072YOPC   PO415282   5.077  10.957   5.933  0.1211  0.1285  0.1108
 1072YOPC   GL115283   5.157  10.862   6.315 -0.0657  0.1269 -0.1445
 1072YOPC   GL215284   4.960  10.659   6.469  0.0445  0.1277 -0.0620
 1072YOPC   C1A15285   5.208  10.918   6.836  0.0624  0.1486  0.0728
 1072YOPC   D2A15286   5.232  11.112   7.241  0.2408  0.1803 -0.2165
 1072YOPC   C3A15287   5.677  11.105   7.432 -0.2464  0.1434 -0.0480
 1072YOPC   C4A15288   6.160  11.254   7.317 -0.1195  0.0454 -0.0933
 1072YOPC   C1B15289   4.787  10.606   6.847 -0.0044 -0.0214  0.1055
 1072YOPC   C2B15290   4.856  10.745   7.250 -0.2225  0.2652 -0.1092
 1072YOPC   D3B15291   4.487  10.842   7.427 -0.0802 -0.3980  0.1058
 1072YOPC   C4B15292   4.165  11.072   7.743  0.1167  0.0662 -0.1072
 1073YOPC   NC315293   4.297   0.264   5.412  0.1043  0.0116 -0.0934
 1073YOPC   PO415294   4.585   0.543   5.757  0.0303  0.3266  0.0817
 1073YOPC   GL115295   4.732   0.594   6.127 -0.0893  0.0249  0.0388
 1073YOPC   GL215296   5.135   0.716   6.078  0.1562  0.3256 -0.2291
 1073YOPC   C1A15297   4.550   0.639   6.514  0.0410  0.3937  0.1630
 1073YOPC   D2A15298   4.706   0.582   6.910  0.3130  0.0428  0.2592
 1073YOPC   C3A15299   4.876   0.184   7.090 -0.2303  0.3255 -0.1797
 1073YOPC   C4A15300   5.027  -0.249   7.112  0.1413  0.1974 -0.3820
 1073YOPC   C1B15301   5.430   0.558   6.449 -0.0823  0.0956 -0.0774
 1073YOPC   C2B15302   5.496   0.594   6.904  0.1389 -0.2585 -0.0496
 1073YOPC   D3B15303   5.132   0.581   7.177 -0.2319 -0.0539 -0.1120
 1073YOPC   C4B15304   4.812   0.919   7.257 -0.0738 -0.0199 -0.3596
 1074YOPC   NC315305   9.025   2.751   5.081 -0.0652 -0.0403  0.1707
 1074YOPC   PO415306   8.845   2.466   5.347 -0.1452 -0.0175  0.5035
 1074YOPC   GL115307   8.786   2.527   5.702  0.2211 -0.0458 -0.2915
 1074YOPC   GL215308   8.488   2.517   5.920  0.1134 -0.1268 -0.2400
 1074YOPC   C1A15309   8.976   2.422   6.107 -0.1552 -0.1791 -0.1918
 1074YOPC   D2A15310   9.201   2.289   6.445 -0.1836 -0.1143  0.1014
 1074YOPC   C3A15311   9.118   2.552   6.914  0.0203 -0.0813 -0.0289
 1074YOPC   C4A15312   9.397   2.563   7.346 -0.1099 -0.0380  0.2116
 1074YOPC   C1B15313   8.461   2.481   6.260 -0.0169 -0.2752 -0.1034
 1074YOPC   C2B15314   8.772   2.350   6.628  0.3278 -0.0632 -0.0351
 1074YOPC   D3B15315   8.650   2.469   7.097  0.1240 -0.4227 -0.0279
 1074YOPC   C4B15316   8.921   2.672   7.370 -0.1541 -0.3255 -0.3284
 1075YOPC   NC315317  13.157   4.114   4.978 -0.0427  0.0586  0.4760
 1075YOPC   PO415318  13.173   3.685   5.261 -0.0416  0.1149 -0.1633
 1075YOPC   GL115319  12.986   3.675   5.582 -0.0047 -0.0955  0.2033
 1075YOPC   GL215320  12.928   3.301   5.720 -0.1369 -0.1314  0.0830
 1075YOPC   C1A15321  12.707   3.731   5.998 -0.0314  0.0280 -0.0043
 1075YOPC   D2A15322  12.531   3.629   6.434 -0.1559 -0.0829  0.1948
 1075YOPC   C3A15323  12.657   3.696   6.828 -0.1279 -0.1439  0.2069
 1075YOPC   C4A15324  12.784   3.324   7.226 -0.0559 -0.2577  0.0106
 1075YOPC   C1B15325  12.785   3.226   6.214 -0.1435 -0.0709  0.2396
 1075YOPC   C2B15326  12.857   3.314   6.563 -0.0182  0.2513  0.1154
 1075YOPC   D3B15327  12.609   3.135   6.758  0.4191 -0.0712  0.2072
 1075YOPC   C4B15328  12.302   2.848   6.675 -0.0615 -0.0001  0.0585
 1076YOPC   NC315329  17.607   8.393   4.645 -0.0655  0.0677 -0.0953
 1076YOPC   PO415330  17.420   8.417   5.021 -0.0217  0.0814  0.1399
 1076YOPC   GL115331  17.136   8.402   5.441  0.0679 -0.0696  0.0985
 1076YOPC   GL215332  16.939   8.131   5.611  0.0209 -0.2621 -0.0525
 1076YOPC   C1A15333  17.089   8.405   5.962  0.0855 -0.0375 -0.1099
 1076YOPC   D2A15334  16.726   8.501   6.224 -0.2500  0.0557 -0.0784
 1076YOPC   C3A15335  16.511   8.898   6.473  0.2841 -0.2600 -0.0480
 1076YOPC   C4A15336  16.151   9.129   6.396 -0.2135  0.1661  0.2975
 1076YOPC   C1B15337  17.171   7.770   5.801  0.0220 -0.0458 -0.1084
 1076YOPC   C2B15338  17.196   7.465   6.121 -0.0236 -0.1983 -0.0561
 1076YOPC   D3B15339  17.413   7.629   6.471  0.1137  0.1231  0.1185
 1076YOPC   C4B15340  17.457   7.947   6.787 -0.0362  0.4688 -0.0585
 1077YOPC   NC315341   9.232  16.317   5.128 -0.2528  0.0050 -0.2377
 1077YOPC   PO415342   9.573  16.177   5.235 -0.0851  0.2137 -0.2289
 1077YOPC   GL115343   9.833  16.068   5.469  0.0430  0.0253  0.1314
 1077YOPC   GL215344   9.851  15.740   5.397  0.2211  0.1823 -0.1118
 1077YOPC   C1A15345  10.155  16.117   5.859 -0.1912  0.0046  0.0048
 1077YOPC   D2A15346  10.624  15.945   5.843 -0.1424 -0.2802 -0.1858
 1077YOPC   C3A15347  10.831  16.174   6.168 -0.0914 -0.3285 -0.1480
 1077YOPC   C4A15348  10.913  16.084   6.555 -0.2138 -0.0667 -0.2175
 1077YOPC   C1B15349  10.233  15.729   5.548  0.2119  0.0668  0.0968
 1077YOPC   C2B15350  10.510  15.470   5.776 -0.1406  0.5166 -0.1684
 1077YOPC   D3B15351  10.343  15.237   6.193 -0.2234 -0.1592 -0.0976
 1077YOPC   C4B15352  10.308  15.347   6.657 -0.3130  0.3206 -0.4460
 1078YOPC   NC315353   6.119  12.416   5.383 -0.0965 -0.0599 -0.2247
 1078YOPC   PO415354   6.397  12.132   5.591  0.0010 -0.0317  0.0087
 1078YOPC   GL115355   6.402  12.455   5.900  0.0311  0.4629  0.2400
 1078YOPC   GL215356   6.708  12.519   6.075 -0.0462  0.0419 -0.1406
 1078YOPC   C1A15357   6.332  12.280   6.304 -0.1240  0.3441  0.5229
 1078YOPC   D2A15358   6.218  12.223   6.716  0.2118 -0.3377  0.1694
 1078YOPC   C3A15359   6.463  12.448   7.033 -0.0826  0.2252  0.1158
 1078YOPC   C4A15360   6.825  12.373   7.422 -0.0510  0.0197  0.0431
 1078YOPC   C1B15361   6.787  12.719   6.500  0.0284  0.2548 -0.4281
 1078YOPC   C2B15362   6.821  12.688   6.872  0.0817 -0.0721 -0.1182
 1078YOPC   D3B15363   6.702  12.819   7.238  0.2937 -0.1120  0.1275
 1078YOPC   C4B15364   6.374  12.706   7.469  0.0893 -0.3984 -0.0028
 1079YOPC   NC315365  11.808   8.643   5.127 -0.0280  0.1451 -0.2085
 1079YOPC   PO415366  12.017   8.529   5.485 -0.1801 -0.0964 -0.1785
 1079YOPC   GL115367  11.945   8.314   5.841  0.0868 -0.1624  0.2069
 1079YOPC   GL215368  12.221   8.130   6.058 -0.2419 -0.2436  0.0215
 1079YOPC   C1A15369  11.953   8.442   6.238 -0.2462  0.0842  0.0298
 1079YOPC   D2A15370  11.870   8.497   6.671  0.0380 -0.0544 -0.0586
 1079YOPC   C3A15371  12.211   8.438   6.926  0.1150  0.2083 -0.0878
 1079YOPC   C4A15372  12.545   8.716   6.871 -0.1485 -0.1636 -0.1031
 1079YOPC   C1B15373  12.565   7.926   6.261 -0.1643 -0.3056 -0.0094
 1079YOPC   C2B15374  12.696   7.717   6.638 -0.3029  0.1513  0.1369
 1079YOPC   D3B15375  12.663   7.857   7.085 -0.1185  0.1878 -0.0397
 1079YOPC   C4B15376  12.524   8.223   7.312 -0.1967 -0.1008  0.0057
 1080YOPC   NC315377   0.940  12.934   5.959  0.1640  0.1778 -0.2970
 1080YOPC   PO415378   0.887  13.302   5.693 -0.1590 -0.0940 -0.2566
 1080YOPC   GL115379   0.871  13.383   6.174 -0.2704 -0.1991 -0.2433
 1080YOPC   GL215380   0.707  13.128   6.335  0.3034 -0.1276 -0.0453
 1080YOPC   C1A15381   1.119  13.386   6.471  0.0868 -0.1708 -0.4011
 1080YOPC   D2A15382   1.282  13.039   6.631  0.0538  0.1782  0.3970
 1080YOPC   C3A15383   1.256  13.198   7.074  0.1891  0.2492  0.0528
 1080YOPC   C4A15384   1.412  13.178   7.507  0.4386  0.0631  0.1885
 1080YOPC   C1B15385   0.767  13.041   6.762  0.2082 -0.0894 -0.1441
 1080YOPC   C2B15386   0.639  13.172   7.140 -0.1633 -0.1742 -0.0057
 1080YOPC   D3B15387   0.327  13.005   7.393  0.2227 -0.2585  0.1307
 1080YOPC   C4B15388   0.032  13.085   7.725  0.2752 -0.0213 -0.0975
 1081YOPC   NC315389   7.354  13.816   5.403 -0.0351 -0.0938  0.0046
 1081YOPC   PO415390   6.930  14.078   5.414 -0.2810  0.0058 -0.1025
 1081YOPC   GL115391   7.067  14.027   5.819 -0.0176 -0.0696  0.2290
 1081YOPC   GL215392   7.301  14.000   5.863 -0.1569 -0.1363  0.2898
 1081YOPC   C1A15393   6.844  14.132   6.166  0.0917  0.0733 -0.0701
 1081YOPC   D2A15394   6.813  14.270   6.560  0.3928  0.3040  0.1373
 1081YOPC   C3A15395   6.974  14.459   6.865  0.1296 -0.2919 -0.1438
 1081YOPC   C4A15396   6.835  14.731   7.216  0.2473  0.0672  0.3755
 1081YOPC   C1B15397   7.309  14.322   6.232  0.3376 -0.1291 -0.1615
 1081YOPC   C2B15398   7.339  14.606   6.487  0.0988 -0.2809 -0.0662
 1081YOPC   D3B15399   7.293  14.988   6.309 -0.0198 -0.2484 -0.1861
 1081YOPC   C4B15400   7.418  15.192   6.026 -0.0339 -0.1146  0.1860
 1082YOPC   NC315401  11.186  17.858   4.915  0.1555  0.0326 -0.0341
 1082YOPC   PO415402  11.178  18.168   5.078  0.1369  0.0813 -0.2827
 1082YOPC   GL115403  11.072  18.255   5.518  0.0503 -0.0176  0.0565
 1082YOPC   GL215404  11.289  18.364   5.737 -0.1675 -0.1658  0.3380
 1082YOPC   C1A15405  10.710  18.320   5.796  0.4302  0.0561  0.0650
 1082YOPC   D2A15406  10.507  18.368   6.151 -0.0824  0.0020  0.1110
 1082YOPC   C3A15407  10.213  18.136   6.315 -0.1201  0.0403  0.0573
 1082YOPC   C4A15408   9.858  17.884   6.473 -0.2135 -0.0422  0.1050
 1082YOPC   C1B15409  11.489  18.582   6.072  0.5174  0.0812 -0.0536
 1082YOPC   C2B15410  11.388  18.858   6.380  0.2495 -0.0798 -0.2374
 1082YOPC   D3B15411  11.594  19.055   6.647  0.0840  0.1479 -0.2995
 1082YOPC   C4B15412  11.785  19.181   6.923 -0.1591  0.0201 -0.1739
 1083YOPC   NC315413  10.304   7.133   5.333  0.1681  0.2435  0.0594
 1083YOPC   PO415414  10.065   7.304   5.621 -0.1515 -0.1726  0.4661
 1083YOPC   GL115415   9.954   7.134   6.058 -0.3178  0.0134 -0.0396
 1083YOPC   GL215416  10.205   7.208   6.225  0.0792 -0.2305 -0.2401
 1083YOPC   C1A15417   9.905   7.070   6.550  0.1184  0.4458  0.1322
 1083YOPC   D2A15418  10.149   7.069   6.840 -0.1473  0.2704 -0.4447
 1083YOPC   C3A15419   9.930   6.967   7.276  0.1865 -0.0470 -0.1107
 1083YOPC   C4A15420   9.553   6.757   7.490  0.1382  0.0831  0.2347
 1083YOPC   C1B15421  10.295   6.817   6.356 -0.0016  0.0666 -0.0893
 1083YOPC   C2B15422  10.219   6.417   6.518  0.1410 -0.1619 -0.0838
 1083YOPC   D3B15423  10.349   6.082   6.715 -0.1603  0.3317  0.2402
 1083YOPC   C4B15424  10.691   5.712   6.638  0.0784  0.0177  0.1293
 1084YOPC   NC315425   2.511   6.067   5.197 -0.1847 -0.2544  0.3726
 1084YOPC   PO415426   2.287   6.079   5.591 -0.2290  0.0109  0.2269
 1084YOPC   GL115427   2.257   6.210   6.004  0.4497  0.2097  0.0837
 1084YOPC   GL215428   2.450   6.381   6.191  0.1402  0.0335  0.1782
 1084YOPC   C1A15429   1.943   6.356   6.199 -0.2984 -0.2650 -0.3497
 1084YOPC   D2A15430   1.551   6.335   6.567  0.0546  0.0069  0.1677
 1084YOPC   C3A15431   1.324   5.956   6.668  0.1565 -0.0597  0.0418
 1084YOPC   C4A15432   1.086   5.711   6.995  0.0557 -0.1765 -0.1727
 1084YOPC   C1B15433   2.347   6.496   6.592  0.1892  0.3190 -0.2655
 1084YOPC   C2B15434   2.485   6.549   6.942 -0.4889  0.1423  0.0703
 1084YOPC   D3B15435   2.320   6.442   7.355  0.1866  0.2485 -0.0203
 1084YOPC   C4B15436   2.396   6.125   7.645  0.1939 -0.2980 -0.0531
 1085YOPC   NC315437   2.397   4.578   5.910 -0.1381  0.0380 -0.3083
 1085YOPC   PO415438   2.579   4.901   5.969  0.0292 -0.1670  0.0845
 1085YOPC   GL115439   2.404   4.897   6.407 -0.1150  0.1068 -0.2241
 1085YOPC   GL215440   2.196   5.129   6.537 -0.1310 -0.1900  0.0161
 1085YOPC   C1A15441   2.495   4.884   6.838  0.0617  0.1003 -0.1295
 1085YOPC   D2A15442   2.632   5.094   7.113 -0.2293  0.0830 -0.0394
 1085YOPC   C3A15443   2.488   5.454   7.245  0.1943 -0.2416  0.2155
 1085YOPC   C4A15444   2.465   5.809   7.277 -0.1143 -0.4140  0.3745
 1085YOPC   C1B15445   1.966   5.243   6.986  0.1346 -0.0534  0.0562
 1085YOPC   C2B15446   1.984   5.681   7.184 -0.1183 -0.4038  0.1360
 1085YOPC   D3B15447   1.960   5.741   7.603  0.0515 -0.2440  0.1237
 1085YOPC   C4B15448   2.094   5.888   7.997 -0.0322  0.0704  0.1042
 1086YOPC   NC315449  15.568  12.134   5.505 -0.1578 -0.3026 -0.2477
 1086YOPC   PO415450  15.326  12.422   5.429 -0.2432 -0.0573 -0.1161
 1086YOPC   GL115451  15.413  12.497   5.892 -0.1314 -0.0657  0.2038
 1086YOPC   GL215452  15.303  12.782   6.026 -0.4191  0.1855 -0.0589
 1086YOPC   C1A15453  15.530  12.493   6.343 -0.1840 -0.0486  0.1417
 1086YOPC   D2A15454  15.406  12.496   6.795  0.0055  0.3167  0.1918
 1086YOPC   C3A15455  15.086  12.349   7.126  0.3038  0.1827 -0.2344
 1086YOPC   C4A15456  14.819  12.056   7.136 -0.0386 -0.2166  0.1661
 1086YOPC   C1B15457  15.102  12.833   6.386  0.1176  0.1645  0.1955
 1086YOPC   C2B15458  14.977  12.606   6.635 -0.0256 -0.0847  0.0797
 1086YOPC   D3B15459  15.063  12.919   6.991  0.2477  0.0356  0.3506
 1086YOPC   C4B15460  15.437  13.104   7.172  0.1310  0.3874 -0.0611
 1087YOPC   NC315461  14.030   0.273   5.290 -0.0368  0.1958  0.2183
 1087YOPC   PO415462  13.595   0.394   5.329  0.1414 -0.1729 -0.1221
 1087YOPC   GL115463  13.572   0.354   5.761 -0.1450  0.2494  0.0258
 1087YOPC   GL215464  13.657  -0.027   5.710 -0.2190 -0.0039  0.0374
 1087YOPC   C1A15465  13.876   0.345   6.053  0.1426  0.0497  0.0340
 1087YOPC   D2A15466  14.265   0.173   6.168 -0.3002 -0.2211 -0.0778
 1087YOPC   C3A15467  14.421   0.241   6.545 -0.2574 -0.1022  0.3230
 1087YOPC   C4A15468  14.590   0.350   6.908 -0.0471 -0.2427  0.4119
 1087YOPC   C1B15469  13.565  -0.496   6.048  0.1694 -0.0396 -0.2128
 1087YOPC   C2B15470  13.547  -0.560   6.399 -0.1830  0.0585 -0.2203
 1087YOPC   D3B15471  13.725  -0.398   6.661  0.2069  0.0298 -0.0528
 1087YOPC   C4B15472  13.561  -0.456   7.023  0.1051 -0.0298  0.0134
 1088YOPC   NC315473   9.656  10.058   5.288 -0.1581  0.1415  0.3720
 1088YOPC   PO415474   9.462   9.695   5.428 -0.1250  0.1001  0.0654
 1088YOPC   GL115475   9.527   9.928   5.825 -0.1395  0.0917  0.2643
 1088YOPC   GL215476   9.456   9.767   6.022 -0.2410 -0.1826  0.4413
 1088YOPC   C1A15477   9.833  10.044   6.134  0.0628 -0.1071  0.0576
 1088YOPC   D2A15478  10.299  10.259   6.116 -0.0317 -0.1863 -0.0832
 1088YOPC   C3A15479  10.771  10.425   6.393 -0.0352 -0.1062 -0.3702
 1088YOPC   C4A15480  10.685  10.557   6.764 -0.1254 -0.1060 -0.1414
 1088YOPC   C1B15481   9.496   9.701   6.450  0.0936 -0.0600 -0.1765
 1088YOPC   C2B15482   9.443   9.748   6.775 -0.0844  0.1172 -0.1420
 1088YOPC   D3B15483   9.110   9.624   7.074  0.3896  0.3598  0.0445
 1088YOPC   C4B15484   9.045   9.332   7.401  0.2298  0.1596  0.0066
 1089YOPC   NC315485   5.062   8.833   5.724  0.1296 -0.1462  0.1830
 1089YOPC   PO415486   5.383   9.083   5.611  0.1163 -0.2221  0.0261
 1089YOPC   GL115487   5.449   9.191   6.016  0.1585 -0.1766 -0.0124
 1089YOPC   GL215488   5.226   9.395   6.245 -0.2806  0.1901 -0.0834
 1089YOPC   C1A15489   5.628   9.321   6.488  0.3282  0.0550 -0.0129
 1089YOPC   D2A15490   5.721   9.203   6.978  0.0327 -0.1702  0.0560
 1089YOPC   C3A15491   5.934   9.560   7.213  0.1188 -0.3292 -0.2419
 1089YOPC   C4A15492   6.289   9.725   7.305  0.1456  0.1316  0.0825
 1089YOPC   C1B15493   5.175   9.192   6.745  0.1430  0.0613  0.3666
 1089YOPC   C2B15494   5.190   9.229   7.147  0.4344  0.0591 -0.0965
 1089YOPC   D3B15495   5.297   8.849   7.371  0.2178 -0.1037 -0.0704
 1089YOPC   C4B15496   5.380   8.414   7.605 -0.1278  0.0498  0.1914
 1090YOPC   NC315497  15.590   6.578   5.175 -0.0768  0.2372  0.4902
 1090YOPC   PO415498  15.598   6.513   5.620 -0.0883  0.1162  0.0128
 1090YOPC   GL115499  15.474   6.615   6.012  0.1425 -0.1921  0.1756
 1090YOPC   GL215500  15.260   6.822   6.160 -0.1961 -0.1561 -0.1673
 1090YOPC   C1A15501  15.195   6.313   6.312 -0.0407 -0.3816  0.2083
 1090YOPC   D2A15502  14.836   6.128   6.389  0.0718  0.3992  0.3644
 1090YOPC   C3A15503  14.569   5.967   6.809 -0.2400 -0.1123 -0.0770
 1090YOPC   C4A15504  14.584   6.247   7.302  0.2890  0.0457  0.0436
 1090YOPC   C1B15505  14.906   6.807   6.366  0.0680  0.1129  0.0655
 1090YOPC   C2B15506  14.918   6.632   6.751  0.2130 -0.0290  0.1360
 1090YOPC   D3B15507  15.015   6.284   6.834  0.2256 -0.0668  0.1291
 1090YOPC   C4B15508  15.019   5.995   7.170  0.1479  0.1380  0.3962
 1091YOPC   NC315509  16.385  18.652   5.277 -0.2190 -0.1787 -0.0923
 1091YOPC   PO415510  16.019  18.438   5.239  0.0904 -0.2508 -0.2301
 1091YOPC   GL115511  16.158  18.500   5.704 -0.2107  0.0504  0.0873
 1091YOPC   GL215512  16.119  18.252   5.862  0.4793  0.5350 -0.2111
 1091YOPC   C1A15513  16.387  18.636   6.076 -0.0393  0.2706 -0.2178
 1091YOPC   D2A15514  16.263  18.572   6.515  0.0374 -0.2815  0.2492
 1091YOPC   C3A15515  16.406  18.576   6.917 -0.2970 -0.2538  0.3306
 1091YOPC   C4A15516  16.240  18.247   7.143 -0.1291  0.0856  0.0546
 1091YOPC   C1B15517  15.891  18.241   6.274 -0.3227  0.3286 -0.1253
 1091YOPC   C2B15518  15.917  18.253   6.727  0.0783 -0.2839 -0.1623
 1091YOPC   D3B15519  15.622  18.179   6.867  0.1084  0.2437 -0.2230
 1091YOPC   C4B15520  15.621  17.951   7.295 -0.2148 -0.1548  0.0088
 1092YOPC   NC315521   8.746   7.033   5.364 -0.1920  0.0892  0.0065
 1092YOPC   PO415522   8.954   6.777   5.599  0.5118  0.0119  0.2398
 1092YOPC   GL115523   9.145   6.711   5.977  0.3583 -0.2124  0.0025
 1092YOPC   GL215524   9.399   7.076   6.088 -0.1340  0.0912 -0.1342
 1092YOPC   C1A15525   8.886   6.900   6.381 -0.0500 -0.1754  0.0017
 1092YOPC   D2A15526   8.666   6.830   6.686  0.3976  0.0084 -0.0251
 1092YOPC   C3A15527   8.590   7.186   6.955 -0.0847 -0.1235  0.0721
 1092YOPC   C4A15528   8.806   7.487   7.137  0.1809  0.1857 -0.1228
 1092YOPC   C1B15529   9.204   7.463   6.164  0.0131  0.0754 -0.0391
 1092YOPC   C2B15530   8.867   7.434   6.502 -0.1049 -0.0605  0.2011
 1092YOPC   D3B15531   8.514   7.306   6.418  0.2556  0.2191 -0.2501
 1092YOPC   C4B15532   8.175   7.120   6.674 -0.1610  0.1477 -0.3628
 1093YOPC   NC315533   6.875  12.329   5.677 -0.0673  0.1965  0.0719
 1093YOPC   PO415534   7.207  12.093   5.715 -0.4505  0.2137  0.4225
 1093YOPC   GL115535   7.295  11.760   6.023 -0.2429 -0.0860 -0.2138
 1093YOPC   GL215536   7.680  11.654   6.005  0.0011  0.0328  0.0536
 1093YOPC   C1A15537   7.021  11.796   6.404 -0.2420  0.3204 -0.2590
 1093YOPC   D2A15538   6.661  12.024   6.688  0.5045 -0.0827 -0.1464
 1093YOPC   C3A15539   6.627  11.929   7.143 -0.0305 -0.1039 -0.3151
 1093YOPC   C4A15540   6.370  12.178   7.476 -0.1731  0.3036  0.0349
 1093YOPC   C1B15541   7.505  11.776   6.530 -0.3958 -0.2365 -0.0507
 1093YOPC   C2B15542   7.505  11.697   6.974  0.0149 -0.3913 -0.0562
 1093YOPC   D3B15543   7.843  11.561   7.245 -0.0722 -0.2977 -0.1428
 1093YOPC   C4B15544   8.274  11.352   7.345  0.0604  0.3384  0.1270
 1094YOPC   NC315545  18.486  10.701   5.646  0.0940 -0.1565  0.1380
 1094YOPC   PO415546  18.846  10.775   5.634  0.0743  0.0914 -0.1850
 1094YOPC   GL115547  18.870  10.519   5.923 -0.2745  0.0571 -0.1536
 1094YOPC   GL215548  18.662  10.716   6.115  0.0361 -0.0912  0.2816
 1094YOPC   C1A15549  19.010  10.403   6.358 -0.2065 -0.0639 -0.0026
 1094YOPC   D2A15550  19.044  10.483   6.792  0.2212  0.0194 -0.1217
 1094YOPC   C3A15551  18.655  10.532   7.158 -0.1833  0.1614  0.1158
 1094YOPC   C4A15552  18.222  10.778   6.933 -0.1572  0.0764  0.0677
 1094YOPC   C1B15553  18.272  10.735   6.424  0.0727 -0.1424  0.2606
 1094YOPC   C2B15554  17.906  10.928   6.443  0.0916 -0.0496 -0.2891
 1094YOPC   D3B15555  17.827  11.026   6.799 -0.0000 -0.1755  0.3950
 1094YOPC   C4B15556  17.871  11.439   6.903  0.2711  0.1611 -0.1281
 1095YOPC   NC315557   9.524  17.261   5.078  0.3367  0.0630  0.1269
 1095YOPC   PO415558   9.720  17.065   5.370 -0.0446 -0.1888 -0.1387
 1095YOPC   GL115559   9.555  17.257   5.789  0.2062  0.1402 -0.2270
 1095YOPC   GL215560   9.449  17.553   5.822 -0.0177  0.2401  0.2148
 1095YOPC   C1A15561   9.724  16.998   6.129  0.2378 -0.0979 -0.0221
 1095YOPC   D2A15562   9.857  16.711   6.406  0.1139 -0.3209  0.0491
 1095YOPC   C3A15563  10.006  16.894   6.830 -0.0995 -0.1396 -0.0287
 1095YOPC   C4A15564  10.176  17.086   7.279  0.1186 -0.0741  0.2951
 1095YOPC   C1B15565   9.660  17.463   6.254  0.1020  0.3702 -0.1066
 1095YOPC   C2B15566  10.045  17.335   6.462 -0.1633  0.0766  0.3285
 1095YOPC   D3B15567   9.985  17.511   6.814 -0.2626  0.2158 -0.1711
 1095YOPC   C4B15568   9.799  17.615   7.203 -0.2335 -0.1780  0.1696
 1096YOPC   NC315569   8.984   9.560   5.357  0.1206 -0.1925 -0.0669
 1096YOPC   PO415570   9.211   9.284   5.633 -0.1616 -0.2196 -0.0919
 1096YOPC   GL115571   9.268   9.212   6.075 -0.0504  0.1281  0.0822
 1096YOPC   GL215572   9.363   8.893   6.064  0.1907 -0.1315  0.0781
 1096YOPC   C1A15573   9.236   9.248   6.537 -0.3861  0.2445 -0.1072
 1096YOPC   D2A15574   9.245   9.124   6.997 -0.3760 -0.4466 -0.2410
 1096YOPC   C3A15575   9.512   9.429   7.179  0.0761 -0.1708  0.1331
 1096YOPC   C4A15576   9.409   9.620   7.530  0.0999  0.1535 -0.0451
 1096YOPC   C1B15577   8.921   8.860   6.320  0.2262  0.0002 -0.0376
 1096YOPC   C2B15578   8.865   8.783   6.702  0.0372  0.0149 -0.0958
 1096YOPC   D3B15579   8.938   8.397   6.827 -0.3308 -0.2604 -0.0771
 1096YOPC   C4B15580   9.230   8.202   6.878 -0.1628 -0.1179  0.2781
 1097YOPC   NC315581   7.503  12.124   5.319 -0.0912  0.1929 -0.0858
 1097YOPC   PO415582   7.941  12.320   5.443  0.5318 -0.1879  0.3665
 1097YOPC   GL115583   8.108  12.469   5.825 -0.0996  0.1522  0.1053
 1097YOPC   GL215584   8.370  12.759   5.883  0.0396 -0.0384 -0.0625
 1097YOPC   C1A15585   8.253  12.371   6.214 -0.2138 -0.1274 -0.4000
 1097YOPC   D2A15586   8.494  12.152   6.508  0.2253  0.1280  0.2780
 1097YOPC   C3A15587   8.825  11.886   6.457 -0.1825  0.0202 -0.1281
 1097YOPC   C4A15588   9.139  11.868   6.064 -0.0760  0.1461 -0.2149
 1097YOPC   C1B15589   8.221  12.842   6.244  0.0018 -0.2324 -0.1495
 1097YOPC   C2B15590   8.163  12.587   6.657 -0.0228  0.0492  0.0900
 1097YOPC   D3B15591   8.285  12.929   7.107  0.1501  0.1262 -0.2465
 1097YOPC   C4B15592   8.528  12.769   7.518 -0.1395 -0.0892  0.4440
 1098YOPC   NC315593  14.416   2.066   5.428  0.0256  0.0677  0.1263
 1098YOPC   PO415594  14.644   2.457   5.235 -0.0665  0.0550 -0.0359
 1098YOPC   GL115595  14.869   2.451   5.637  0.2439  0.1249  0.2271
 1098YOPC   GL215596  15.149   2.662   5.585 -0.1382 -0.1083 -0.2924
 1098YOPC   C1A15597  14.966   2.294   6.101  0.1979 -0.1301 -0.2397
 1098YOPC   D2A15598  15.092   2.313   6.532 -0.0743 -0.0297 -0.1533
 1098YOPC   C3A15599  15.302   2.649   6.760  0.3400 -0.1997  0.0326
 1098YOPC   C4A15600  15.115   2.969   7.036  0.0407  0.1166  0.1028
 1098YOPC   C1B15601  15.377   2.534   6.035 -0.0907 -0.0523  0.0000
 1098YOPC   C2B15602  15.612   2.305   6.360  0.0110 -0.1355  0.0473
 1098YOPC   D3B15603  15.976   2.049   6.533  0.0869 -0.1189  0.1517
 1098YOPC   C4B15604  16.321   2.059   6.869 -0.2245  0.0616  0.0988
 1099YOPC   NC315605  17.210  17.383   5.583 -0.1789  0.0271 -0.1498
 1099YOPC   PO415606  17.595  17.269   5.533 -0.1061  0.4369 -0.0078
 1099YOPC   GL115607  17.682  17.156   5.966  0.0550  0.2232 -0.0291
 1099YOPC   GL215608  17.938  16.939   5.989  0.3290 -0.0415 -0.1533
 1099YOPC   C1A15609  17.669  16.900   6.380 -0.1644 -0.0082  0.2484
 1099YOPC   D2A15610  17.705  16.723   6.726 -0.1543 -0.0728  0.1242
 1099YOPC   C3A15611  17.777  16.283   6.808 -0.0487 -0.4891 -0.1199
 1099YOPC   C4A15612  17.795  15.945   6.573  0.1170 -0.0510 -0.0100
 1099YOPC   C1B15613  18.152  16.913   6.457  0.1398 -0.0736  0.3565
 1099YOPC   C2B15614  18.438  16.693   6.663 -0.0636 -0.1550 -0.1456
 1099YOPC   D3B15615  18.705  16.798   6.942 -0.1100  0.1533  0.1905
 1099YOPC   C4B15616  18.989  16.950   7.246 -0.0762 -0.0014  0.0676
 1100YOPC   NC315617  17.840   3.759   5.600  0.2684 -0.3164  0.2809
 1100YOPC   PO415618  17.407   3.567   5.529  0.1311  0.0981  0.3007
 1100YOPC   GL115619  17.316   3.424   5.958  0.0384 -0.5044  0.1562
 1100YOPC   GL215620  17.005   3.429   6.068 -0.0459  0.0145 -0.1682
 1100YOPC   C1A15621  17.337   3.668   6.290 -0.1311 -0.3685 -0.3590
 1100YOPC   D2A15622  17.222   3.691   6.776  0.2429 -0.0997 -0.3595
 1100YOPC   C3A15623  16.857   3.624   7.065 -0.1498  0.3152 -0.3363
 1100YOPC   C4A15624  16.514   3.502   7.252  0.1876 -0.3023  0.0680
 1100YOPC   C1B15625  16.972   3.327   6.506  0.1819 -0.1144  0.0682
 1100YOPC   C2B15626  17.072   3.189   6.873  0.0339 -0.1488 -0.0092
 1100YOPC   D3B15627  16.835   2.805   7.030 -0.2200 -0.2380  0.0982
 1100YOPC   C4B15628  16.805   2.504   7.420  0.0186  0.1415 -0.3400
 1101YOPC   NC315629  13.535   1.955   5.236  0.0124  0.5231  0.1106
 1101YOPC   PO415630  13.142   2.377   5.138  0.2085  0.0026  0.2378
 1101YOPC   GL115631  13.064   2.646   5.436  0.3539  0.0482 -0.0444
 1101YOPC   GL215632  12.790   2.424   5.584  0.0540  0.0302  0.0074
 1101YOPC   C1A15633  13.128   2.753   5.832  0.4981  0.0772 -0.0041
 1101YOPC   D2A15634  13.274   2.598   6.260  0.2095 -0.4470 -0.7332
 1101YOPC   C3A15635  13.194   2.818   6.623  0.1822 -0.0701 -0.0889
 1101YOPC   C4A15636  13.371   3.018   6.975 -0.0969  0.0697  0.1459
 1101YOPC   C1B15637  12.614   2.685   5.812 -0.2102 -0.0032 -0.0568
 1101YOPC   C2B15638  12.709   2.783   6.257  0.1208 -0.2572 -0.1109
 1101YOPC   D3B15639  12.898   2.426   6.587 -0.1115  0.4133  0.2101
 1101YOPC   C4B15640  12.833   1.981   6.497  0.2967 -0.0618  0.1315
 1102YOPC   NC315641  18.326  14.758   5.545 -0.2613  0.1380  0.0171
 1102YOPC   PO415642  18.484  15.098   5.594 -0.0744  0.2022 -0.0847
 1102YOPC   GL115643  18.741  15.047   5.937 -0.1283 -0.3421  0.0145
 1102YOPC   GL215644  18.856  15.362   5.929  0.1152 -0.0191 -0.0183
 1102YOPC   C1A15645  18.813  14.916   6.341 -0.3043  0.2557 -0.0966
 1102YOPC   D2A15646  18.710  14.953   6.690  0.2454  0.2092  0.1248
 1102YOPC   C3A15647  18.263  14.797   6.652  0.1541  0.0635  0.1148
 1102YOPC   C4A15648  18.106  14.521   6.370  0.1992  0.1503  0.0087
 1102YOPC   C1B15649  18.756  15.442   6.450 -0.2847 -0.1547  0.1406
 1102YOPC   C2B15650  18.629  15.524   6.826 -0.1361  0.1225  0.0493
 1102YOPC   D3B15651  18.352  15.230   7.062  0.5376  0.0146  0.3023
 1102YOPC   C4B15652  18.392  15.069   7.325  0.1156  0.0120 -0.2046
 1103YOPC   NC315653  17.952  16.942   5.463 -0.1654 -0.4099  0.0937
 1103YOPC   PO415654  18.274  17.116   5.307 -0.3521 -0.1295  0.0846
 1103YOPC   GL115655  18.355  16.936   5.740  0.1862 -0.1876 -0.1018
 1103YOPC   GL215656  18.552  17.104   5.880  0.0639  0.3094  0.0829
 1103YOPC   C1A15657  18.419  16.597   6.030  0.0200 -0.0790  0.1847
 1103YOPC   D2A15658  18.494  16.262   6.287  0.2747 -0.2252 -0.2830
 1103YOPC   C3A15659  18.242  16.131   6.658 -0.0801 -0.0888  0.0220
 1103YOPC   C4A15660  18.227  15.975   7.045 -0.3232 -0.1785  0.0137
 1103YOPC   C1B15661  18.572  17.246   6.328 -0.0628 -0.2085 -0.0387
 1103YOPC   C2B15662  18.397  17.252   6.865  0.1566  0.0077 -0.0142
 1103YOPC   D3B15663  18.673  17.464   7.150 -0.1861  0.1735 -0.1653
 1103YOPC   C4B15664  18.911  17.364   7.476 -0.3399 -0.1803  0.0729
 1104YOPC   NC315665  11.867   6.843   5.394 -0.0240  0.2580 -0.1270
 1104YOPC   PO415666  11.966   7.066   5.758  0.0927  0.2351 -0.2414
 1104YOPC   GL115667  12.305   7.022   6.094  0.4963  0.2698 -0.0124
 1104YOPC   GL215668  12.502   7.202   5.932  0.3625  0.1944 -0.1036
 1104YOPC   C1A15669  12.557   6.686   6.227  0.0317  0.0568  0.2073
 1104YOPC   D2A15670  12.699   6.353   6.451  0.0257  0.0879  0.2249
 1104YOPC   C3A15671  12.868   6.057   6.399 -0.0340  0.1953 -0.0983
 1104YOPC   C4A15672  12.702   5.628   6.308  0.0339 -0.2159  0.1663
 1104YOPC   C1B15673  12.823   7.320   6.287 -0.1089 -0.2451 -0.0718
 1104YOPC   C2B15674  13.004   7.173   6.617 -0.2134  0.2448  0.1704
 1104YOPC   D3B15675  12.817   7.357   6.974  0.1330 -0.0030 -0.1168
 1104YOPC   C4B15676  12.532   7.283   7.404 -0.3621 -0.1113 -0.1563
 1105YOPC   NC315677   3.027  15.536   5.451  0.2344 -0.3512  0.0581
 1105YOPC   PO415678   3.428  15.726   5.533 -0.1653 -0.0902  0.1405
 1105YOPC   GL115679   3.660  15.775   5.874  0.3436 -0.1988 -0.1087
 1105YOPC   GL215680   3.894  15.815   5.767 -0.2112  0.0195 -0.2759
 1105YOPC   C1A15681   3.819  15.784   6.254  0.2308  0.1631  0.3989
 1105YOPC   D2A15682   3.955  15.588   6.575 -0.1178  0.2690 -0.0019
 1105YOPC   C3A15683   3.872  15.263   6.731  0.3525 -0.0672  0.0763
 1105YOPC   C4A15684   3.518  15.161   6.805  0.1851  0.1454  0.0800
 1105YOPC   C1B15685   4.080  15.524   5.980  0.0377  0.1498 -0.3888
 1105YOPC   C2B15686   3.943  15.190   6.235 -0.1620  0.0534 -0.1194
 1105YOPC   D3B15687   3.560  15.078   6.238 -0.1092 -0.1254  0.2551
 1105YOPC   C4B15688   3.115  15.107   6.406  0.0477  0.4256  0.0701
 1106YOPC   NC315689  17.414   3.082   5.451 -0.3951 -0.1559 -0.0907
 1106YOPC   PO415690  16.895   3.022   5.693  0.0770 -0.1599 -0.0309
 1106YOPC   GL115691  16.590   3.184   5.865  0.0042 -0.0954 -0.2706
 1106YOPC   GL215692  16.386   2.982   5.891  0.4880  0.1431 -0.0367
 1106YOPC   C1A15693  16.545   3.281   6.268 -0.0168  0.1309  0.0162
 1106YOPC   D2A15694  16.562   3.411   6.746  0.5847 -0.0751 -0.0954
 1106YOPC   C3A15695  16.296   3.781   6.824 -0.0912 -0.1634 -0.2612
 1106YOPC   C4A15696  16.034   4.076   6.923 -0.0008 -0.0021  0.1174
 1106YOPC   C1B15697  16.132   3.078   6.237  0.1409  0.2374  0.0939
 1106YOPC   C2B15698  16.135   3.489   6.433 -0.1483  0.3237 -0.3049
 1106YOPC   D3B15699  15.832   3.587   6.848  0.0765  0.2309  0.2564
 1106YOPC   C4B15700  15.525   3.514   7.053  0.3418 -0.0350 -0.0399
 1107YOPC   NC315701  13.206  14.971   5.321 -0.2545  0.2372  0.0333
 1107YOPC   PO415702  12.983  15.323   5.351 -0.0664 -0.0907  0.0122
 1107YOPC   GL115703  12.998  15.340   5.712 -0.0033  0.1565  0.1220
 1107YOPC   GL215704  12.815  15.201   5.865 -0.0437 -0.0176  0.3686
 1107YOPC   C1A15705  13.210  15.551   5.947  0.2891  0.2413  0.0406
 1107YOPC   D2A15706  13.431  15.880   6.270 -0.2581  0.0868 -0.1769
 1107YOPC   C3A15707  13.176  16.193   6.581 -0.2629 -0.0607  0.1123
 1107YOPC   C4A15708  13.070  16.436   6.989 -0.2735  0.0069 -0.0701
 1107YOPC   C1B15709  12.848  15.411   6.242  0.1613  0.2431  0.1021
 1107YOPC   C2B15710  12.975  15.712   6.471 -0.0942 -0.0153 -0.1912
 1107YOPC   D3B15711  12.877  15.859   6.889 -0.1683  0.1960  0.0736
 1107YOPC   C4B15712  13.139  16.023   7.230  0.3495  0.0162  0.0798
 1108YOPC   NC315713   3.245   0.949   4.877 -0.0809 -0.2025  0.0272
 1108YOPC   PO415714   3.381   0.681   5.140  0.1196  0.1977  0.1649
 1108YOPC   GL115715   3.083   0.840   5.412  0.1347 -0.0672 -0.0681
 1108YOPC   GL215716   3.095   1.077   5.551 -0.1044 -0.0262 -0.0866
 1108YOPC   C1A15717   2.759   0.702   5.722 -0.2138  0.1085 -0.1483
 1108YOPC   D2A15718   2.715   0.800   6.223 -0.2033  0.0682  0.0921
 1108YOPC   C3A15719   2.784   0.521   6.550  0.2544 -0.0662  0.3279
 1108YOPC   C4A15720   2.676   0.315   6.939 -0.2011 -0.0507  0.1556
 1108YOPC   C1B15721   3.149   0.839   5.992 -0.1563  0.1117  0.0085
 1108YOPC   C2B15722   3.256   0.564   6.361  0.1724 -0.2152 -0.1324
 1108YOPC   D3B15723   3.382   0.142   6.231 -0.0686 -0.0973 -0.0751
 1108YOPC   C4B15724   3.838  -0.102   6.202  0.2018 -0.1126 -0.0705
 1109YOPC   NC315725   2.875  10.227   5.508  0.1504 -0.0924 -0.3019
 1109YOPC   PO415726   2.674  10.473   5.852  0.1128 -0.4082  0.0962
 1109YOPC   GL115727   2.893  10.423   6.159  0.0967 -0.4070 -0.1373
 1109YOPC   GL215728   2.915  10.772   6.287  0.1792  0.3544 -0.0255
 1109YOPC   C1A15729   2.945  10.378   6.592  0.0819 -0.1595 -0.0274
 1109YOPC   D2A15730   2.903  10.387   7.047  0.3419 -0.1253  0.2074
 1109YOPC   C3A15731   2.623  10.526   7.390 -0.2716 -0.0532 -0.0882
 1109YOPC   C4A15732   2.436  10.124   7.603  0.3705  0.3239 -0.2118
 1109YOPC   C1B15733   2.571  10.723   6.529  0.1274  0.0701 -0.1594
 1109YOPC   C2B15734   2.418  10.662   6.961 -0.0472 -0.0734 -0.0634
 1109YOPC   D3B15735   2.370  10.193   7.072 -0.2211 -0.0861  0.0356
 1109YOPC   C4B15736   2.728   9.950   7.286 -0.2709  0.0821 -0.0822
 1110YOPC   NC315737  15.687   5.776   5.653 -0.1735 -0.2037 -0.3756
 1110YOPC   PO415738  15.551   5.394   5.411 -0.1753 -0.1542  0.1378
 1110YOPC   GL115739  15.451   5.395   5.824  0.0471  0.2111  0.0021
 1110YOPC   GL215740  15.441   5.067   5.934 -0.0718  0.1579  0.0116
 1110YOPC   C1A15741  15.533   5.429   6.251  0.1281 -0.1794  0.0423
 1110YOPC   D2A15742  15.701   5.472   6.603 -0.3561 -0.0849 -0.3098
 1110YOPC   C3A15743  16.104   5.295   6.561  0.0974  0.1405 -0.2852
 1110YOPC   C4A15744  16.186   5.053   6.179 -0.0475  0.0146  0.1024
 1110YOPC   C1B15745  15.769   4.835   6.094  0.1094  0.2658 -0.4260
 1110YOPC   C2B15746  15.780   4.826   6.521 -0.0770  0.2052  0.1774
 1110YOPC   D3B15747  15.822   5.082   6.918  0.4225  0.2281  0.3348
 1110YOPC   C4B15748  16.019   5.387   7.102  0.0228  0.3340 -0.2053
 1111YOPC   NC315749  14.292  18.412   4.838  0.2476  0.0148 -0.0337
 1111YOPC   PO415750  14.371  18.325   5.269  0.3672 -0.0085  0.0771
 1111YOPC   GL115751  14.083  18.318   5.739 -0.2313 -0.2244  0.1675
 1111YOPC   GL215752  13.865  18.543   5.666  0.3342 -0.1302  0.3278
 1111YOPC   C1A15753  13.988  18.272   6.171 -0.0353  0.0180 -0.0467
 1111YOPC   D2A15754  13.775  18.037   6.464  0.0015  0.1510 -0.2384
 1111YOPC   C3A15755  13.621  18.125   6.807  0.0400 -0.0455  0.0573
 1111YOPC   C4A15756  13.790  18.162   7.228  0.2050  0.1637  0.0230
 1111YOPC   C1B15757  14.043  18.738   5.999  0.2716  0.3550 -0.0290
 1111YOPC   C2B15758  13.825  18.919   6.338  0.0771 -0.1480  0.2639
 1111YOPC   D3B15759  13.903  19.281   6.582  0.0561 -0.0376  0.1248
 1111YOPC   C4B15760  13.717  19.412   6.897 -0.1083 -0.0277  0.0287
 1112YOPC   NC315761   9.865   5.078   5.464  0.2837 -0.1837  0.2955
 1112YOPC   PO415762  10.045   5.564   5.621  0.2312 -0.0420  0.0538
 1112YOPC   GL115763   9.845   5.436   5.938 -0.0618  0.3098  0.1231
 1112YOPC   GL215764   9.511   5.219   5.859 -0.1369 -0.2569 -0.0194
 1112YOPC   C1A15765   9.555   5.579   6.340  0.1972  0.0161  0.1190
 1112YOPC   D2A15766   9.445   5.734   6.764  0.0649  0.4210 -0.1695
 1112YOPC   C3A15767   9.075   5.962   6.652 -0.0980 -0.2478 -0.1855
 1112YOPC   C4A15768   8.897   5.950   6.217 -0.0028  0.0389 -0.0884
 1112YOPC   C1B15769   9.374   4.936   6.216 -0.3302 -0.3027  0.0685
 1112YOPC   C2B15770   9.122   4.827   6.561 -0.2024 -0.0129 -0.0679
 1112YOPC   D3B15771   9.201   4.601   6.973  0.0386 -0.3935  0.1718
 1112YOPC   C4B15772   9.061   4.479   7.332 -0.2520  0.0302  0.2135
 1113YOPC   NC315773   9.428   6.761   5.541 -0.1708  0.1706  0.0238
 1113YOPC   PO415774   9.210   6.334   5.383 -0.0584  0.0524  0.1244
 1113YOPC   GL115775   9.366   6.262   5.767  0.0910 -0.1554 -0.3430
 1113YOPC   GL215776   9.077   6.265   5.910  0.0018  0.0180 -0.0113
 1113YOPC   C1A15777   9.404   6.038   6.203  0.1126 -0.0340  0.0227
 1113YOPC   D2A15778   9.536   6.190   6.615  0.2587 -0.0104 -0.0438
 1113YOPC   C3A15779   9.774   6.244   6.854 -0.3054  0.2891  0.3146
 1113YOPC   C4A15780  10.025   6.106   7.156  0.1085  0.1764  0.1837
 1113YOPC   C1B15781   8.583   6.471   6.098 -0.1498  0.0328  0.0346
 1113YOPC   C2B15782   8.393   6.773   6.268  0.2382 -0.3020 -0.0970
 1113YOPC   D3B15783   8.226   6.611   6.569  0.0913 -0.0109 -0.2088
 1113YOPC   C4B15784   7.931   6.758   6.849  0.3413  0.5204 -0.0901
 1114YOPC   NC315785  18.673  17.449   5.557  0.2052 -0.1471 -0.1842
 1114YOPC   PO415786  19.087  17.715   5.750  0.0342  0.0886  0.1296
 1114YOPC   GL115787  18.849  17.886   6.038 -0.1127  0.3042 -0.0504
 1114YOPC   GL215788  18.551  17.689   5.998  0.2244  0.4095 -0.1995
 1114YOPC   C1A15789  18.818  17.834   6.492  0.0966  0.0498  0.0196
 1114YOPC   D2A15790  18.934  17.893   6.875 -0.2609  0.0421  0.1329
 1114YOPC   C3A15791  18.590  17.925   7.247  0.0910  0.4105  0.3404
 1114YOPC   C4A15792  18.525  17.764   7.696  0.0277 -0.0621  0.0223
 1114YOPC   C1B15793  18.366  17.702   6.345 -0.1805  0.2472 -0.1172
 1114YOPC   C2B15794  18.398  17.776   6.773 -0.4705 -0.3077 -0.0207
 1114YOPC   D3B15795  18.164  17.560   7.168  0.1394 -0.1702  0.0370
 1114YOPC   C4B15796  17.772  17.515   7.299 -0.0557  0.1382  0.0180
 1115YOPC   NC315797  18.911  11.820   5.138 -0.0948 -0.0022  0.3384
 1115YOPC   PO415798  19.060  11.970   5.482 -0.1794  0.0616 -0.1657
 1115YOPC   GL115799  19.201  11.804   5.827 -0.1851 -0.2583  0.0094
 1115YOPC   GL215800  19.179  12.163   5.993  0.2828 -0.1326  0.0969
 1115YOPC   C1A15801  19.136  11.672   6.160  0.0244 -0.3823 -0.1230
 1115YOPC   D2A15802  18.965  11.606   6.711 -0.1562  0.0430  0.2571
 1115YOPC   C3A15803  18.838  11.233   6.855  0.0335 -0.3644  0.0076
 1115YOPC   C4A15804  18.691  10.793   6.666  0.1422  0.1949 -0.1825
 1115YOPC   C1B15805  19.034  12.439   6.271  0.0077  0.2185 -0.2324
 1115YOPC   C2B15806  18.811  12.495   6.648 -0.1134 -0.0547 -0.3951
 1115YOPC   D3B15807  18.874  12.935   6.771 -0.0831  0.0518 -0.0757
 1115YOPC   C4B15808  18.920  13.045   7.147  0.1735  0.2635 -0.1145
 1116YOPC   NC315809  13.043  13.074   4.946 -0.0394  0.0951 -0.1415
 1116YOPC   PO415810  13.369  12.808   5.199 -0.0740 -0.5002  0.0347
 1116YOPC   GL115811  13.282  13.004   5.530 -0.4615  0.2721  0.0865
 1116YOPC   GL215812  13.032  13.174   5.613  0.1039 -0.1342 -0.0306
 1116YOPC   C1A15813  13.236  13.096   6.079  0.0331  0.0255 -0.0942
 1116YOPC   D2A15814  12.843  13.403   6.231 -0.2227 -0.0636 -0.0054
 1116YOPC   C3A15815  12.594  13.301   6.648 -0.1960 -0.1320  0.2347
 1116YOPC   C4A15816  12.579  13.234   7.126 -0.4565  0.1266 -0.4729
 1116YOPC   C1B15817  12.871  13.612   5.736  0.1705 -0.1292 -0.1247
 1116YOPC   C2B15818  12.467  13.836   6.065  0.0250  0.2149  0.2832
 1116YOPC   D3B15819  12.487  13.892   6.583  0.2395  0.3336 -0.1744
 1116YOPC   C4B15820  12.568  13.880   7.132  0.2661  0.0921  0.4163
 1117YOPC   NC315821  12.518  10.755   5.497  0.1373 -0.2089  0.0978
 1117YOPC   PO415822  12.844  10.849   5.378  0.1928 -0.0098 -0.1631
 1117YOPC   GL115823  12.611  11.305   5.593 -0.0360  0.0873  0.1644
 1117YOPC   GL215824  12.350  11.200   5.689 -0.0275 -0.0975  0.0024
 1117YOPC   C1A15825  12.680  11.438   5.995  0.2136  0.2582  0.0728
 1117YOPC   D2A15826  12.805  11.175   6.305 -0.1441  0.0370 -0.0459
 1117YOPC   C3A15827  12.714  11.056   6.709  0.0691 -0.0554  0.0378
 1117YOPC   C4A15828  12.685  10.651   6.874 -0.0723  0.1301 -0.0404
 1117YOPC   C1B15829  12.330  11.112   6.085 -0.3599 -0.1007 -0.0855
 1117YOPC   C2B15830  12.263  10.811   6.450 -0.1843 -0.2258 -0.1008
 1117YOPC   D3B15831  12.672  10.653   6.381  0.1160 -0.0026 -0.0526
 1117YOPC   C4B15832  13.024  10.524   6.238  0.1860  0.0867 -0.3082
 1118YOPC   NC315833   3.477  14.777   5.250  0.3100  0.2421  0.1183
 1118YOPC   PO415834   3.282  15.174   5.378  0.0266  0.0332  0.0379
 1118YOPC   GL115835   2.963  14.930   5.737  0.1978  0.1433  0.2788
 1118YOPC   GL215836   3.084  14.767   6.017 -0.2521 -0.2609  0.1048
 1118YOPC   C1A15837   2.633  14.966   6.008  0.0798  0.0853  0.1796
 1118YOPC   D2A15838   2.392  14.612   6.100 -0.0451  0.1044  0.0875
 1118YOPC   C3A15839   2.108  14.267   6.232  0.2533 -0.0003  0.0408
 1118YOPC   C4A15840   1.652  14.190   6.038  0.2315 -0.0198  0.1152
 1118YOPC   C1B15841   2.870  14.614   6.347 -0.0453 -0.0563  0.1976
 1118YOPC   C2B15842   2.728  14.834   6.656 -0.5521 -0.4337  0.0205
 1118YOPC   D3B15843   2.419  15.103   6.919  0.1411  0.0105  0.0339
 1118YOPC   C4B15844   2.231  15.289   7.238 -0.0422  0.1411 -0.1277
 1119YOPC   NC315845  12.689   8.336   5.036 -0.1218  0.2844 -0.1834
 1119YOPC   PO415846  12.558   8.438   5.459  0.1963  0.0583 -0.0284
 1119YOPC   GL115847  12.360   8.662   5.891  0.0341 -0.2476  0.0961
 1119YOPC   GL215848  12.645   8.500   6.025 -0.0423 -0.2238  0.1232
 1119YOPC   C1A15849  12.394   8.801   6.306  0.0158 -0.2205  0.1139
 1119YOPC   D2A15850  12.102   8.906   6.622 -0.1330  0.0347  0.0898
 1119YOPC   C3A15851  12.228   9.127   6.978  0.2516 -0.0011  0.0110
 1119YOPC   C4A15852  12.200   9.296   7.380  0.0026 -0.0281 -0.2737
 1119YOPC   C1B15853  12.590   8.362   6.489  0.0237  0.0349 -0.1476
 1119YOPC   C2B15854  12.215   8.002   6.640  0.3265 -0.1469  0.2857
 1119YOPC   D3B15855  11.841   7.929   6.250 -0.0226  0.2956  0.3132
 1119YOPC   C4B15856  11.415   7.832   6.243  0.1319 -0.0544  0.1017
 1120YOPC   NC315857  14.234  10.600   5.327  0.2493  0.1003  0.4433
 1120YOPC   PO415858  14.647  10.559   5.417 -0.1433 -0.0953 -0.0956
 1120YOPC   GL115859  14.712  10.583   5.847  0.0136  0.5273  0.1390
 1120YOPC   GL215860  14.931  10.815   5.998 -0.1460 -0.0116  0.2822
 1120YOPC   C1A15861  14.526  10.277   6.159  0.4055  0.0125  0.0016
 1120YOPC   D2A15862  14.529  10.266   6.525  0.2303  0.0919 -0.0687
 1120YOPC   C3A15863  14.249  10.094   6.835 -0.0105  0.2690 -0.0601
 1120YOPC   C4A15864  14.225  10.046   7.251 -0.3199  0.1189  0.0884
 1120YOPC   C1B15865  15.000  10.584   6.416  0.0201 -0.2790 -0.1518
 1120YOPC   C2B15866  14.887  10.518   6.866  0.1201 -0.1305  0.0128
 1120YOPC   D3B15867  14.416  10.631   7.124  0.3044  0.0614  0.1630
 1120YOPC   C4B15868  13.964  10.538   7.289  0.1088 -0.4748  0.2216
 1121YOPC   NC315869   5.715  16.208   5.549  0.1455 -0.0450  0.1311
 1121YOPC   PO415870   5.309  16.301   5.330 -0.2338 -0.0575 -0.0990
 1121YOPC   GL115871   5.259  16.106   5.766  0.1364  0.2199 -0.2392
 1121YOPC   GL215872   5.164  15.729   5.815  0.0825  0.2074 -0.0449
 1121YOPC   C1A15873   5.404  16.293   6.124 -0.2597 -0.2980  0.4272
 1121YOPC   D2A15874   5.604  16.204   6.525  0.0961  0.0067 -0.0073
 1121YOPC   C3A15875   5.496  16.131   6.973  0.2361  0.2112  0.3571
 1121YOPC   C4A15876   5.235  15.881   7.142 -0.2404 -0.2088  0.1416
 1121YOPC   C1B15877   4.953  15.669   6.196  0.2279 -0.0351  0.1359
 1121YOPC   C2B15878   4.828  15.752   6.579  0.3322 -0.2610  0.0347
 1121YOPC   D3B15879   4.837  15.560   7.024 -0.1272  0.2087 -0.1283
 1121YOPC   C4B15880   4.673  15.212   7.264 -0.0055 -0.3502  0.0226
 1122YOPC   NC315881   2.891   9.227   5.189  0.0758 -0.2632  0.0960
 1122YOPC   PO415882   2.997   9.535   5.655  0.0379 -0.1407 -0.1225
 1122YOPC   GL115883   3.268   9.349   5.945  0.4591  0.2699 -0.0915
 1122YOPC   GL215884   3.616   9.506   6.221  0.1165 -0.2779  0.2357
 1122YOPC   C1A15885   3.212   9.074   6.292  0.1101 -0.0823 -0.1230
 1122YOPC   D2A15886   2.878   8.997   6.599  0.0521  0.0455 -0.1101
 1122YOPC   C3A15887   2.705   9.180   6.867  0.2449 -0.3238 -0.2135
 1122YOPC   C4A15888   2.441   9.518   7.080 -0.2399 -0.0684 -0.1130
 1122YOPC   C1B15889   3.338   9.420   6.585  0.0769  0.0494 -0.2786
 1122YOPC   C2B15890   3.242   9.250   6.971  0.1513  0.1495  0.0647
 1122YOPC   D3B15891   3.085   8.999   7.348 -0.2525 -0.1529 -0.3183
 1122YOPC   C4B15892   2.593   8.968   7.364  0.0373  0.2311 -0.0896
 1123ERGO   ROH15893   8.372   3.359   6.220 -0.0127 -0.0075  0.0262
 1123ERGO    R115894   8.297   3.456   6.476  0.1940  0.2162  0.0086
 1123ERGO    R215895   8.152   3.303   6.656 -0.4360  0.6566 -0.0777
 1123ERGO    R315896   8.359   3.364   6.822 -0.2730 -0.0812  0.0199
 1123ERGO    R415897   8.121   3.377   6.992 -0.3204  0.7585 -0.0901
 1123ERGO    R515898   8.271   3.533   6.967  0.2585  0.2387 -0.0140
 1123ERGO    C115899   8.296   3.477   7.344 -0.1001  0.1252 -0.0056
 1123ERGO    C215900   8.438   3.370   7.660  0.1709  0.2518  0.0520
 1124ERGO   ROH15901   2.984   5.639   6.443  0.0004 -0.2170  0.1101
 1124ERGO    R115902   2.928   5.736   6.703  0.0305 -0.1810  0.1045
 1124ERGO    R215903   2.913   5.571   6.924 -0.0077 -0.1610  0.1230
 1124ERGO    R315904   3.097   5.743   7.025  0.0402 -0.2004  0.0988
 1124ERGO    R415905   2.992   5.601   7.259 -0.2415  0.0995  0.1574
 1124ERGO    R515906   3.002   5.817   7.232 -0.0639  0.0667 -0.0420
 1124ERGO    C115907   3.211   5.780   7.549 -0.3327  0.2142  0.1547
 1124ERGO    C215908   3.351   5.874   7.706 -0.1188 -0.2711 -0.0516
 1125ERGO   ROH15909  18.962  17.371   6.151  0.0837 -0.1492 -0.1723
 1125ERGO    R115910  19.192  17.420   6.308  0.0575  0.0400 -0.1939
 1125ERGO    R215911  19.295  17.673   6.347 -0.2471  0.1369 -0.0724
 1125ERGO    R315912  19.271  17.607   6.610 -0.1016 -0.0375 -0.0992
 1125ERGO    R415913  19.462  17.830   6.606 -0.1971  0.0691 -0.0610
 1125ERGO    R515914  19.493  17.635   6.698 -0.0627  0.0151 -0.1889
 1125ERGO    C115915  19.538  17.860   7.003 -0.0314 -0.1339 -0.0796
 1125ERGO    C215916  19.575  17.983   7.277  0.4713  0.1000 -0.5328
 1126ERGO   ROH15917   0.182  13.287   9.688  0.0792  0.2948 -0.0562
 1126ERGO    R115918   0.071  13.226   9.435  0.2254  0.1219 -0.0810
 1126ERGO    R215919  -0.072  13.411   9.287  0.0026 -0.0834 -0.1299
 1126ERGO    R315920   0.109  13.348   9.094  0.1434  0.1535 -0.0787
 1126ERGO    R415921  -0.079  13.528   8.962 -0.0227 -0.0448 -0.1152
 1126ERGO    R515922  -0.020  13.330   8.894  0.2308  0.0315 -0.1249
 1126ERGO    C115923   0.086  13.537   8.592  0.0947  0.2002 -0.0588
 1126ERGO    C215924   0.205  13.811   8.492  0.1875  0.3747 -0.2339
 1127ERGO   ROH15925   5.604  13.437   5.793  0.4229  0.0321  0.0062
 1127ERGO    R115926   5.557  13.404   6.071  0.3732  0.0731  0.0021
 1127ERGO    R215927   5.693  13.551   6.262  0.0814  0.3625 -0.0084
 1127ERGO    R315928   5.442  13.613   6.345 -0.0502  0.0110 -0.1201
 1127ERGO    R415929   5.589  13.559   6.592 -0.0360  0.3422 -0.0438
 1127ERGO    R515930   5.402  13.467   6.530  0.1178  0.0209 -0.0702
 1127ERGO    C115931   5.293  13.622   6.861 -0.2279  0.0004 -0.1693
 1127ERGO    C215932   4.979  13.928   6.903  0.0096 -0.7143  0.1886
 1128ERGO   ROH15933  11.651  11.824   6.036  0.1233 -0.0703  0.0533
 1128ERGO    R115934  11.710  11.854   6.311  0.0715  0.1899  0.0391
 1128ERGO    R215935  11.573  12.030   6.475 -0.2047  0.0890 -0.0724
 1128ERGO    R315936  11.534  11.808   6.626  0.1276  0.1145  0.0587
 1128ERGO    R415937  11.452  12.030   6.799 -0.1872  0.0941 -0.0663
 1128ERGO    R515938  11.596  11.874   6.847  0.0434  0.3312  0.0171
 1128ERGO    C115939  11.345  11.821   7.129  0.1350  0.1210  0.0602
 1128ERGO    C215940  11.251  11.553   7.241 -0.0365  0.2533 -0.0004
 1129ERGO   ROH15941   8.383   9.312   6.073 -0.1662 -0.1319  0.0541
 1129ERGO    R115942   8.591   9.359   6.260 -0.0783 -0.0177 -0.0743
 1129ERGO    R215943   8.546   9.475   6.507  0.0121 -0.0291 -0.0670
 1129ERGO    R315944   8.671   9.252   6.598  0.1869  0.0454 -0.1104
 1129ERGO    R415945   8.584   9.390   6.840 -0.1998 -0.1881 -0.0792
 1129ERGO    R515946   8.785   9.323   6.795 -0.0656  0.0651  0.0470
 1129ERGO    C115947   8.723   9.131   7.119 -0.1591 -0.2107 -0.1270
 1129ERGO    C215948   8.605   9.048   7.436 -0.0954  0.0403 -0.0231
 1130ERGO   ROH15949   6.920   4.728   5.923 -0.3267  0.0480 -0.1001
 1130ERGO    R115950   6.673   4.723   6.060 -0.2500 -0.1580  0.0350
 1130ERGO    R215951   6.569   4.492   6.171  0.1201 -0.2008  0.3156
 1130ERGO    R315952   6.559   4.643   6.397  0.0394  0.0067  0.1758
 1130ERGO    R415953   6.355   4.436   6.436  0.1366 -0.0559  0.3597
 1130ERGO    R515954   6.326   4.652   6.452  0.0329 -0.0530  0.1572
 1130ERGO    C115955   6.220   4.545   6.803  0.0704  0.2234  0.2541
 1130ERGO    C215956   6.252   4.432   7.107 -0.2070  0.0569 -0.0084
 1131ERGO   ROH15957  18.779   7.880   6.076  0.0749  0.0644 -0.0657
 1131ERGO    R115958  18.563   7.932   6.251  0.0714  0.1062 -0.0820
 1131ERGO    R215959  18.492   7.761   6.456 -0.0402  0.0693 -0.1497
 1131ERGO    R315960  18.519   7.984   6.609  0.0407  0.0067 -0.0714
 1131ERGO    R415961  18.432   7.774   6.796  0.0375 -0.0429 -0.1308
 1131ERGO    R515962  18.338   7.969   6.766  0.0726 -0.0122 -0.0373
 1131ERGO    C115963  18.421   7.992   7.138  0.1587 -0.1670 -0.0464
 1131ERGO    C215964  18.268   8.085   7.592  0.0330  0.0195  0.1211
 1132ERGO   ROH15965   7.773  10.451   6.352  0.1037  0.0311 -0.0568
 1132ERGO    R115966   7.647  10.265   6.525 -0.0321  0.1428 -0.0340
 1132ERGO    R215967   7.767  10.028   6.601 -0.2637 -0.0032 -0.1230
 1132ERGO    R315968   7.716  10.120   6.852 -0.0571  0.0138 -0.0847
 1132ERGO    R415969   7.800   9.842   6.890 -0.2876 -0.0757 -0.1666
 1132ERGO    R515970   7.616   9.933   6.964 -0.1729  0.0843 -0.0627
 1132ERGO    C115971   7.771   9.819   7.294 -0.1076 -0.1019 -0.1559
 1132ERGO    C215972   7.756   9.696   7.565 -0.2670  0.0230  0.0783
 1133ERGO   ROH15973   7.663  13.685   5.843  0.0759  0.1841 -0.1376
 1133ERGO    R115974   7.623  13.681   6.123  0.1225  0.0668 -0.1312
 1133ERGO    R215975   7.732  13.871   6.292  0.0419  0.0736 -0.0841
 1133ERGO    R315976   7.474  13.902   6.371  0.0364 -0.1001 -0.0327
 1133ERGO    R415977   7.633  14.036   6.579 -0.0098  0.0217 -0.0728
 1133ERGO    R515978   7.483  13.880   6.610  0.1024 -0.0813 -0.0331
 1133ERGO    C115979   7.333  14.161   6.821 -0.0451 -0.1714 -0.0180
 1133ERGO    C215980   7.259  14.096   7.158  0.3096 -0.0898 -0.1643
 1134ERGO   ROH15981   6.356  14.740   5.954 -0.1769  0.0412 -0.1660
 1134ERGO    R115982   6.338  14.752   6.237 -0.1162  0.1187 -0.1674
 1134ERGO    R215983   6.260  14.981   6.371 -0.2461  0.0984 -0.2285
 1134ERGO    R315984   6.077  14.813   6.483 -0.0986  0.0064 -0.1159
 1134ERGO    R415985   6.132  15.012   6.691 -0.3745  0.3052 -0.2962
 1134ERGO    R515986   6.145  14.796   6.712 -0.1385  0.3251 -0.0669
 1134ERGO    C115987   5.887  14.873   6.982 -0.3108  0.3393 -0.2299
 1134ERGO    C215988   5.631  15.009   7.295  0.0470 -0.1693  0.2133
 1135ERGO   ROH15989   8.034   8.419   6.013  0.4255  0.1130 -0.1533
 1135ERGO    R115990   8.026   8.419   6.296  0.3455  0.2304 -0.1554
 1135ERGO    R215991   8.080   8.194   6.446  0.1045  0.2422 -0.0533
 1135ERGO    R315992   8.261   8.357   6.567  0.2148  0.1294 -0.0627
 1135ERGO    R415993   8.203   8.149   6.766 -0.0040  0.2271 -0.0127
 1135ERGO    R515994   8.190   8.365   6.796  0.1673  0.2520 -0.0778
 1135ERGO    C115995   8.445   8.275   7.066  0.0365  0.1124  0.0021
 1135ERGO    C215996   8.582   8.469   7.360  0.0656  0.3465 -0.1538
 1136ERGO   ROH15997   8.891  13.474   8.926  0.0568  0.2249  0.0135
 1136ERGO    R115998   8.729  13.258   8.842  0.2067 -0.0003  0.2906
 1136ERGO    R215999   8.655  13.222   8.578 -0.3154 -0.0097  0.4344
 1136ERGO    R316000   8.763  12.975   8.615  0.1604  0.1364  0.1089
 1136ERGO    R416001   8.646  12.966   8.346 -0.5657  0.0286  0.3971
 1136ERGO    R516002   8.609  12.826   8.509  0.0766 -0.0698  0.4937
 1136ERGO    C116003   8.744  12.586   8.244 -0.2647  0.1882  0.0698
 1136ERGO    C216004   8.739  12.561   7.898  0.0967  0.2638 -0.2694
 1137ERGO   ROH16005  13.486   6.030   6.193  0.0052 -0.1019  0.0923
 1137ERGO    R116006  13.465   6.056   6.474 -0.0164 -0.0766  0.0888
 1137ERGO    R216007  13.449   6.301   6.600  0.0743 -0.0606  0.0741
 1137ERGO    R316008  13.224   6.195   6.709  0.0154  0.0408  0.0515
 1137ERGO    R416009  13.278   6.434   6.869  0.1504 -0.0283  0.1062
 1137ERGO    R516010  13.249   6.232   6.944  0.0374 -0.0282  0.0589
 1137ERGO    C116011  12.967   6.412   7.128  0.1394  0.0858  0.1037
 1137ERGO    C216012  12.659   6.385   7.204  0.0319  0.2700 -0.0373
 1138ERGO   ROH16013   4.829   6.627   6.477  0.2460  0.2572 -0.0387
 1138ERGO    R116014   4.816   6.541   6.746  0.1867  0.0761 -0.0989
 1138ERGO    R216015   5.021   6.584   6.926  0.0512  0.1591  0.0315
 1138ERGO    R316016   4.823   6.698   7.074 -0.1341 -0.1218  0.0079
 1138ERGO    R416017   4.990   6.555   7.269  0.1162  0.1927  0.0410
 1138ERGO    R516018   4.774   6.534   7.243  0.1393 -0.1669  0.0522
 1138ERGO    C116019   4.786   6.645   7.608 -0.0199 -0.0515  0.0243
 1138ERGO    C216020   4.753   6.596   8.006 -0.0891  0.0944 -0.0397
 1139ERGO   ROH16021   8.908  13.673   5.677  0.3612 -0.2675  0.0359
 1139ERGO    R116022   9.064  13.704   5.911  0.2302 -0.1915  0.1139
 1139ERGO    R216023   9.223  13.926   5.956  0.2154 -0.1868  0.1225
 1139ERGO    R316024   9.082  13.939   6.188  0.0878 -0.0921  0.0415
 1139ERGO    R416025   9.294  14.141   6.217  0.2489 -0.2672  0.1804
 1139ERGO    R516026   9.248  13.979   6.356  0.0296 -0.2476  0.1425
 1139ERGO    C116027   9.203  14.279   6.587  0.1485 -0.2249  0.1381
 1139ERGO    C216028   9.344  14.508   6.810 -0.1375 -0.2432 -0.0445
 1140ERGO   ROH16029  11.589  10.777   5.853 -0.2981  0.0797 -0.0483
 1140ERGO    R116030  11.749  10.671   6.061 -0.1895  0.0063 -0.1683
 1140ERGO    R216031  11.792  10.803   6.299  0.0028 -0.0398 -0.1755
 1140ERGO    R316032  11.701  10.571   6.407  0.0117 -0.0312 -0.1495
 1140ERGO    R416033  11.764  10.741   6.638 -0.0636  0.0261 -0.1687
 1140ERGO    R516034  11.837  10.539   6.602 -0.0263  0.0282 -0.1121
 1140ERGO    C116035  11.662  10.487   6.937 -0.0939  0.0726 -0.1404
 1140ERGO    C216036  11.440  10.538   7.175 -0.0797  0.3252 -0.2221
 1141ERGO   ROH16037   8.357   0.761   5.918 -0.0182  0.0154 -0.1099
 1141ERGO    R116038   8.245   0.568   6.093  0.0336 -0.1805 -0.2886
 1141ERGO    R216039   8.293   0.298   6.067  0.5361 -0.1057 -0.2268
 1141ERGO    R316040   8.370   0.319   6.327  0.1015  0.0245 -0.1029
 1141ERGO    R416041   8.377   0.031   6.271  0.5093  0.0182 -0.0518
 1141ERGO    R516042   8.271   0.129   6.434  0.1380 -0.0688 -0.2318
 1141ERGO    C116043   8.498  -0.104   6.634  0.0857  0.2125  0.1665
 1141ERGO    C216044   8.503  -0.425   6.796 -0.0687 -0.0593  0.2305
 1142ERGO   ROH16045  14.609  14.603   5.906  0.4199  0.1469  0.0930
 1142ERGO    R116046  14.669  14.543   6.176  0.2102  0.0202  0.1123
 1142ERGO    R216047  14.499  14.606   6.384  0.1162  0.0530  0.0192
 1142ERGO    R316048  14.522  14.341   6.440 -0.0807  0.0189 -0.0442
 1142ERGO    R416049  14.412  14.459   6.685 -0.1334  0.0261 -0.0622
 1142ERGO    R516050  14.590  14.335   6.670 -0.1996 -0.0859 -0.0065
 1142ERGO    C116051  14.384  14.126   6.913 -0.4637 -0.0216 -0.1693
 1142ERGO    C216052  14.330  14.042   7.179  0.2357  0.1125 -0.0483
 1143ERGO   ROH16053  16.829  11.993   6.455 -0.0230 -0.1344 -0.0865
 1143ERGO    R116054  16.975  12.009   6.696 -0.0261 -0.1948 -0.0844
 1143ERGO    R216055  16.863  12.095   6.933  0.0258 -0.0779 -0.1223
 1143ERGO    R316056  16.958  11.858   7.027 -0.1392 -0.1216 -0.0500
 1143ERGO    R416057  16.864  12.000   7.265  0.1511  0.1527 -0.0523
 1143ERGO    R516058  17.062  11.914   7.235  0.0671 -0.0693 -0.1468
 1143ERGO    C116059  16.954  11.722   7.547  0.0692  0.2460  0.0564
 1143ERGO    C216060  16.830  11.622   7.998 -0.0818  0.1009  0.0991
 1144ERGO   ROH16061  18.282   0.288   6.012 -0.0376 -0.3847 -0.0467
 1144ERGO    R116062  18.341   0.215   6.280  0.0857  0.0592  0.0557
 1144ERGO    R216063  18.295   0.384   6.494 -0.3341  0.2199 -0.1504
 1144ERGO    R316064  18.154   0.172   6.589  0.1222  0.0012  0.0699
 1144ERGO    R416065  18.205   0.339   6.824 -0.2636  0.3884 -0.1068
 1144ERGO    R516066  18.251   0.127   6.803  0.2102  0.4541  0.1357
 1144ERGO    C116067  18.020   0.113   7.106  0.2055  0.2812  0.1254
 1144ERGO    C216068  17.896  -0.070   7.349  0.0004  0.1448 -0.0901
 1145ERGO   ROH16069   5.938   2.100   6.237  0.0199 -0.0760  0.0665
 1145ERGO    R116070   5.965   2.006   6.503 -0.0984  0.0011  0.1059
 1145ERGO    R216071   6.047   2.169   6.710 -0.2440  0.0746  0.1056
 1145ERGO    R316072   5.817   2.083   6.826 -0.2858  0.0541  0.0094
 1145ERGO    R416073   5.944   2.253   7.029 -0.4521  0.1804  0.0125
 1145ERGO    R516074   5.876   2.048   7.056 -0.4051  0.1695  0.0602
 1145ERGO    C116075   5.668   2.222   7.324 -0.6124  0.2229 -0.1320
 1145ERGO    C216076   5.504   2.311   7.544 -0.2933 -0.0028  0.1390
 1146ERGO   ROH16077   0.638  16.034   6.345  0.0532  0.0012  0.1528
 1146ERGO    R116078   0.529  16.132   6.587  0.0451 -0.0030  0.1512
 1146ERGO    R216079   0.285  16.049   6.685  0.0518 -0.0236  0.1554
 1146ERGO    R316080   0.430  15.993   6.908  0.0600 -0.0053  0.1542
 1146ERGO    R416081   0.163  16.061   7.008  0.0621 -0.0151  0.1586
 1146ERGO    R516082   0.351  16.150   7.070  0.0576 -0.0030  0.1489
 1146ERGO    C116083   0.228  16.016   7.405  0.0757  0.0076  0.1594
 1146ERGO    C216084   0.147  16.065   7.783  0.2137  0.2736 -0.0819
 1147ERGO   ROH16085  16.805   4.708   5.800  0.1062 -0.0870 -0.0667
 1147ERGO    R116086  16.868   4.847   6.038  0.1799 -0.2378  0.0017
 1147ERGO    R216087  16.697   5.031   6.152  0.3300 -0.1214  0.0225
 1147ERGO    R316088  16.728   4.875   6.373  0.1247 -0.2289 -0.0194
 1147ERGO    R416089  16.593   5.117   6.471  0.4979 -0.0262  0.0541
 1147ERGO    R516090  16.778   5.031   6.548  0.3893 -0.3324  0.0111
 1147ERGO    C116091  16.562   5.021   6.863  0.4030 -0.0715  0.0332
 1147ERGO    C216092  16.331   5.055   7.044  0.1151 -0.1469  0.2314
 1148ERGO   ROH16093  15.992  18.067   9.098 -0.0617 -0.0324  0.1035
 1148ERGO    R116094  15.929  17.976   8.837 -0.0527  0.0442  0.0746
 1148ERGO    R216095  15.849  18.148   8.636  0.1627  0.1315  0.0617
 1148ERGO    R316096  16.054  18.032   8.500  0.1099 -0.0354  0.1208
 1148ERGO    R416097  15.898  18.170   8.294  0.1647 -0.0793  0.0467
 1148ERGO    R516098  15.957  17.960   8.294  0.0725 -0.1078  0.1626
 1148ERGO    C116099  16.119  18.075   7.969  0.1163 -0.3592  0.0934
 1148ERGO    C216100  16.257  18.017   7.757  0.3738 -0.4081 -0.0768
 1149ERGO   ROH16101   9.766   9.331   6.284  0.1391  0.0834  0.0929
 1149ERGO    R116102   9.716   9.188   6.524  0.1824  0.1263  0.1282
 1149ERGO    R216103   9.820   8.936   6.571  0.0387  0.0529  0.0750
 1149ERGO    R316104   9.915   9.054   6.797  0.2554  0.0005  0.0132
 1149ERGO    R416105   9.815   8.793   6.885 -0.1371  0.1929  0.1373
 1149ERGO    R516106   9.761   8.987   6.968  0.1770  0.3117  0.0657
 1149ERGO    C116107   9.900   8.819   7.281 -0.0359  0.2251  0.1154
 1149ERGO    C216108  10.074   8.867   7.413 -0.0092  0.1137  0.0311
 1150ERGO   ROH16109  16.018   6.732   5.812  0.2160  0.1945 -0.0192
 1150ERGO    R116110  16.082   6.802   6.078 -0.0681  0.2719  0.0328
 1150ERGO    R216111  15.948   7.000   6.217 -0.4284  0.1007 -0.0554
 1150ERGO    R316112  15.912   6.802   6.400 -0.3098  0.0445 -0.0914
 1150ERGO    R416113  15.846   7.049   6.543 -0.1205  0.0059  0.0591
 1150ERGO    R516114  15.989   6.897   6.606 -0.1001 -0.0504 -0.1252
 1150ERGO    C116115  15.752   6.893   6.905  0.1702 -0.1022  0.0919
 1150ERGO    C216116  15.826   6.868   7.209  0.1282  0.1663 -0.1813
 1151ERGO   ROH16117  10.298  18.742   9.322 -0.0446  0.1443  0.0953
 1151ERGO    R116118  10.302  18.652   9.053  0.1518  0.1134  0.1085
 1151ERGO    R216119  10.151  18.772   8.854  0.0741 -0.0955  0.0510
 1151ERGO    R316120  10.392  18.792   8.730  0.0904  0.1782  0.1157
 1151ERGO    R416121  10.196  18.824   8.515  0.0685 -0.6573 -0.0460
 1151ERGO    R516122  10.360  18.682   8.520  0.3891 -0.3159  0.3031
 1151ERGO    C116123  10.447  18.872   8.201  0.0804 -0.7272 -0.0416
 1151ERGO    C216124  10.425  18.814   7.811 -0.2086  0.0510 -0.2202
 1152ERGO   ROH16125   9.240   4.495   6.034 -0.2388 -0.0337 -0.1368
 1152ERGO    R116126   9.227   4.431   6.309 -0.2644  0.0673 -0.1133
 1152ERGO    R216127   9.000   4.328   6.427 -0.1833 -0.1777 -0.1609
 1152ERGO    R316128   9.170   4.132   6.508  0.0426  0.0732 -0.0112
 1152ERGO    R416129   9.002   4.187   6.743 -0.0671  0.0124 -0.0753
 1152ERGO    R516130   9.220   4.187   6.736 -0.0636  0.2719 -0.0344
 1152ERGO    C116131   9.163   3.920   7.003  0.2128  0.3587  0.1150
 1152ERGO    C216132   9.277   3.571   7.148 -0.0694  0.0409 -0.0353
 1153ERGO   ROH16133  14.918   5.334   9.611  0.3716  0.0526  0.0272
 1153ERGO    R116134  15.059   5.312   9.366  0.3222 -0.2416  0.0223
 1153ERGO    R216135  15.164   5.072   9.275 -0.2288 -0.4829 -0.0094
 1153ERGO    R316136  15.018   5.130   9.053 -0.1057 -0.1159 -0.0022
 1153ERGO    R416137  15.278   5.045   8.950 -0.1454 -0.2599 -0.0012
 1153ERGO    R516138  15.175   5.230   8.903  0.0435 -0.1070  0.1520
 1153ERGO    C116139  15.208   5.083   8.553  0.0186  0.2146  0.0103
 1153ERGO    C216140  15.309   5.119   8.254 -0.2553 -0.0491  0.2093
 1154ERGO   ROH16141   0.942  10.692   6.181  0.1836  0.1050 -0.1685
 1154ERGO    R116142   0.986  10.520   6.401  0.0549  0.1762 -0.0867
 1154ERGO    R216143   1.153  10.300   6.388 -0.1407  0.0214  0.0047
 1154ERGO    R316144   1.270  10.417   6.604 -0.0135  0.0256 -0.0652
 1154ERGO    R416145   1.337  10.133   6.628 -0.1456 -0.0056 -0.0099
 1154ERGO    R516146   1.243  10.257   6.780 -0.0372  0.0852 -0.0123
 1154ERGO    C116147   1.555  10.146   6.970 -0.0291 -0.0173 -0.0841
 1154ERGO    C216148   1.640  10.124   7.332  0.1321 -0.0778 -0.0629
 1155ERGO   ROH16149  15.426  17.566   6.127  0.0294  0.0407 -0.0276
 1155ERGO    R116150  15.340  17.444   6.367  0.0032  0.1635  0.0251
 1155ERGO    R216151  15.092  17.492   6.478 -0.0919  0.0520 -0.1481
 1155ERGO    R316152  15.071  17.221   6.469  0.1300  0.0231  0.0629
 1155ERGO    R416153  14.888  17.301   6.682 -0.2465  0.0918 -0.2627
 1155ERGO    R516154  15.048  17.154   6.697 -0.1471  0.2185  0.1010
 1155ERGO    C116155  14.750  16.936   6.791 -0.1282  0.0877 -0.1313
 1155ERGO    C216156  14.475  16.878   6.696 -0.2033 -0.0551  0.1339
 1156ERGO   ROH16157  10.967   4.654   5.468 -0.2215  0.1307  0.2198
 1156ERGO    R116158  10.977   4.616   5.748 -0.1474  0.0936  0.2106
 1156ERGO    R216159  10.750   4.615   5.906 -0.1077 -0.0397  0.2484
 1156ERGO    R316160  10.847   4.374   5.987  0.0208 -0.0048  0.2096
 1156ERGO    R416161  10.744   4.499   6.231 -0.4660 -0.2553  0.1726
 1156ERGO    R516162  10.944   4.419   6.201 -0.3232 -0.0375  0.3917
 1156ERGO    C116163  10.832   4.206   6.497 -0.5541 -0.3481  0.0920
 1156ERGO    C216164  10.819   4.146   6.870  0.2208  0.0122  0.1758
 1157ERGO   ROH16165  17.683   8.525   9.453  0.0956 -0.2032 -0.1587
 1157ERGO    R116166  17.618   8.703   9.243  0.1273 -0.1203 -0.0985
 1157ERGO    R216167  17.746   8.698   8.998 -0.0588 -0.2418 -0.1951
 1157ERGO    R316168  17.493   8.676   8.902 -0.1570  0.0325 -0.0099
 1157ERGO    R416169  17.624   8.867   8.722 -0.0246 -0.2277 -0.2015
 1157ERGO    R516170  17.437   8.898   8.830  0.0823  0.0719 -0.0875
 1157ERGO    C116171  17.315   8.944   8.472 -0.0967  0.0380 -0.0314
 1157ERGO    C216172  17.446   8.975   8.193  0.1590 -0.2882  0.0283
 1158ERGO   ROH16173   2.651   1.638   6.244  0.1005 -0.2752 -0.0842
 1158ERGO    R116174   2.725   1.679   6.514  0.1985 -0.3167 -0.1052
 1158ERGO    R216175   2.543   1.750   6.710  0.3110 -0.1081 -0.0779
 1158ERGO    R316176   2.643   1.531   6.836  0.1163 -0.1941 -0.0677
 1158ERGO    R416177   2.600   1.725   7.050  0.4538 -0.0690 -0.0977
 1158ERGO    R516178   2.785   1.620   7.007  0.3127 -0.3051 -0.1647
 1158ERGO    C116179   2.727   1.506   7.366  0.3543 -0.1269 -0.0997
 1158ERGO    C216180   2.798   1.506   7.607 -0.3876  0.2161  0.2919
 1159ERGO   ROH16181   0.467  14.233   6.457 -0.1507  0.1076 -0.3607
 1159ERGO    R116182   0.558  14.403   6.663 -0.0564 -0.0638 -0.2598
 1159ERGO    R216183   0.561  14.678   6.638 -0.0623 -0.0470 -0.0362
 1159ERGO    R316184   0.417  14.669   6.868  0.0418 -0.2253  0.0255
 1159ERGO    R416185   0.608  14.889   6.908 -0.1534 -0.0297 -0.0325
 1159ERGO    R516186   0.577  14.718   7.040  0.0749 -0.0856 -0.0374
 1159ERGO    C116187   0.500  15.003   7.281 -0.1088 -0.1868  0.0277
 1159ERGO    C216188   0.700  15.114   7.561  0.1586  0.1502 -0.2457
 1160ERGO   ROH16189   7.077   1.030   6.084  0.2680 -0.0955 -0.0895
 1160ERGO    R116190   7.307   0.993   6.244  0.3100 -0.0410 -0.1389
 1160ERGO    R216191   7.522   1.166   6.236  0.1134  0.2090  0.0684
 1160ERGO    R316192   7.480   1.179   6.505  0.1083 -0.1708  0.0965
 1160ERGO    R416193   7.766   1.244   6.469  0.0531  0.2023  0.1354
 1160ERGO    R516194   7.682   1.090   6.600  0.2297 -0.0690 -0.0379
 1160ERGO    C116195   7.868   1.302   6.857  0.0131 -0.1582  0.2008
 1160ERGO    C216196   8.011   1.596   6.947  0.1326  0.0161 -0.1080
 1161ERGO   ROH16197  18.732  18.389   6.173  0.0150 -0.1598 -0.0220
 1161ERGO    R116198  18.660  18.451   6.440 -0.0190 -0.0771 -0.0505
 1161ERGO    R216199  18.584  18.258   6.622  0.0992 -0.0365  0.0395
 1161ERGO    R316200  18.782  18.368   6.773  0.0345  0.1533 -0.0106
 1161ERGO    R416201  18.559  18.329   6.959  0.1505 -0.1629  0.0714
 1161ERGO    R516202  18.667  18.515   6.923 -0.0802 -0.0218  0.0783
 1161ERGO    C116203  18.730  18.475   7.297  0.1194 -0.0584  0.0429
 1161ERGO    C216204  18.537  18.365   7.568  0.2023  0.1445  0.0207
 1162ERGO   ROH16205  14.771   1.850   5.834 -0.2872 -0.1956 -0.0738
 1162ERGO    R116206  14.610   1.912   6.059 -0.2717 -0.2891 -0.0359
 1162ERGO    R216207  14.457   1.723   6.189  0.0250 -0.4267  0.1278
 1162ERGO    R316208  14.593   1.810   6.407  0.0135 -0.1401  0.0244
 1162ERGO    R416209  14.375   1.647   6.516  0.0168 -0.0067  0.2290
 1162ERGO    R516210  14.422   1.852   6.571  0.0084  0.0665 -0.0335
 1162ERGO    C116211  14.455   1.685   6.912  0.0011  0.5069  0.1909
 1162ERGO    C216212  14.415   1.715   7.273 -0.1698  0.5858  0.1906
 1163ERGO   ROH16213  10.168   6.397   5.943  0.1759  0.4038  0.0193
 1163ERGO    R116214   9.984   6.566   6.075  0.0028  0.1944  0.0510
 1163ERGO    R216215   9.711   6.520   6.071  0.0456 -0.0855  0.0497
 1163ERGO    R316216   9.738   6.532   6.342  0.0404 -0.1027  0.0508
 1163ERGO    R416217   9.455   6.591   6.292  0.0924  0.1305  0.0369
 1163ERGO    R516218   9.595   6.712   6.408  0.1860  0.0170  0.0413
 1163ERGO    C116219   9.331   6.643   6.675  0.1147  0.2402  0.0305
 1163ERGO    C216220   9.130   6.522   6.909  0.1920  0.1937  0.1912
 1164ERGO   ROH16221  18.563   7.037   5.701 -0.2211 -0.2767 -0.0750
 1164ERGO    R116222  18.626   6.869   5.920 -0.0851 -0.1678 -0.0268
 1164ERGO    R216223  18.821   6.934   6.106 -0.0173 -0.0372 -0.1288
 1164ERGO    R316224  18.619   6.894   6.283  0.0621 -0.0085 -0.0352
 1164ERGO    R416225  18.856   6.932   6.450  0.1908 -0.3353 -0.1509
 1164ERGO    R516226  18.718   6.764   6.458  0.0617 -0.2244 -0.1975
 1164ERGO    C116227  18.687   6.892   6.816  0.3863 -0.4820 -0.0759
 1164ERGO    C216228  18.580   6.801   7.154 -0.2795  0.1941 -0.3099
 1165ERGO   ROH16229  12.025  18.448   5.632  0.3515 -0.3564  0.0013
 1165ERGO    R116230  11.861  18.395   5.857  0.2398 -0.0678 -0.0076
 1165ERGO    R216231  11.755  18.145   5.907 -0.0616  0.0761  0.0819
 1165ERGO    R316232  11.875  18.178   6.149 -0.0750  0.0417  0.0937
 1165ERGO    R416233  11.638  18.014   6.205 -0.0095 -0.0841  0.0332
 1165ERGO    R516234  11.693  18.201   6.303 -0.0894 -0.0922  0.1016
 1165ERGO    C116235  11.683  17.969   6.605  0.0082 -0.2098  0.0159
 1165ERGO    C216236  11.442  17.736   6.848  0.2347  0.4500  0.2999
 1166ERGO   ROH16237  12.092   6.502   6.078  0.1868  0.1620 -0.1026
 1166ERGO    R116238  12.167   6.364   6.314  0.0733  0.0328 -0.1405
 1166ERGO    R216239  12.243   6.495   6.545  0.1485 -0.0929 -0.0944
 1166ERGO    R316240  12.048   6.342   6.657  0.0320  0.0061 -0.1554
 1166ERGO    R416241  12.227   6.410   6.880 -0.0395 -0.0130 -0.0813
 1166ERGO    R516242  12.163   6.210   6.821 -0.0915 -0.0056 -0.0710
 1166ERGO    C116243  12.036   6.217   7.180 -0.2584  0.1265 -0.1309
 1166ERGO    C216244  11.806   6.301   7.531 -0.1007  0.0933 -0.0617
 1167ERGO   ROH16245   3.226  15.319   5.876 -0.0041 -0.0605  0.1137
 1167ERGO    R116246   3.355  15.487   6.064 -0.0768 -0.0289  0.1337
 1167ERGO    R216247   3.216  15.625   6.260 -0.1445 -0.0440  0.0901
 1167ERGO    R316248   3.390  15.498   6.426 -0.1606 -0.0010  0.1421
 1167ERGO    R416249   3.273  15.713   6.589 -0.2622 -0.0224  0.1066
 1167ERGO    R516250   3.485  15.675   6.557 -0.2403  0.0278  0.1672
 1167ERGO    C116251   3.470  15.645   6.937 -0.3460  0.0306  0.1650
 1167ERGO    C216252   3.404  15.478   7.201 -0.3600  0.3796  0.0805
 1168ERGO   ROH16253   0.371   9.476   5.929  0.0593 -0.0894  0.0592
 1168ERGO    R116254   0.506   9.501   6.176  0.0718 -0.1108  0.0551
 1168ERGO    R216255   0.464   9.712   6.349  0.3074  0.0414 -0.0638
 1168ERGO    R316256   0.414   9.514   6.528  0.0577  0.1950  0.0419
 1168ERGO    R416257   0.624   9.675   6.652  0.1609  0.0721  0.0181
 1168ERGO    R516258   0.629   9.460   6.618 -0.0263  0.0472  0.1529
 1168ERGO    C116259   0.671   9.468   6.997 -0.1588  0.2340  0.1650
 1168ERGO    C216260   1.000   9.297   7.180  0.1611 -0.5627 -0.0452
 1169ERGO   ROH16261  10.491  13.282   9.142  0.0733  0.1277 -0.1879
 1169ERGO    R116262  10.546  13.095   8.937 -0.1246 -0.0279 -0.1025
 1169ERGO    R216263  10.356  12.917   8.844 -0.3581  0.2123 -0.1093
 1169ERGO    R316264  10.420  13.025   8.603 -0.1085  0.0419 -0.1220
 1169ERGO    R416265  10.265  12.784   8.539 -0.3100  0.1744 -0.1066
 1169ERGO    R516266  10.463  12.835   8.463 -0.2164 -0.0594 -0.0142
 1169ERGO    C116267  10.272  12.807   8.134 -0.0478 -0.0078 -0.1172
 1169ERGO    C216268  10.010  13.041   7.991 -0.0351 -0.2145  0.1163
 1170ERGO   ROH16269   0.924   1.287   6.227 -0.1675 -0.0453 -0.0670
 1170ERGO    R116270   0.967   1.045   6.366  0.1080  0.0209 -0.0299
 1170ERGO    R216271   1.184   1.006   6.533  0.0804  0.3450  0.0946
 1170ERGO    R316272   0.992   0.941   6.714  0.0671  0.0809 -0.0100
 1170ERGO    R416273   1.236   0.814   6.816  0.1223  0.1963 -0.0131
 1170ERGO    R516274   1.044   0.716   6.779  0.2092  0.0779 -0.1395
 1170ERGO    C116275   1.085   0.641   7.151  0.1342 -0.1381 -0.1739
 1170ERGO    C216276   1.220   0.615   7.489 -0.1552 -0.5640 -0.1067
 1171ERGO   ROH16277   8.726  16.794   5.570 -0.0785  0.2046 -0.0247
 1171ERGO    R116278   8.772  16.923   5.818  0.0444  0.1208 -0.0037
 1171ERGO    R216279   8.569  16.986   5.993  0.1153  0.2025  0.0449
 1171ERGO    R316280   8.721  16.847   6.170  0.0642  0.0725 -0.0103
 1171ERGO    R416281   8.512  16.973   6.333 -0.0371 -0.1120  0.0125
 1171ERGO    R516282   8.728  16.987   6.364 -0.0504 -0.0959  0.1209
 1171ERGO    C116283   8.621  16.836   6.698 -0.1739 -0.4172 -0.0583
 1171ERGO    C216284   8.563  16.839   7.148 -0.0107  0.2073  0.1355
 1172ERGO   ROH16285  14.202  10.542   5.832  0.1786 -0.2054  0.1030
 1172ERGO    R116286  14.265  10.730   6.034  0.1235 -0.0523 -0.0205
 1172ERGO    R216287  14.267  10.664   6.303  0.0002  0.1674  0.0331
 1172ERGO    R316288  14.519  10.765   6.292  0.0176  0.1172  0.0625
 1172ERGO    R416289  14.437  10.798   6.572  0.0459  0.0024  0.0882
 1172ERGO    R516290  14.514  10.953   6.439  0.0679  0.0483  0.1552
 1172ERGO    C116291  14.773  10.971   6.718  0.0888 -0.1408  0.1477
 1172ERGO    C216292  14.856  11.035   6.973 -0.0479  0.1604 -0.0901
 1173ERGO   ROH16293  11.917  15.571   5.947  0.0056 -0.3929 -0.0645
 1173ERGO    R116294  12.041  15.459   6.176  0.0094 -0.3855 -0.0627
 1173ERGO    R216295  11.931  15.477   6.429  0.1523 -0.1309 -0.0143
 1173ERGO    R316296  11.958  15.206   6.424 -0.1192 -0.1631  0.1236
 1173ERGO    R416297  11.888  15.268   6.701  0.2354  0.0792  0.1627
 1173ERGO    R516298  12.059  15.152   6.634  0.0515 -0.1307  0.0500
 1173ERGO    C116299  11.887  14.893   6.855  0.0289  0.1714  0.3952
 1173ERGO    C216300  12.005  14.706   7.191  0.2124 -0.0293 -0.2398
 1174ERGO   ROH16301   8.506   5.298   7.172 -0.0127  0.1446  0.2964
 1174ERGO    R116302   8.705   5.486   7.241  0.0471  0.1339  0.1568
 1174ERGO    R216303   8.968   5.461   7.160  0.0275  0.0201  0.1287
 1174ERGO    R316304   8.928   5.712   7.064  0.0785 -0.0235 -0.0087
 1174ERGO    R416305   9.200   5.717   7.176 -0.0685  0.0944  0.3687
 1174ERGO    R516306   9.037   5.854   7.224 -0.1828  0.0614  0.1014
 1174ERGO    C116307   9.297   6.102   7.095 -0.0764  0.0966  0.3795
 1174ERGO    C216308   9.488   6.361   7.246  0.2145  0.0406 -0.2101
 1175ERGO   ROH16309  17.334   6.217   6.127 -0.0546 -0.0991  0.0515
 1175ERGO    R116310  17.161   6.307   6.333  0.0092 -0.0158  0.0712
 1175ERGO    R216311  17.252   6.447   6.553  0.0914  0.0010  0.0340
 1175ERGO    R316312  17.064   6.627   6.476  0.1277  0.0364  0.0328
 1175ERGO    R416313  17.115   6.688   6.758  0.0456 -0.0469  0.0583
 1175ERGO    R516314  16.921   6.649   6.667  0.0736 -0.0053 -0.0075
 1175ERGO    C116315  16.859   6.999   6.806  0.0530 -0.0416  0.0712
 1175ERGO    C216316  16.688   7.171   7.077 -0.1910  0.2792  0.1091
 1176ERGO   ROH16317  17.798  12.239   6.164 -0.3104 -0.2539  0.1267
 1176ERGO    R116318  17.795  12.189   6.443 -0.1233  0.2690  0.2317
 1176ERGO    R216319  17.906  11.963   6.555 -0.6072  0.1614  0.4990
 1176ERGO    R316320  18.041  12.143   6.707  0.0748  0.0900  0.0233
 1176ERGO    R416321  18.037  11.898   6.868 -0.7332  0.4251  0.6111
 1176ERGO    R516322  17.971  12.096   6.931 -0.0431  0.8451  0.1801
 1176ERGO    C116323  18.241  12.029   7.193 -0.1665  0.5115  0.2298
 1176ERGO    C216324  18.404  12.066   7.522  0.3518  0.0047 -0.0727
 1177ERGO   ROH16325  17.368   0.847   6.145 -0.2882  0.1205  0.1298
 1177ERGO    R116326  17.471   0.915   6.400 -0.1173  0.0704  0.0755
 1177ERGO    R216327  17.312   1.007   6.606  0.0295  0.1055  0.1796
 1177ERGO    R316328  17.427   0.802   6.743  0.0470  0.0580  0.0927
 1177ERGO    R416329  17.269   0.945   6.944 -0.0672 -0.1239  0.1267
 1177ERGO    R516330  17.480   0.895   6.957 -0.0589 -0.0620  0.1700
 1177ERGO    C116331  17.351   0.717   7.268 -0.1071 -0.3022  0.0142
 1177ERGO    C216332  17.399   0.616   7.548  0.1750  0.0296  0.0983
 1178ERGO   ROH16333   6.325   9.660   6.022 -0.2087  0.1155 -0.0276
 1178ERGO    R116334   6.341   9.646   6.305 -0.0266  0.0794 -0.0386
 1178ERGO    R216335   6.557   9.746   6.446  0.0321  0.1268 -0.1598
 1178ERGO    R316336   6.364   9.883   6.580  0.0718  0.0467 -0.0180
 1178ERGO    R416337   6.612   9.944   6.724  0.1613  0.1900 -0.2295
 1178ERGO    R516338   6.428   9.866   6.810  0.2703  0.1077 -0.0667
 1178ERGO    C116339   6.464  10.188   7.011  0.2738  0.1517 -0.1371
 1178ERGO    C216340   6.484  10.348   7.231  0.2419  0.1322  0.2170
 1179ERGO   ROH16341  13.577  12.580   5.975 -0.1678  0.0708  0.0728
 1179ERGO    R116342  13.415  12.608   6.206 -0.0783 -0.2381  0.1774
 1179ERGO    R216343  13.464  12.469   6.440  0.4644 -0.0054  0.2107
 1179ERGO    R316344  13.463  12.718   6.549 -0.1038  0.0589  0.0910
 1179ERGO    R416345  13.419  12.537   6.775  0.4261  0.0313  0.1987
 1179ERGO    R516346  13.295  12.707   6.720 -0.0259 -0.2837  0.1611
 1179ERGO    C116347  13.392  12.811   7.074 -0.1297  0.1132  0.0795
 1179ERGO    C216348  13.382  12.843   7.439 -0.1841  0.3514 -0.1077
 1180ERGO   ROH16349   0.731   7.351   6.107 -0.0412  0.0863 -0.0545
 1180ERGO    R116350   0.812   7.255   6.360 -0.0176  0.1523 -0.0366
 1180ERGO    R216351   1.052   7.327   6.478 -0.0441  0.2475 -0.0408
 1180ERGO    R316352   0.891   7.398   6.685 -0.0729  0.2291 -0.0568
 1180ERGO    R416353   1.163   7.465   6.774 -0.0596  0.0090  0.0785
 1180ERGO    R516354   1.018   7.341   6.880 -0.1757  0.0374 -0.0432
 1180ERGO    C116355   1.076   7.612   7.142 -0.0956 -0.1471  0.1329
 1180ERGO    C216356   1.173   7.741   7.418 -0.0407  0.0710  0.2089
 1181ERGO   ROH16357  18.819   3.023   9.602  0.1063 -0.0220  0.0644
 1181ERGO    R116358  18.665   3.048   9.366 -0.0425 -0.0343  0.1586
 1181ERGO    R216359  18.778   3.093   9.118 -0.2016  0.0183  0.0924
 1181ERGO    R316360  18.636   2.872   9.049 -0.1908 -0.0091  0.1579
 1181ERGO    R416361  18.693   3.007   8.795 -0.1990 -0.0831  0.1186
 1181ERGO    R516362  18.497   2.945   8.868 -0.1948 -0.0708  0.1369
 1181ERGO    C116363  18.509   2.749   8.541 -0.1874 -0.1678  0.1953
 1181ERGO    C216364  18.458   2.613   8.259  0.3003  0.1052  0.1659
 1182ERGO   ROH16365   4.313   9.709   6.673 -0.3765  0.1475 -0.0002
 1182ERGO    R116366   4.514   9.834   6.828 -0.2404  0.0139 -0.0668
 1182ERGO    R216367   4.493  10.095   6.916 -0.0773 -0.0004  0.0153
 1182ERGO    R316368   4.539   9.983   7.159 -0.0042 -0.0863 -0.0370
 1182ERGO    R416369   4.601  10.268   7.195 -0.1631 -0.0649  0.0891
 1182ERGO    R516370   4.731  10.099   7.243 -0.0651 -0.0146  0.0068
 1182ERGO    C116371   4.707  10.263   7.586 -0.1445 -0.1829  0.0830
 1182ERGO    C216372   4.678  10.539   7.733  0.0050 -0.0212  0.1915
 1183ERGO   ROH16373   2.853  18.705   5.859  0.1603 -0.0144  0.1069
 1183ERGO    R116374   2.955  18.765   6.116  0.0883  0.1126  0.1065
 1183ERGO    R216375   2.908  19.007   6.242 -0.0525  0.1272  0.0271
 1183ERGO    R316376   2.816  18.848   6.442 -0.0067  0.1411  0.0595
 1183ERGO    R416377   2.977  19.052   6.578 -0.1683  0.2941  0.0301
 1183ERGO    R516378   2.998  18.836   6.597 -0.0379  0.3118  0.1132
 1183ERGO    C116379   2.931  18.928   6.961 -0.1927  0.4045  0.0622
 1183ERGO    C216380   2.709  18.883   7.212  0.1487  0.2891 -0.0545
 1184ERGO   ROH16381   8.661   6.043   6.970 -0.0596 -0.1541 -0.1002
 1184ERGO    R116382   8.559   6.268   7.108 -0.1211 -0.2381 -0.0085
 1184ERGO    R216383   8.669   6.520   7.082 -0.1283 -0.2187  0.1709
 1184ERGO    R316384   8.414   6.589   7.019 -0.1112 -0.1956  0.1232
 1184ERGO    R416385   8.499   6.790   7.215 -0.1060 -0.1680  0.0984
 1184ERGO    R516386   8.320   6.666   7.225 -0.1268 -0.1428  0.0991
 1184ERGO    C116387   8.161   7.013   7.232 -0.0770 -0.1167  0.0116
 1184ERGO    C216388   7.972   7.254   7.127 -0.1509  0.0768  0.3005
 1185ERGO   ROH16389   3.572   2.988   5.835 -0.1645  0.0410  0.1151
 1185ERGO    R116390   3.650   3.104   6.081 -0.0443 -0.0703  0.1304
 1185ERGO    R216391   3.524   3.046   6.320 -0.0622 -0.0215  0.1321
 1185ERGO    R316392   3.777   2.986   6.401 -0.0980 -0.2356  0.0916
 1185ERGO    R416393   3.617   2.993   6.648 -0.0066  0.1603  0.1471
 1185ERGO    R516394   3.801   3.104   6.609  0.1085 -0.0790 -0.0177
 1185ERGO    C116395   3.908   2.905   6.916 -0.0077  0.0652  0.1178
 1185ERGO    C216396   4.103   2.771   7.102  0.0566 -0.1146  0.0846
 1186ERGO   ROH16397  10.103   8.064   6.171  0.0381  0.0517  0.1907
 1186ERGO    R116398   9.980   7.915   6.378  0.0032  0.0166  0.1478
 1186ERGO    R216399  10.110   7.711   6.512 -0.0331 -0.0499  0.1054
 1186ERGO    R316400  10.040   7.854   6.732 -0.0143 -0.0840  0.1306
 1186ERGO    R416401  10.037   7.575   6.821 -0.1747 -0.0902  0.0531
 1186ERGO    R516402   9.875   7.720   6.841 -0.1006 -0.0241  0.0569
 1186ERGO    C116403   9.929   7.631   7.208 -0.2395 -0.1455  0.0463
 1186ERGO    C216404   9.936   7.436   7.437  0.0474  0.1659  0.0480
 1187ERGO   ROH16405  13.748  15.529   5.983 -0.0354 -0.2312 -0.0546
 1187ERGO    R116406  13.630  15.334   6.151 -0.0383 -0.1384  0.0532
 1187ERGO    R216407  13.593  15.375   6.422 -0.0282  0.0060  0.0380
 1187ERGO    R316408  13.335  15.312   6.363 -0.0315 -0.0113  0.0754
 1187ERGO    R416409  13.341  15.334   6.655  0.0477 -0.2014  0.0846
 1187ERGO    R516410  13.268  15.164   6.540  0.0513 -0.1397 -0.0022
 1187ERGO    C116411  12.952  15.251   6.735  0.0887 -0.3385  0.1470
 1187ERGO    C216412  12.810  15.356   7.059  0.1400  0.6079  0.0310
 1188ERGO   ROH16413   5.304   2.692   6.286  0.2911 -0.0835  0.0612
 1188ERGO    R116414   5.391   2.888   6.471  0.0869  0.0544  0.0139
 1188ERGO    R216415   5.223   3.086   6.567 -0.1566 -0.1667  0.0566
 1188ERGO    R316416   5.302   2.990   6.809  0.0651 -0.0407  0.0369
 1188ERGO    R416417   5.208   3.261   6.865 -0.2033 -0.1309  0.0334
 1188ERGO    R516418   5.402   3.178   6.918 -0.0847  0.0879 -0.0440
 1188ERGO    C116419   5.274   3.273   7.265 -0.0224  0.0083  0.0013
 1188ERGO    C216420   5.252   3.240   7.655 -0.1664  0.1250  0.1359
 1189ERGO   ROH16421   6.926  13.184   6.223  0.2653  0.1466  0.0253
 1189ERGO    R116422   6.736  13.218   6.430  0.1761 -0.0398 -0.0259
 1189ERGO    R216423   6.795  13.170   6.695  0.1284 -0.0589 -0.0265
 1189ERGO    R316424   6.704  13.424   6.729 -0.0711 -0.1322  0.0159
 1189ERGO    R416425   6.662  13.294   6.989  0.5028 -0.0808  0.1592
 1189ERGO    R516426   6.512  13.400   6.870  0.1842 -0.2762  0.3602
 1189ERGO    C116427   6.500  13.605   7.192  0.5336 -0.1624  0.3071
 1189ERGO    C216428   6.502  13.732   7.447 -0.0686  0.1356  0.2912
 1190ERGO   ROH16429   4.291   5.170   9.757  0.2048 -0.0599  0.0850
 1190ERGO    R116430   4.301   5.090   9.486  0.2508  0.0362  0.0587
 1190ERGO    R216431   4.107   5.160   9.303  0.0816 -0.2166  0.1407
 1190ERGO    R316432   4.319   5.256   9.162 -0.1079  0.1640  0.0995
 1190ERGO    R416433   4.130   5.162   8.958  0.1485 -0.5085  0.1400
 1190ERGO    R516434   4.340   5.105   8.977  0.2975  0.0153  0.2523
 1190ERGO    C116435   4.343   5.254   8.625  0.0096 -0.3211  0.1010
 1190ERGO    C216436   4.281   5.292   8.386 -0.0990 -0.1748 -0.5592
 1191ERGO   ROH16437  18.571  16.469   9.569 -0.2614  0.1290  0.1846
 1191ERGO    R116438  18.512  16.490   9.293 -0.2555  0.0991  0.1807
 1191ERGO    R216439  18.402  16.718   9.182 -0.0363  0.1765  0.1133
 1191ERGO    R316440  18.617  16.701   9.016 -0.0583 -0.0919  0.1075
 1191ERGO    R416441  18.387  16.734   8.837 -0.0134  0.2928  0.1176
 1191ERGO    R516442  18.538  16.576   8.827 -0.2419  0.0739  0.0737
 1191ERGO    C116443  18.580  16.728   8.480 -0.0204  0.1085  0.1147
 1191ERGO    C216444  18.554  16.855   8.097  0.0175  0.2358  0.0888
 1192ERGO   ROH16445  18.284  14.898   6.114  0.1215  0.1261  0.0640
 1192ERGO    R116446  18.313  15.135   6.266  0.1643  0.1029  0.0924
 1192ERGO    R216447  18.114  15.325   6.284  0.2431  0.1939  0.0182
 1192ERGO    R316448  18.147  15.288   6.552  0.1098  0.1595  0.0304
 1192ERGO    R416449  17.939  15.494   6.530  0.2085  0.2518 -0.0457
 1192ERGO    R516450  18.124  15.507   6.646  0.1642  0.1627  0.0362
 1192ERGO    C116451  17.868  15.557   6.925  0.0634  0.2533 -0.0714
 1192ERGO    C216452  17.790  15.753   7.158 -0.0572  0.0995  0.0247
 1193ERGO   ROH16453   5.722  15.877   5.911 -0.1929 -0.0342  0.0119
 1193ERGO    R116454   5.669  15.856   6.188 -0.0453 -0.1339  0.0346
 1193ERGO    R216455   5.415  15.812   6.288 -0.0243  0.0124  0.1630
 1193ERGO    R316456   5.535  15.603   6.414 -0.1090 -0.1467 -0.0178
 1193ERGO    R416457   5.332  15.698   6.604  0.2959  0.1318  0.2941
 1193ERGO    R516458   5.545  15.670   6.644  0.3274 -0.1515 -0.0267
 1193ERGO    C116459   5.396  15.436   6.905  0.4027  0.0519  0.2008
 1193ERGO    C216460   5.173  15.140   7.141 -0.1393  0.0096 -0.1221
 1194ERGO   ROH16461  17.497  18.016   6.143  0.0633 -0.2720  0.0160
 1194ERGO    R116462  17.434  17.916   6.401  0.0614 -0.1487  0.0643
 1194ERGO    R216463  17.625  17.808   6.568  0.0570 -0.0851  0.1111
 1194ERGO    R316464  17.529  17.992   6.744  0.0740  0.0039  0.0277
 1194ERGO    R416465  17.685  17.807   6.909  0.0129  0.0347  0.1196
 1194ERGO    R516466  17.478  17.865   6.941  0.0216  0.0915  0.0705
 1194ERGO    C116467  17.629  17.979   7.272  0.0029  0.1879  0.0464
 1194ERGO    C216468  17.706  18.160   7.563 -0.0229 -0.1303 -0.0781
 1195ERGO   ROH16469  10.720  14.679   5.760 -0.3457  0.0973 -0.1661
 1195ERGO    R116470  10.573  14.775   5.981 -0.2830  0.0364 -0.0975
 1195ERGO    R216471  10.438  14.607   6.155 -0.1434 -0.0183 -0.0414
 1195ERGO    R316472  10.584  14.737   6.343 -0.1078  0.0311 -0.1027
 1195ERGO    R416473  10.357  14.624   6.490 -0.0373 -0.0043 -0.0162
 1195ERGO    R516474  10.421  14.833   6.490 -0.0812  0.0103 -0.0579
 1195ERGO    C116475  10.447  14.757   6.863  0.0580  0.0501 -0.0589
 1195ERGO    C216476  10.364  14.790   7.195  0.0592 -0.1816  0.1298
 1196ERGO   ROH16477  11.918   4.339   5.581 -0.3519  0.0828 -0.0868
 1196ERGO    R116478  11.775   4.175   5.762 -0.3011 -0.0788 -0.1891
 1196ERGO    R216479  11.717   3.909   5.709  0.1022 -0.1770 -0.1978
 1196ERGO    R316480  11.838   3.869   5.949 -0.0557  0.0381 -0.0802
 1196ERGO    R416481  11.681   3.627   5.904  0.3139 -0.1812 -0.1631
 1196ERGO    R516482  11.674   3.755   6.080 -0.0143 -0.1517 -0.1996
 1196ERGO    C116483  11.773   3.424   6.244  0.2890  0.0183 -0.0326
 1196ERGO    C216484  11.706   3.227   6.403 -0.1221  0.2778 -0.2017
 1197ERGO   ROH16485   7.785   4.715   5.664  0.1020  0.3589  0.0753
 1197ERGO    R116486   7.947   4.610   5.871  0.0124  0.2135  0.0731
 1197ERGO    R216487   8.002   4.751   6.102  0.1089  0.1474  0.0878
 1197ERGO    R316488   7.905   4.528   6.223 -0.0662  0.2088  0.0640
 1197ERGO    R416489   8.103   4.635   6.412 -0.0071  0.0671  0.0960
 1197ERGO    R516490   8.096   4.432   6.332 -0.1413  0.0707  0.0833
 1197ERGO    C116491   8.070   4.358   6.706 -0.2390  0.0779  0.0783
 1197ERGO    C216492   8.087   4.337   6.996 -0.0530 -0.0015 -0.3210
 1198ERGO   ROH16493   7.174   8.058   5.959 -0.1494  0.0502  0.0200
 1198ERGO    R116494   7.068   8.065   6.221  0.0453 -0.2717  0.1131
 1198ERGO    R216495   7.223   8.017   6.445  0.3988  0.1728 -0.0220
 1198ERGO    R316496   7.126   8.259   6.524 -0.2593 -0.0919  0.0633
 1198ERGO    R416497   7.162   8.107   6.773  0.5989  0.0315  0.0566
 1198ERGO    R516498   6.979   8.206   6.707  0.1550 -0.5415  0.2984
 1198ERGO    C116499   7.036   8.386   7.039  0.0976 -0.2993  0.1825
 1198ERGO    C216500   7.110   8.417   7.350 -0.2035  0.3175 -0.0725
 1199ERGO   ROH16501  11.745  13.688   7.520 -0.0134  0.0864  0.0794
 1199ERGO    R116502  11.553  13.690   7.728  0.1028  0.0365  0.1873
 1199ERGO    R216503  11.402  13.468   7.792 -0.0470  0.0978  0.0388
 1199ERGO    R316504  11.501  13.513   8.041  0.1265 -0.2434  0.0376
 1199ERGO    R416505  11.226  13.423   8.086 -0.0592  0.2835  0.0621
 1199ERGO    R516506  11.317  13.605   8.163  0.3397  0.0664  0.1434
 1199ERGO    C116507  11.216  13.438   8.491  0.0965  0.0714  0.0746
 1199ERGO    C216508  11.083  13.468   8.829 -0.1128  0.0916  0.0136
 1200ERGO   ROH16509  10.835   9.956   6.000 -0.0300 -0.2234  0.0760
 1200ERGO    R116510  11.054  10.090   6.118  0.0027 -0.0894 -0.1322
 1200ERGO    R216511  11.142  10.035   6.374  0.0475  0.2241 -0.0767
 1200ERGO    R316512  11.381   9.998   6.249  0.0213  0.0513 -0.0775
 1200ERGO    R416513  11.451  10.056   6.528  0.0709  0.2198 -0.1229
 1200ERGO    R516514  11.527  10.158   6.351  0.0900  0.0705 -0.2033
 1200ERGO    C116515  11.854  10.033   6.501  0.0600  0.0551 -0.1507
 1200ERGO    C216516  12.109   9.950   6.511 -0.2662 -0.1245  0.3236
 1201ERGO   ROH16517   1.182  18.381   6.624 -0.0371  0.2145 -0.0073
 1201ERGO    R116518   1.307  18.213   6.814 -0.0893  0.1284 -0.0484
 1201ERGO    R216519   1.570  18.247   6.893 -0.0782  0.0282 -0.0384
 1201ERGO    R316520   1.460  18.252   7.142 -0.0783  0.0002 -0.0378
 1201ERGO    R416521   1.732  18.152   7.183 -0.0186  0.1706 -0.0241
 1201ERGO    R516522   1.548  18.058   7.250  0.0398  0.0699 -0.0078
 1201ERGO    C116523   1.724  18.102   7.585  0.0160  0.2275 -0.0153
 1201ERGO    C216524   1.750  18.270   7.912  0.1065  0.1794  0.0704
 1202ERGO   ROH16525  12.033  14.000   5.733 -0.0782  0.0275 -0.2582
 1202ERGO    R116526  11.832  14.096   5.907 -0.0765  0.0858 -0.2869
 1202ERGO    R216527  11.562  14.074   5.850 -0.0844 -0.0479 -0.2192
 1202ERGO    R316528  11.553  13.953   6.093  0.0096  0.1226 -0.1297
 1202ERGO    R416529  11.281  14.051   6.049 -0.0219  0.0217 -0.1232
 1202ERGO    R516530  11.407  14.091   6.223  0.0130  0.1752 -0.1865
 1202ERGO    C116531  11.109  13.925   6.394  0.1027  0.2222  0.0166
 1202ERGO    C216532  10.763  13.822   6.365 -0.0449 -0.0688  0.3180
 1203ERGO   ROH16533   4.218  17.654   6.047  0.0836 -0.0654 -0.1610
 1203ERGO    R116534   4.278  17.811   6.275 -0.0516 -0.0105 -0.1624
 1203ERGO    R216535   4.084  17.948   6.416 -0.1758 -0.1978 -0.1475
 1203ERGO    R316536   4.187  17.811   6.627 -0.0293 -0.1042 -0.1568
 1203ERGO    R416537   4.027  18.024   6.749 -0.0682 -0.1444 -0.1408
 1203ERGO    R516538   4.237  17.979   6.790 -0.0323 -0.0454 -0.2170
 1203ERGO    C116539   4.091  17.938   7.140  0.1320 -0.0254 -0.1455
 1203ERGO    C216540   3.920  18.029   7.406 -0.0565  0.1447 -0.0725
 1204ERGO   ROH16541  17.907   2.242   6.262  0.1915 -0.0615 -0.0623
 1204ERGO    R116542  17.909   2.365   6.516  0.2304  0.0237 -0.1038
 1204ERGO    R216543  17.767   2.267   6.731  0.1606  0.1675 -0.0824
 1204ERGO    R316544  18.009   2.274   6.854  0.1536  0.0874 -0.0638
 1204ERGO    R416545  17.813   2.319   7.069  0.1514  0.0865 -0.0683
 1204ERGO    R516546  17.985   2.445   7.021  0.1822  0.0574 -0.0297
 1204ERGO    C116547  18.067   2.356   7.383  0.1396 -0.0359 -0.0426
 1204ERGO    C216548  17.937   2.100   7.674  0.2169  0.0806 -0.0852
 1205ERGO   ROH16549  15.880   4.447   9.446 -0.2756 -0.2171  0.0083
 1205ERGO    R116550  15.797   4.351   9.193 -0.2133  0.0729 -0.1273
 1205ERGO    R216551  15.821   4.501   8.962  0.2931  0.1647 -0.0342
 1205ERGO    R316552  15.955   4.282   8.872 -0.0210 -0.0433 -0.0080
 1205ERGO    R416553  15.887   4.433   8.629  0.2383  0.0390 -0.0191
 1205ERGO    R516554  15.842   4.223   8.669 -0.0797  0.1099 -0.0155
 1205ERGO    C116555  16.051   4.187   8.352 -0.0887 -0.2295  0.0141
 1205ERGO    C216556  16.215   4.098   7.998  0.0716 -0.2746 -0.1930
 1206ERGO   ROH16557   5.613   5.954   7.107 -0.0673 -0.2450  0.1202
 1206ERGO    R116558   5.420   5.901   7.307 -0.0709  0.0652  0.2025
 1206ERGO    R216559   5.425   5.672   7.461 -0.3841  0.0472  0.1829
 1206ERGO    R316560   5.421   5.849   7.667 -0.0005  0.0445  0.2007
 1206ERGO    R416561   5.366   5.589   7.791  0.0139  0.0635  0.2638
 1206ERGO    R516562   5.246   5.770   7.810  0.1400  0.1376  0.4363
 1206ERGO    C116563   5.329   5.706   8.177  0.6059  0.0704  0.3275
 1206ERGO    C216564   5.274   5.801   8.394 -0.0205 -0.0752  0.2826
 1207ERGO   ROH16565   5.684   0.076   5.908 -0.1044  0.1702  0.0808
 1207ERGO    R116566   5.650   0.112   6.187 -0.0348 -0.2090  0.1441
 1207ERGO    R216567   5.791  -0.034   6.374  0.2971 -0.2039 -0.0902
 1207ERGO    R316568   5.858   0.212   6.468 -0.0614 -0.1935  0.1575
 1207ERGO    R416569   6.023   0.026   6.623  0.3962 -0.1060 -0.2049
 1207ERGO    R516570   5.890   0.180   6.703  0.1838 -0.4318  0.0948
 1207ERGO    C116571   6.220   0.292   6.857  0.1173 -0.0391 -0.0393
 1207ERGO    C216572   6.396   0.467   7.004 -0.3022 -0.0172  0.1140
 1208ERGO   ROH16573   0.307  10.870   9.306 -0.0083 -0.1585 -0.0582
 1208ERGO    R116574   0.355  10.768   9.046  0.1506  0.0927 -0.1295
 1208ERGO    R216575   0.151  10.700   8.873  0.2527 -0.1787 -0.1368
 1208ERGO    R316576   0.281  10.869   8.704 -0.0814  0.1729 -0.0597
 1208ERGO    R416577   0.092  10.723   8.533  0.2704 -0.2254 -0.1444
 1208ERGO    R516578   0.307  10.743   8.502  0.2528  0.2722 -0.0907
 1208ERGO    C116579   0.180  10.896   8.177 -0.0330  0.0774 -0.0765
 1208ERGO    C216580   0.204  10.739   7.928 -0.1174 -0.0514  0.1378
 1209ERGO   ROH16581  11.830   0.496   5.816 -0.1968  0.1830 -0.1505
 1209ERGO    R116582  11.735   0.579   6.070 -0.1205  0.1921 -0.1245
 1209ERGO    R216583  11.465   0.596   6.130 -0.1033  0.2046 -0.0471
 1209ERGO    R316584  11.535   0.434   6.337 -0.0500  0.2057 -0.0641
 1209ERGO    R416585  11.378   0.650   6.460 -0.1156  0.1448 -0.0406
 1209ERGO    R516586  11.578   0.585   6.518 -0.0947  0.2014 -0.0499
 1209ERGO    C116587  11.393   0.530   6.847 -0.0729  0.1110 -0.0528
 1209ERGO    C216588  11.347   0.328   7.150  0.0639 -0.1636 -0.1220
 1210ERGO   ROH16589   1.379  15.538   6.005 -0.0763  0.0193  0.0019
 1210ERGO    R116590   1.467  15.627   6.259 -0.0477  0.0167 -0.0073
 1210ERGO    R216591   1.302  15.631   6.480 -0.0156 -0.0090  0.0166
 1210ERGO    R316592   1.501  15.483   6.591  0.0152  0.0057 -0.0180
 1210ERGO    R416593   1.313  15.534   6.811  0.0138 -0.0661 -0.0010
 1210ERGO    R516594   1.527  15.575   6.811  0.0073 -0.0283 -0.0022
 1210ERGO    C116595   1.506  15.338   7.109  0.0597 -0.0856 -0.0437
 1210ERGO    C216596   1.553  15.196   7.372  0.1157 -0.1137  0.3730
 1211ERGO   ROH16597   0.601   3.898   6.540  0.2632  0.1129  0.2853
 1211ERGO    R116598   0.348   3.888   6.666  0.1283 -0.0832  0.0091
 1211ERGO    R216599   0.216   3.651   6.715  0.3823 -0.2092  0.0980
 1211ERGO    R316600   0.210   3.744   6.971 -0.0266  0.0503  0.0035
 1211ERGO    R416601   0.022   3.518   6.969  0.4490 -0.3656  0.0687
 1211ERGO    R516602  -0.020   3.721   7.036 -0.0453 -0.3713 -0.1711
 1211ERGO    C116603  -0.097   3.528   7.356  0.1040 -0.2131 -0.0371
 1211ERGO    C216604  -0.091   3.319   7.531  0.1333  0.0463 -0.1179
 1212ERGO   ROH16605  13.792   4.762   5.921  0.2335  0.0038 -0.1728
 1212ERGO    R116606  13.868   4.768   6.193  0.2203 -0.0521 -0.1683
 1212ERGO    R216607  14.109   4.875   6.278  0.1349  0.0977 -0.1181
 1212ERGO    R316608  13.949   5.024   6.439  0.0161 -0.0925 -0.0562
 1212ERGO    R416609  14.213   5.037   6.565  0.0856  0.3191 -0.2227
 1212ERGO    R516610  14.027   4.977   6.661  0.2259  0.0705 -0.0906
 1212ERGO    C116611  14.122   5.271   6.884 -0.0546  0.2696 -0.2256
 1212ERGO    C216612  14.218   5.277   7.164 -0.0483 -0.1622 -0.3638
 1213ERGO   ROH16613  17.058  14.977   5.986  0.2491 -0.0496  0.0110
 1213ERGO    R116614  17.194  14.920   6.228  0.2664  0.2862  0.0857
 1213ERGO    R216615  17.228  15.107   6.427 -0.3249  0.3799  0.1193
 1213ERGO    R316616  17.113  14.916   6.582  0.0654  0.0674  0.0391
 1213ERGO    R416617  17.207  15.120   6.772 -0.5699  0.3077  0.1087
 1213ERGO    R516618  17.252  14.906   6.777 -0.0224  0.4148  0.1227
 1213ERGO    C116619  17.086  14.947   7.119 -0.3463 -0.0276  0.0273
 1213ERGO    C216620  17.084  14.801   7.423 -0.2613 -0.0482 -0.0798
 1214ERGO   ROH16621  16.263   8.611   5.958 -0.2935  0.1674  0.0113
 1214ERGO    R116622  16.137   8.561   6.206 -0.2091  0.0187  0.0259
 1214ERGO    R216623  16.067   8.307   6.289 -0.0795 -0.0441 -0.0521
 1214ERGO    R316624  16.213   8.374   6.509 -0.0512 -0.0652 -0.0645
 1214ERGO    R416625  16.105   8.109   6.570 -0.0473 -0.0668 -0.0724
 1214ERGO    R516626  16.086   8.288   6.693 -0.0285 -0.0775 -0.0557
 1214ERGO    C116627  16.263   8.058   6.940 -0.0018 -0.1000 -0.0959
 1214ERGO    C216628  16.303   7.759   7.245  0.3231 -0.0790 -0.4026
 1215ERGO   ROH16629   5.602   3.932   6.090  0.0083 -0.0908  0.0368
 1215ERGO    R116630   5.601   3.902   6.371 -0.0225 -0.0295  0.0435
 1215ERGO    R216631   5.821   3.961   6.527 -0.0093 -0.0814  0.0462
 1215ERGO    R316632   5.644   4.119   6.660  0.0428  0.0169 -0.0012
 1215ERGO    R416633   5.886   4.122   6.826 -0.0271 -0.1840  0.1054
 1215ERGO    R516634   5.684   4.072   6.892 -0.0915 -0.0555  0.0074
 1215ERGO    C116635   5.758   4.364   7.125  0.0115 -0.1514  0.0954
 1215ERGO    C216636   5.890   4.372   7.435  0.2998  0.1583 -0.1977
 1216ERGO   ROH16637  13.375   3.524   5.868  0.0699  0.0038  0.0521
 1216ERGO    R116638  13.232   3.715   6.021  0.0740 -0.0297  0.0973
 1216ERGO    R216639  13.093   3.647   6.250  0.1820 -0.0585  0.1544
 1216ERGO    R316640  13.244   3.843   6.361  0.1683 -0.0083  0.0861
 1216ERGO    R416641  13.027   3.800   6.553  0.2285 -0.0287  0.1498
 1216ERGO    R516642  13.086   3.990   6.465  0.1629 -0.0282  0.1066
 1216ERGO    C116643  13.132   4.073   6.834  0.2426  0.0358  0.0830
 1216ERGO    C216644  13.412   4.321   6.985  0.3584  0.2285 -0.0406
 1217ERGO   ROH16645   5.206   9.997   6.156  0.0707 -0.3413 -0.0010
 1217ERGO    R116646   5.374   9.875   6.349  0.2000 -0.1620  0.0014
 1217ERGO    R216647   5.451  10.003   6.581 -0.0125 -0.1092  0.0408
 1217ERGO    R316648   5.348   9.781   6.700  0.2632 -0.2750 -0.0228
 1217ERGO    R416649   5.503   9.913   6.911 -0.1335  0.0295  0.0995
 1217ERGO    R516650   5.523   9.706   6.846  0.2784  0.0441  0.1364
 1217ERGO    C116651   5.438   9.652   7.214  0.0548 -0.0455  0.0740
 1217ERGO    C216652   5.559   9.783   7.515  0.1804  0.0782 -0.0111
 1218ERGO   ROH16653   9.945   3.989   5.556 -0.1859 -0.1239  0.1015
 1218ERGO    R116654  10.082   3.919   5.794 -0.1691 -0.4060  0.0129
 1218ERGO    R216655  10.096   4.089   6.013  0.3039 -0.4350  0.0131
 1218ERGO    R316656   9.996   3.873   6.145 -0.0447 -0.2481  0.0661
 1218ERGO    R416657  10.132   4.030   6.351  0.4770 -0.5553 -0.0244
 1218ERGO    R516658  10.164   3.819   6.307 -0.0083 -0.6275 -0.0870
 1218ERGO    C116659  10.059   3.793   6.672  0.2507 -0.4499  0.0034
 1218ERGO    C216660  10.111   3.825   6.926 -0.2078  0.0749 -0.1357
 1219ERGO   ROH16661  15.877  10.298   8.107  0.0351 -0.0392 -0.2064
 1219ERGO    R116662  15.660  10.369   7.939 -0.1038 -0.0625 -0.0384
 1219ERGO    R216663  15.669  10.341   7.665 -0.1777  0.2678 -0.0765
 1219ERGO    R316664  15.441  10.199   7.704 -0.0210 -0.0147 -0.1514
 1219ERGO    R416665  15.413  10.312   7.435 -0.2765  0.3489  0.0209
 1219ERGO    R516666  15.270  10.331   7.599 -0.2094 -0.0248  0.1301
 1219ERGO    C116667  15.049  10.162   7.338 -0.1870  0.1309  0.0072
 1219ERGO    C216668  14.701  10.248   7.250 -0.0387  0.1659  0.2112
 1220ERGO   ROH16669   9.979  13.943   7.147  0.1896  0.0030 -0.1766
 1220ERGO    R116670  10.218  13.829   7.245  0.0244 -0.0246  0.2136
 1220ERGO    R216671  10.223  13.653   7.458 -0.3766 -0.2490  0.0486
 1220ERGO    R316672  10.356  13.494   7.282  0.0456 -0.0228  0.1509
 1220ERGO    R416673  10.290  13.317   7.506 -0.3389 -0.2701 -0.1451
 1220ERGO    R516674  10.488  13.349   7.420 -0.1705 -0.1012  0.2786
 1220ERGO    C116675  10.454  12.973   7.368  0.0793 -0.0700 -0.1617
 1220ERGO    C216676  10.495  12.623   7.317  0.0598  0.5235 -0.3341
 1221ERGO   ROH16677   4.816  12.496   6.306  0.1478 -0.0782 -0.0675
 1221ERGO    R116678   4.793  12.543   6.584  0.1345  0.1255 -0.1013
 1221ERGO    R216679   4.843  12.347   6.772 -0.1635  0.1738  0.0353
 1221ERGO    R316680   5.014  12.533   6.873  0.0512  0.0219 -0.0402
 1221ERGO    R416681   4.882  12.418   7.108  0.1805  0.0219  0.0315
 1221ERGO    R516682   4.895  12.630   7.057  0.2768  0.0336  0.1027
 1221ERGO    C116683   5.065  12.634   7.398  0.5824 -0.2089 -0.0415
 1221ERGO    C216684   5.305  12.626   7.635 -0.0887  0.1526  0.0768
 1222ERGO   ROH16685  11.030   7.088   5.886  0.0677  0.1165  0.0109
 1222ERGO    R116686  10.893   6.988   6.112  0.0553  0.1000 -0.0041
 1222ERGO    R216687  11.013   6.966   6.361  0.0580  0.0315 -0.0121
 1222ERGO    R316688  10.798   7.113   6.441  0.0874  0.0565  0.0221
 1222ERGO    R416689  10.905   6.998   6.688  0.0339 -0.0647 -0.0102
 1222ERGO    R516690  10.700   6.985   6.616  0.0370  0.0145 -0.0361
 1222ERGO    C116691  10.641   7.154   6.953  0.0474 -0.0972  0.0230
 1222ERGO    C216692  10.428   7.375   7.173  0.3517 -0.0872  0.3932
 1223ERGO   ROH16693  15.267  18.139   5.621  0.1436 -0.0861  0.0142
 1223ERGO    R116694  15.080  18.108   5.832  0.0766 -0.0910 -0.0465
 1223ERGO    R216695  14.981  17.861   5.907  0.2156 -0.1140  0.0532
 1223ERGO    R316696  15.069  17.936   6.152  0.0584  0.0887  0.0511
 1223ERGO    R416697  14.826  17.783   6.206  0.2057 -0.1654  0.0354
 1223ERGO    R516698  14.870  17.984   6.276 -0.0390 -0.0811 -0.0324
 1223ERGO    C116699  14.819  17.808   6.610  0.0523 -0.0050  0.0231
 1223ERGO    C216700  14.732  17.743   6.867 -0.2886 -0.3306 -0.3196
 1224ERGO   ROH16701   4.460   5.289   6.129  0.0522  0.0993 -0.1953
 1224ERGO    R116702   4.430   5.314   6.409  0.1234 -0.0635 -0.1725
 1224ERGO    R216703   4.640   5.382   6.575  0.0744  0.2584 -0.2403
 1224ERGO    R316704   4.470   5.578   6.656 -0.2565 -0.0782 -0.0888
 1224ERGO    R416705   4.672   5.564   6.868  0.0539  0.4043 -0.3269
 1224ERGO    R516706   4.456   5.551   6.894  0.0966 -0.0545 -0.0579
 1224ERGO    C116707   4.531   5.853   7.114 -0.2687  0.1734 -0.2352
 1224ERGO    C216708   4.464   6.080   7.389  0.3833 -0.1224 -0.1767
 1225ERGO   ROH16709  12.049  17.984   5.550  0.0139  0.0176 -0.0984
 1225ERGO    R116710  12.221  18.008   5.774 -0.1899 -0.0911  0.0768
 1225ERGO    R216711  12.444  18.171   5.773  0.2598 -0.6553  0.0809
 1225ERGO    R316712  12.330  18.274   5.997  0.2230 -0.0066 -0.2163
 1225ERGO    R416713  12.615  18.245   6.064  0.0312 -0.9756  0.3012
 1225ERGO    R516714  12.445  18.166   6.177 -0.4720 -0.2558  0.1062
 1225ERGO    C116715  12.607  18.385   6.444 -0.1366 -0.5531  0.1505
 1225ERGO    C216716  12.745  18.581   6.659  0.3886 -0.2737 -0.1614
 1226ERGO   ROH16717   3.916  14.827   9.482  0.1372  0.1890 -0.0985
 1226ERGO    R116718   3.859  14.961   9.239 -0.0553 -0.0126 -0.1680
 1226ERGO    R216719   4.025  15.156   9.135 -0.4078  0.2875 -0.1814
 1226ERGO    R316720   4.018  14.998   8.914 -0.0156  0.1850 -0.1281
 1226ERGO    R416721   4.049  15.270   8.810 -0.3456  0.1988 -0.2086
 1226ERGO    R516722   3.895  15.126   8.753 -0.0963 -0.0559 -0.2654
 1226ERGO    C116723   4.056  15.188   8.413  0.0588  0.0509 -0.1744
 1226ERGO    C216724   4.024  15.114   8.105  0.3529 -0.2069  0.1917
 1227ERGO   ROH16725  17.937   0.030   6.178 -0.2324 -0.1694 -0.1839
 1227ERGO    R116726  17.795  -0.123   6.370 -0.2008 -0.0421 -0.0594
 1227ERGO    R216727  17.790  -0.059   6.638 -0.0760  0.0761 -0.0908
 1227ERGO    R316728  17.521  -0.067   6.603 -0.0915  0.1355  0.0280
 1227ERGO    R416729  17.560  -0.123   6.888  0.0119  0.2176  0.0312
 1227ERGO    R516730  17.447  -0.244   6.746 -0.0792  0.2016  0.1184
 1227ERGO    C116731  17.173  -0.167   6.999  0.0485  0.3561  0.2137
 1227ERGO    C216732  16.829  -0.215   7.124  0.2408 -0.2707 -0.0927
 1228ERGO   ROH16733   9.645  15.770   5.856  0.0444 -0.0308  0.1128
 1228ERGO    R116734   9.576  15.777   6.131  0.1175 -0.2892  0.1392
 1228ERGO    R216735   9.329  15.863   6.220  0.2997  0.0690  0.3062
 1228ERGO    R316736   9.326  15.621   6.344 -0.1457 -0.1149 -0.0349
 1228ERGO    R416737   9.102  15.769   6.463  0.2205  0.2108  0.2892
 1228ERGO    R516738   9.265  15.671   6.570  0.0824 -0.2960  0.0734
 1228ERGO    C116739   8.967  15.487   6.721 -0.2438  0.1207 -0.0408
 1228ERGO    C216740   8.745  15.110   6.755 -0.0203 -0.2484 -0.1529
 1229ERGO   ROH16741   4.428  15.816   5.973  0.1181 -0.0049  0.1086
 1229ERGO    R116742   4.351  16.027   6.144  0.0361  0.0712 -0.0210
 1229ERGO    R216743   4.300  15.990   6.413 -0.1221  0.1841 -0.0349
 1229ERGO    R316744   4.484  16.188   6.442 -0.1232  0.1814 -0.0075
 1229ERGO    R416745   4.319  16.201   6.685 -0.1419  0.1629 -0.0167
 1229ERGO    R516746   4.363  16.366   6.548 -0.1316  0.1739 -0.0024
 1229ERGO    C116747   4.503  16.511   6.872 -0.1544  0.1478  0.0197
 1229ERGO    C216748   4.570  16.641   7.242  0.1793  0.4673  0.1682
 1230ERGO   ROH16749   3.257   0.540   6.945  0.0621  0.0461 -0.0662
 1230ERGO    R116750   3.268   0.742   7.142  0.0011  0.0120 -0.0269
 1230ERGO    R216751   3.183   0.701   7.402 -0.1404 -0.0148 -0.0721
 1230ERGO    R316752   3.432   0.790   7.463 -0.1521 -0.0761  0.0646
 1230ERGO    R416753   3.329   0.677   7.714 -0.3419  0.0298  0.0270
 1230ERGO    R516754   3.411   0.877   7.685 -0.2627 -0.0080  0.0239
 1230ERGO    C116755   3.649   0.747   7.953 -0.4701 -0.0017  0.2131
 1230ERGO    C216756   3.819   0.788   8.315  0.1443  0.1078 -0.0785
 1231ERGO   ROH16757   6.803  15.990   9.030 -0.0133 -0.0359  0.0785
 1231ERGO    R116758   6.960  15.999   8.795 -0.0337 -0.1335  0.0626
 1231ERGO    R216759   7.017  15.774   8.645 -0.2668 -0.1516  0.0111
 1231ERGO    R316760   6.913  15.922   8.442 -0.1468 -0.0110  0.0484
 1231ERGO    R416761   7.051  15.701   8.309 -0.3329 -0.1101 -0.0061
 1231ERGO    R516762   7.079  15.914   8.271 -0.1498 -0.1168  0.0428
 1231ERGO    C116763   6.973  15.798   7.923 -0.2588  0.0461  0.0189
 1231ERGO    C216764   6.831  15.519   7.688  0.2033 -0.2763  0.3533
 1232ERGO   ROH16765  10.447  16.064   9.173  0.4980  0.0945  0.0611
 1232ERGO    R116766  10.402  16.198   8.928  0.1893 -0.0418  0.0381
 1232ERGO    R216767  10.568  16.398   8.834 -0.1927  0.2507 -0.0533
 1232ERGO    R316768  10.580  16.240   8.613  0.0398  0.2095 -0.0138
 1232ERGO    R416769  10.651  16.508   8.518 -0.3207  0.2810 -0.0765
 1232ERGO    R516770  10.495  16.379   8.437 -0.1371  0.0472 -0.0560
 1232ERGO    C116771  10.711  16.425   8.125 -0.1768  0.2601 -0.0529
 1232ERGO    C216772  10.841  16.299   7.861 -0.1546 -0.0094 -0.2937
 1233ERGO   ROH16773   6.358   1.921   6.266  0.0690  0.0651  0.0895
 1233ERGO    R116774   6.393   1.771   6.503  0.1030  0.0786  0.0927
 1233ERGO    R216775   6.403   1.888   6.754 -0.0361  0.0763  0.0979
 1233ERGO    R316776   6.204   1.711   6.809  0.0613 -0.0533  0.0430
 1233ERGO    R416777   6.280   1.821   7.070 -0.0211 -0.0596  0.0759
 1233ERGO    R516778   6.269   1.610   7.016  0.1068 -0.0584  0.0290
 1233ERGO    C116779   6.021   1.617   7.305  0.0793 -0.2604  0.0115
 1233ERGO    C216780   5.902   1.651   7.517 -0.1445 -0.3192  0.0402
 1234ERGO   ROH16781   2.369   5.781   6.286  0.0281 -0.2268  0.0809
 1234ERGO    R116782   2.347   5.974   6.491  0.0135 -0.1556  0.0144
 1234ERGO    R216783   2.105   6.080   6.570 -0.0190 -0.2792  0.1036
 1234ERGO    R316784   2.186   5.997   6.816  0.1728 -0.1330  0.0909
 1234ERGO    R416785   1.959   6.177   6.869  0.1312 -0.2222  0.1583
 1234ERGO    R516786   2.159   6.190   6.956  0.1742 -0.0919  0.0256
 1234ERGO    C116787   1.951   6.155   7.273  0.3987 -0.0518  0.1783
 1234ERGO    C216788   1.805   6.245   7.549  0.3300 -0.1235 -0.0711
 1235ERGO   ROH16789  17.554   8.162   5.507  0.2177 -0.1818  0.0725
 1235ERGO    R116790  17.450   8.217   5.764  0.1473 -0.0464  0.0167
 1235ERGO    R216791  17.492   8.050   5.980 -0.0272 -0.0076  0.0875
 1235ERGO    R316792  17.584   8.278   6.096  0.0551 -0.0214  0.0483
 1235ERGO    R416793  17.575   8.081   6.314  0.0416  0.0130  0.0681
 1235ERGO    R516794  17.483   8.279   6.314  0.0977  0.0338  0.0641
 1235ERGO    C116795  17.711   8.313   6.618  0.1590  0.0121  0.0200
 1235ERGO    C216796  17.946   8.241   6.899 -0.0477 -0.2095 -0.0315
 1236ERGO   ROH16797   7.159  18.437   5.935  0.1260 -0.2688  0.0536
 1236ERGO    R116798   7.159  18.602   6.165  0.1149 -0.2925  0.0712
 1236ERGO    R216799   6.953  18.601   6.349  0.0416 -0.2146 -0.0069
 1236ERGO    R316800   7.153  18.553   6.526 -0.0478 -0.3292  0.0636
 1236ERGO    R416801   6.925  18.631   6.692 -0.0058 -0.0131 -0.0268
 1236ERGO    R516802   7.124  18.718   6.696  0.0824 -0.2137 -0.0271
 1236ERGO    C116803   7.097  18.602   7.058 -0.1173 -0.0035  0.0278
 1236ERGO    C216804   6.904  18.663   7.320  0.0537  0.1793  0.2160
 1237ERGO   ROH16805  11.709  14.629   9.053  0.0275 -0.0277  0.1901
 1237ERGO    R116806  11.854  14.791   8.872  0.1715 -0.0951  0.2414
 1237ERGO    R216807  12.125  14.760   8.829  0.1269 -0.4182  0.1235
 1237ERGO    R316808  12.049  14.739   8.569 -0.0045 -0.1588  0.1394
 1237ERGO    R416809  12.330  14.822   8.558  0.0218 -0.2854  0.0748
 1237ERGO    R516810  12.162  14.919   8.459  0.0251 -0.1225  0.2384
 1237ERGO    C116811  12.379  14.838   8.156 -0.1627  0.0355  0.0611
 1237ERGO    C216812  12.462  14.801   7.757 -0.0950  0.1422  0.3410
 1238ERGO   ROH16813   6.215  18.943   7.801 -0.0162 -0.0011  0.0801
 1238ERGO    R116814   6.326  19.054   8.037 -0.0580  0.1274  0.0409
 1238ERGO    R216815   6.191  19.238   8.193 -0.1983  0.0100  0.0657
 1238ERGO    R316816   6.243  19.059   8.391  0.0331  0.0712  0.0625
 1238ERGO    R416817   6.204  19.315   8.529 -0.1896  0.0345  0.0593
 1238ERGO    R516818   6.376  19.182   8.548 -0.0512  0.2101  0.0229
 1238ERGO    C116819   6.260  19.193   8.911  0.0327  0.1063  0.0525
 1238ERGO    C216820   6.282  19.222   9.164  0.1918 -0.0954 -0.1469
 1239ERGO   ROH16821   4.617  18.908   5.872 -0.1206  0.0778  0.0331
 1239ERGO    R116822   4.711  18.933   6.138 -0.2624  0.0683  0.0849
 1239ERGO    R216823   4.576  19.078   6.330 -0.5063 -0.1587  0.0913
 1239ERGO    R316824   4.591  18.846   6.470 -0.3135 -0.2054 -0.0028
 1239ERGO    R416825   4.529  19.051   6.671 -0.3148 -0.3131  0.1067
 1239ERGO    R516826   4.695  18.908   6.677 -0.2377 -0.2312 -0.0330
 1239ERGO    C116827   4.516  18.816   7.002 -0.0224 -0.4465  0.0272
 1239ERGO    C216828   4.484  18.803   7.372 -0.1112  0.1975  0.2272
 1240ERGO   ROH16829  13.067  17.363   5.964  0.1462  0.1419  0.1239
 1240ERGO    R116830  13.148  17.311   6.230  0.0272  0.1918  0.1699
 1240ERGO    R216831  12.986  17.363   6.448 -0.1990 -0.0714  0.0655
 1240ERGO    R316832  13.034  17.101   6.505  0.1097 -0.0238  0.0441
 1240ERGO    R416833  12.988  17.229   6.766 -0.3201 -0.1379  0.0393
 1240ERGO    R516834  13.161  17.108   6.709 -0.0894  0.1112  0.1712
 1240ERGO    C116835  13.034  16.905   7.006 -0.1008 -0.1319  0.0040
 1240ERGO    C216836  12.791  16.942   7.198 -0.0947  0.1043  0.0130
 1241ERGO   ROH16837  16.972  10.435   6.501  0.1085  0.0987  0.0658
 1241ERGO    R116838  16.806  10.281   6.671  0.1923 -0.0009  0.0561
 1241ERGO    R216839  16.908  10.108   6.861  0.2895  0.2528  0.2277
 1241ERGO    R316840  16.750  10.252   7.029 -0.0056  0.1576  0.0419
 1241ERGO    R416841  16.783   9.993   7.162  0.4990  0.3523  0.3560
 1241ERGO    R516842  16.595  10.092   7.117  0.2942 -0.0590  0.2154
 1241ERGO    C116843  16.563  10.061   7.495  0.3442  0.3209  0.2563
 1241ERGO    C216844  16.615  10.151   7.751 -0.0453 -0.0436  0.1843
 1242ERGO   ROH16845  16.481  13.989   5.980  0.0206  0.0123  0.1755
 1242ERGO    R116846  16.518  13.925   6.253 -0.0322 -0.0882  0.1602
 1242ERGO    R216847  16.662  14.087   6.425  0.1325 -0.2674  0.1947
 1242ERGO    R316848  16.434  14.077   6.574  0.1253 -0.0791  0.1983
 1242ERGO    R416849  16.646  14.132   6.768  0.1722 -0.2096  0.1886
 1242ERGO    R516850  16.500  13.971   6.778  0.0512 -0.1018  0.2118
 1242ERGO    C116851  16.424  14.149   7.106  0.1887  0.0009  0.1883
 1242ERGO    C216852  16.225  14.184   7.392  0.3725 -0.1977 -0.3819
 1243ERGO   ROH16853  13.239   1.233   5.859 -0.2971 -0.1624 -0.0476
 1243ERGO    R116854  13.114   1.168   6.105 -0.1237 -0.1405  0.0485
 1243ERGO    R216855  13.055   0.908   6.177 -0.1661 -0.1280  0.0681
 1243ERGO    R316856  13.198   0.972   6.400  0.0429 -0.2052 -0.0409
 1243ERGO    R416857  13.063   0.720   6.467 -0.1214 -0.0772  0.0997
 1243ERGO    R516858  13.056   0.906   6.582  0.1143 -0.0509  0.0704
 1243ERGO    C116859  13.200   0.671   6.845  0.1010 -0.1200  0.0157
 1243ERGO    C216860  13.245   0.481   7.051  0.4695  0.0774  0.2591
 1244ERGO   ROH16861  13.713  14.245   5.729  0.0997  0.1924  0.0190
 1244ERGO    R116862  13.620  14.226   5.996  0.0395  0.0786 -0.0078
 1244ERGO    R216863  13.478  14.007   6.089  0.0200  0.0318 -0.1268
 1244ERGO    R316864  13.673  14.002   6.279 -0.0181 -0.0403 -0.0924
 1244ERGO    R416865  13.425  13.944   6.425 -0.0960  0.2844 -0.0965
 1244ERGO    R516866  13.570  14.100   6.472  0.0435  0.1731 -0.1682
 1244ERGO    C116867  13.577  13.902   6.798 -0.1993  0.3639 -0.0465
 1244ERGO    C216868  13.777  13.731   7.006 -0.0535  0.0900  0.1226
 1245ERGO   ROH16869  16.374   1.366   9.575  0.1961 -0.1858  0.1983
 1245ERGO    R116870  16.441   1.270   9.317  0.2374 -0.2358  0.2280
 1245ERGO    R216871  16.460   1.001   9.259 -0.1882 -0.2592  0.1780
 1245ERGO    R316872  16.283   1.064   9.062  0.0748  0.1040  0.0455
 1245ERGO    R416873  16.517   0.958   8.921 -0.0672 -0.5087  0.2270
 1245ERGO    R516874  16.419   1.150   8.885  0.4045 -0.2725  0.0988
 1245ERGO    C116875  16.385   0.993   8.539  0.2505 -0.3130  0.1312
 1245ERGO    C216876  16.387   1.008   8.179 -0.2656 -0.0692 -0.2822
 1246ERGO   ROH16877  11.478   8.412   6.034 -0.0660 -0.3039 -0.0002
 1246ERGO    R116878  11.322   8.463   6.265 -0.0770 -0.0511 -0.0588
 1246ERGO    R216879  11.292   8.278   6.468 -0.4374 -0.0024 -0.0512
 1246ERGO    R316880  11.381   8.482   6.624 -0.1724 -0.1222 -0.0416
 1246ERGO    R416881  11.206   8.327   6.799 -0.2676  0.0410 -0.0133
 1246ERGO    R516882  11.192   8.540   6.759 -0.0580  0.0556  0.0335
 1246ERGO    C116883  11.238   8.547   7.138  0.0802 -0.0463  0.0179
 1246ERGO    C216884  11.104   8.716   7.390  0.0654  0.1700  0.1090
 1247ERGO   ROH16885   9.841   0.643   9.024  0.0366  0.3704  0.0105
 1247ERGO    R116886   9.895   0.547   8.764  0.0929  0.2935  0.0505
 1247ERGO    R216887   9.704   0.542   8.564  0.1141  0.1616  0.0329
 1247ERGO    R316888   9.892   0.681   8.426  0.0841  0.1711  0.0012
 1247ERGO    R416889   9.718   0.566   8.220  0.1016  0.0960  0.0276
 1247ERGO    R516890   9.935   0.547   8.232  0.1061  0.1407  0.0268
 1247ERGO    C116891   9.903   0.710   7.889  0.0662  0.0668 -0.0053
 1247ERGO    C216892   9.691   0.854   7.581  0.0511 -0.2121 -0.2238
 1248ERGO   ROH16893   6.584   6.840   6.430 -0.0742  0.0011  0.0746
 1248ERGO    R116894   6.593   6.794   6.709 -0.0281  0.0645  0.0835
 1248ERGO    R216895   6.448   6.593   6.831 -0.0064  0.0929  0.1521
 1248ERGO    R316896   6.691   6.521   6.929  0.0090  0.1151  0.1312
 1248ERGO    R416897   6.505   6.321   7.036  0.0280  0.1075  0.1621
 1248ERGO    R516898   6.645   6.443   7.151  0.0335  0.1252  0.1420
 1248ERGO    C116899   6.767   6.095   7.247  0.0625  0.1368  0.1483
 1248ERGO    C216900   6.880   5.805   7.329 -0.1258  0.0952 -0.1081
 1249ERGO   ROH16901  10.226   5.012   5.782  0.2034  0.1783  0.2627
 1249ERGO    R116902  10.141   4.962   6.047  0.2034  0.2199  0.2699
 1249ERGO    R216903  10.126   5.161   6.238 -0.0634  0.3040  0.1612
 1249ERGO    R316904   9.870   5.073   6.263  0.0279  0.0247  0.1549
 1249ERGO    R416905   9.918   5.229   6.507 -0.2110  0.2700  0.0575
 1249ERGO    R516906   9.846   5.024   6.496  0.0274  0.1712  0.1896
 1249ERGO    C116907   9.557   5.186   6.686 -0.2112 -0.0120 -0.0087
 1249ERGO    C216908   9.286   5.121   6.953 -0.3088  0.2835  0.1527
 1250ERGO   ROH16909  12.254   1.555   5.886  0.0981  0.0456 -0.0613
 1250ERGO    R116910  12.093   1.470   6.102  0.1394  0.0663 -0.0216
 1250ERGO    R216911  12.190   1.311   6.307  0.1739  0.0668 -0.0329
 1250ERGO    R316912  12.094   1.511   6.464  0.2238  0.0834 -0.0247
 1250ERGO    R416913  12.160   1.296   6.651  0.0648  0.0255 -0.0445
 1250ERGO    R516914  11.969   1.399   6.634  0.1219  0.1174 -0.0809
 1250ERGO    C116915  12.051   1.474   6.998  0.0482  0.0170 -0.0436
 1250ERGO    C216916  12.100   1.541   7.372  0.4247 -0.1334 -0.1621
 1251ERGO   ROH16917   9.597   0.563   5.958 -0.3580  0.1197 -0.3218
 1251ERGO    R116918   9.696   0.584   6.222 -0.1331  0.3765 -0.4241
 1251ERGO    R216919   9.663   0.812   6.375 -0.6204  0.2850 -0.3838
 1251ERGO    R316920   9.556   0.638   6.554  0.0527 -0.0495 -0.2691
 1251ERGO    R416921   9.637   0.870   6.715 -0.6820  0.3228 -0.3930
 1251ERGO    R516922   9.693   0.662   6.749  0.0706  0.5045 -0.3324
 1251ERGO    C116923   9.521   0.740   7.080 -0.0861  0.0308 -0.2907
 1251ERGO    C216924   9.317   0.672   7.289 -0.1446 -0.0578  0.3213
 1252ERGO   ROH16925   0.191   4.859   9.750  0.2512  0.2681  0.0651
 1252ERGO    R116926   0.328   4.938   9.515  0.0960  0.1245 -0.0757
 1252ERGO    R216927   0.587   4.860   9.460  0.0584  0.0907 -0.2008
 1252ERGO    R316928   0.477   4.772   9.228 -0.0960 -0.0510 -0.0770
 1252ERGO    R416929   0.764   4.793   9.171 -0.1757  0.3335 -0.4054
 1252ERGO    R516930   0.602   4.884   9.057 -0.4346  0.1239 -0.2224
 1252ERGO    C116931   0.764   4.672   8.785 -0.4569  0.3420 -0.4084
 1252ERGO    C216932   1.080   4.613   8.651 -0.1681  0.0052  0.2051
 1253ERGO   ROH16933   9.302  10.049   7.308  0.0789  0.1204  0.2063
 1253ERGO    R116934   9.577  10.014   7.250  0.0916  0.1425  0.2499
 1253ERGO    R216935   9.776  10.079   7.430  0.0526 -0.0378  0.3647
 1253ERGO    R316936   9.854   9.822   7.387  0.0319 -0.0101  0.1571
 1253ERGO    R416937  10.037   9.921   7.593 -0.0749 -0.2481  0.3687
 1253ERGO    R516938  10.093   9.828   7.404  0.0223 -0.0695  0.3096
 1253ERGO    C116939  10.263   9.589   7.647 -0.1686 -0.3446  0.1761
 1253ERGO    C216940  10.642   9.505   7.762 -0.0331  0.0414 -0.0062
 1254ERGO   ROH16941  14.196   7.989   5.570  0.0438 -0.2187 -0.1444
 1254ERGO    R116942  14.145   7.933   5.842  0.0184 -0.3571 -0.1764
 1254ERGO    R216943  14.213   7.692   5.960  0.3616 -0.2792 -0.1957
 1254ERGO    R316944  14.342   7.852   6.137  0.0309 -0.0967 -0.1128
 1254ERGO    R416945  14.401   7.579   6.227  0.3581 -0.0111 -0.0773
 1254ERGO    R516946  14.317   7.740   6.348  0.0590 -0.1278 -0.1299
 1254ERGO    C116947  14.631   7.663   6.549  0.0455  0.3163  0.0694
 1254ERGO    C216948  14.756   7.525   6.847  0.0713 -0.2019 -0.1223
 1255ERGO   ROH16949   7.262  12.330   6.188 -0.2927  0.0521  0.0488
 1255ERGO    R116950   7.289  12.340   6.469 -0.0605 -0.0569  0.0335
 1255ERGO    R216951   7.077  12.295   6.640  0.0317  0.0827  0.1869
 1255ERGO    R316952   7.245  12.110   6.748 -0.0480 -0.1027 -0.0017
 1255ERGO    R416953   7.053  12.171   6.962  0.2195  0.0761  0.1990
 1255ERGO    R516954   7.271  12.180   6.976  0.2486 -0.1494 -0.0160
 1255ERGO    C116955   7.196  11.925   7.250  0.2539 -0.1020  0.0290
 1255ERGO    C216956   7.430  11.856   7.462  0.0861 -0.1608 -0.0079
 1256ERGO   ROH16957  14.662  12.129   9.155  0.0368 -0.3300 -0.2731
 1256ERGO    R116958  14.777  12.220   8.913 -0.4160  0.1853 -0.3150
 1256ERGO    R216959  14.930  12.056   8.750  0.3909  0.8431 -0.2843
 1256ERGO    R316960  14.752  12.135   8.560 -0.0634 -0.0584 -0.2872
 1256ERGO    R416961  14.988  12.051   8.409  0.3150  0.8925 -0.2986
 1256ERGO    R516962  14.885  12.242   8.394 -0.5723  0.4634 -0.3935
 1256ERGO    C116963  14.854  12.122   8.033 -0.1557  0.0750 -0.3099
 1256ERGO    C216964  14.847  12.208   7.638  0.2793  0.2625 -0.1602
 1257ERGO   ROH16965   2.850   8.602   9.378 -0.2127 -0.3901  0.0272
 1257ERGO    R116966   2.922   8.606   9.105 -0.4133  0.0568 -0.0271
 1257ERGO    R216967   3.015   8.382   8.972  0.2316  0.4377 -0.2626
 1257ERGO    R316968   2.812   8.440   8.800 -0.1010 -0.0808 -0.0685
 1257ERGO    R416969   3.008   8.295   8.637  0.1282  0.4177 -0.2556
 1257ERGO    R516970   2.921   8.490   8.593 -0.4254  0.2077 -0.1791
 1257ERGO    C116971   2.813   8.299   8.281 -0.2442 -0.0807 -0.0693
 1257ERGO    C216972   2.668   8.257   8.059  0.2255 -0.0649 -0.0849
 1258ERGO   ROH16973  17.758   1.141   6.161 -0.0734 -0.0481  0.0443
 1258ERGO    R116974  17.793   1.283   6.403  0.0435 -0.2032  0.1201
 1258ERGO    R216975  17.581   1.376   6.553  0.1189 -0.0205  0.1139
 1258ERGO    R316976  17.702   1.237   6.752 -0.0899 -0.2619  0.0788
 1258ERGO    R416977  17.461   1.349   6.876  0.0504  0.0400  0.0941
 1258ERGO    R516978  17.666   1.370   6.948  0.0800 -0.2715  0.1200
 1258ERGO    C116979  17.506   1.203   7.251 -0.1854 -0.1513  0.0497
 1258ERGO    C216980  17.154   1.145   7.478 -0.1030  0.1278  0.0833
 1259ERGO   ROH16981  10.626  17.298   5.737  0.0083  0.1095 -0.0390
 1259ERGO    R116982  10.649  17.049   5.869  0.1906  0.0125 -0.2475
 1259ERGO    R216983  10.869  16.884   5.838  0.4692  0.3498 -0.1331
 1259ERGO    R316984  10.876  16.898   6.110  0.1048  0.1086 -0.1044
 1259ERGO    R416985  11.034  16.660   6.042  0.3676  0.2841 -0.1226
 1259ERGO    R516986  10.866  16.669   6.180  0.1764  0.0331 -0.3286
 1259ERGO    C116987  11.138  16.542   6.416 -0.0336  0.0190 -0.0895
 1259ERGO    C216988  11.408  16.607   6.669 -0.1017  0.1200 -0.0725
 1260ERGO   ROH16989   7.461  16.255   5.851  0.2684 -0.1562 -0.1061
 1260ERGO    R116990   7.614  16.223   6.087  0.2923 -0.0230 -0.1029
 1260ERGO    R216991   7.734  16.435   6.217  0.0466  0.0924 -0.0626
 1260ERGO    R316992   7.596  16.339   6.431  0.1409 -0.0973 -0.0843
 1260ERGO    R416993   7.806  16.506   6.547 -0.1554  0.2708 -0.0541
 1260ERGO    R516994   7.764  16.298   6.597  0.1684  0.2034 -0.0313
 1260ERGO    C116995   7.719  16.458   6.941 -0.1843  0.1967 -0.0694
 1260ERGO    C216996   7.749  16.547   7.331 -0.0845  0.2267  0.3545
 1261ERGO   ROH16997   1.532  16.612   6.221 -0.0937 -0.1728 -0.1997
 1261ERGO    R116998   1.520  16.729   6.478 -0.2468 -0.0859 -0.2454
 1261ERGO    R216999   1.392  16.608   6.691 -0.0576 -0.1902 -0.1936
 1261ERGO    R317000   1.633  16.642   6.813 -0.0957  0.2094 -0.2148
 1261ERGO    R417001   1.439  16.622   7.033 -0.0361 -0.3550 -0.1883
 1261ERGO    R517002   1.584  16.782   7.002 -0.3591 -0.0237 -0.0970
 1261ERGO    C117003   1.693  16.663   7.347 -0.0594 -0.0759 -0.2052
 1261ERGO    C217004   1.560  16.493   7.676 -0.2349 -0.0833  0.1465
 1262ERGO   ROH17005  17.379  13.616   5.810  0.2074  0.0681  0.0053
 1262ERGO    R117006  17.345  13.548   6.083  0.1488 -0.1144 -0.0465
 1262ERGO    R217007  17.515  13.376   6.216  0.4070  0.1693 -0.0030
 1262ERGO    R317008  17.536  13.584   6.390 -0.1332  0.1490  0.1045
 1262ERGO    R417009  17.513  13.346   6.560  0.3425  0.0049 -0.0165
 1262ERGO    R517010  17.389  13.525   6.570 -0.0777 -0.2723  0.0235
 1262ERGO    C117011  17.532  13.523   6.924 -0.2024 -0.1099  0.0765
 1262ERGO    C217012  17.614  13.287   7.083 -0.0770 -0.3152 -0.0504
 1263ERGO   ROH17013  15.253   0.540   5.826 -0.0423  0.1235  0.2581
 1263ERGO    R117014  15.145   0.582   6.084  0.1020  0.1382  0.3168
 1263ERGO    R217015  14.981   0.397   6.208 -0.1180  0.3012  0.2682
 1263ERGO    R317016  15.164   0.417   6.408 -0.0209 -0.0657  0.2237
 1263ERGO    R417017  14.929   0.296   6.534 -0.2443  0.3821  0.2738
 1263ERGO    R517018  15.035   0.474   6.601  0.1283  0.1818  0.2586
 1263ERGO    C117019  15.070   0.256   6.912 -0.2268  0.0849  0.2353
 1263ERGO    C217020  14.948   0.021   7.213 -0.1753  0.3082 -0.1133
 1264ERGO   ROH17021  11.670   5.381   6.006  0.1841 -0.1925  0.0511
 1264ERGO    R117022  11.676   5.474   6.273  0.1716  0.0514 -0.0315
 1264ERGO    R217023  11.499   5.664   6.368  0.0155 -0.0321 -0.1515
 1264ERGO    R317024  11.449   5.476   6.558  0.2503  0.0851  0.0316
 1264ERGO    R417025  11.267   5.697   6.622  0.1001 -0.0036 -0.0778
 1264ERGO    R517026  11.409   5.602   6.757  0.2378  0.2242 -0.0573
 1264ERGO    C117027  11.085   5.540   6.948  0.3700  0.1230  0.1372
 1264ERGO    C217028  10.873   5.535   7.236  0.2129  0.0084 -0.2290
 1265ERGO   ROH17029  17.413   3.967   5.830  0.1068  0.0762  0.0411
 1265ERGO    R117030  17.439   4.165   6.030 -0.0098  0.0914  0.0420
 1265ERGO    R217031  17.287   4.164   6.261  0.0204 -0.0230  0.0617
 1265ERGO    R317032  17.530   4.174   6.383  0.0294  0.1498  0.0307
 1265ERGO    R417033  17.336   4.201   6.601  0.0304 -0.1145  0.0701
 1265ERGO    R517034  17.502   4.336   6.558 -0.0961  0.0563  0.0995
 1265ERGO    C117035  17.592   4.232   6.913  0.0447 -0.0056  0.0459
 1265ERGO    C217036  17.464   4.214   7.303  0.1402  0.2568 -0.1416
 1266ERGO   ROH17037   0.479  11.361   5.875  0.1847 -0.0992 -0.1683
 1266ERGO    R117038   0.504  11.286   6.147  0.0984 -0.0850 -0.1567
 1266ERGO    R217039   0.653  11.067   6.228  0.2164  0.0245 -0.0861
 1266ERGO    R317040   0.776  11.250   6.387  0.0013  0.1098 -0.0127
 1266ERGO    R417041   0.814  10.995   6.525  0.1489  0.1136 -0.0269
 1266ERGO    R517042   0.729  11.177   6.610 -0.0378  0.0410 -0.0390
 1266ERGO    C117043   1.023  11.125   6.847 -0.0923  0.2455  0.0764
 1266ERGO    C217044   1.156  10.997   7.217 -0.0120 -0.3043 -0.2682
 1267ERGO   ROH17045   2.204  10.679   6.127 -0.2311 -0.0184  0.0822
 1267ERGO    R117046   2.216  10.443   6.282 -0.1654 -0.0305  0.0605
 1267ERGO    R217047   2.386  10.234   6.221 -0.1015  0.0247  0.0395
 1267ERGO    R317048   2.467  10.268   6.479 -0.1139  0.0259  0.0481
 1267ERGO    R417049   2.534   9.989   6.416  0.0009  0.0569  0.0019
 1267ERGO    R517050   2.416  10.060   6.585 -0.0310 -0.0137  0.0179
 1267ERGO    C117051   2.696   9.879   6.771  0.0488  0.0768 -0.0119
 1267ERGO    C217052   2.900   9.641   6.864  0.3382  0.5445 -0.0623
 1268ERGO   ROH17053   7.942  14.854   6.321 -0.0011 -0.2025  0.0434
 1268ERGO    R117054   7.777  14.876   6.550  0.0910  0.0024  0.0925
 1268ERGO    R217055   7.857  15.008   6.779  0.2039  0.1650 -0.0372
 1268ERGO    R317056   7.626  15.146   6.742  0.2148  0.1781 -0.0544
 1268ERGO    R417057   7.727  15.240   7.000  0.2474  0.2407 -0.0909
 1268ERGO    R517058   7.529  15.160   6.960  0.2360  0.2500 -0.0497
 1268ERGO    C117059   7.435  15.504   7.094  0.2828  0.2972 -0.1383
 1268ERGO    C217060   7.329  15.671   7.457  0.2524  0.1423  0.0231
 1269ERGO   ROH17061  16.854   2.885   6.222  0.4205 -0.0265 -0.2580
 1269ERGO    R117062  17.078   2.759   6.341  0.3626  0.0984 -0.0089
 1269ERGO    R217063  17.191   2.848   6.577 -0.0135  0.0981  0.1819
 1269ERGO    R317064  17.150   2.591   6.655  0.0705  0.0370  0.0272
 1269ERGO    R417065  17.316   2.708   6.867  0.1509 -0.0857  0.0250
 1269ERGO    R517066  17.358   2.526   6.755  0.1273  0.0003 -0.1188
 1269ERGO    C117067  17.351   2.385   7.110  0.3254 -0.2502 -0.2114
 1269ERGO    C217068  17.438   2.392   7.430 -0.1469 -0.0635  0.2399
 1270ERGO   ROH17069  12.305  12.861   6.368  0.1176  0.0420  0.2264
 1270ERGO    R117070  12.227  12.905   6.636 -0.0407 -0.1900  0.2221
 1270ERGO    R217071  12.151  12.700   6.805  0.2432 -0.3886  0.1223
 1270ERGO    R317072  12.343  12.804   6.966  0.0285 -0.1285  0.2154
 1270ERGO    R417073  12.149  12.684   7.150  0.0097 -0.2169  0.1303
 1270ERGO    R517074  12.223  12.889   7.155 -0.1869 -0.1471  0.0864
 1270ERGO    C117075  12.329  12.774   7.502 -0.3278  0.1273  0.2224
 1270ERGO    C217076  12.495  12.678   7.784 -0.0870 -0.0045  0.0915
 1271ERGO   ROH17077   0.442  16.444   6.229 -0.0329 -0.0334 -0.0301
 1271ERGO    R117078   0.391  16.584   6.469 -0.1328 -0.1761  0.0330
 1271ERGO    R217079   0.214  16.492   6.660 -0.0581 -0.3938 -0.0012
 1271ERGO    R317080   0.427  16.521   6.826 -0.0745 -0.3037  0.0051
 1271ERGO    R417081   0.192  16.550   7.000 -0.0928 -0.2416 -0.0284
 1271ERGO    R517082   0.359  16.690   6.981 -0.1008 -0.2374 -0.0771
 1271ERGO    C117083   0.380  16.611   7.354 -0.1283 -0.0682 -0.0382
 1271ERGO    C217084   0.202  16.545   7.563 -0.1916  0.1864  0.2450
 1272ERGO   ROH17085  13.788   4.165   9.258 -0.0905  0.0106  0.0999
 1272ERGO    R117086  13.976   4.192   9.049 -0.0948 -0.0309  0.0903
 1272ERGO    R217087  14.033   3.987   8.873 -0.0681 -0.0808  0.1538
 1272ERGO    R317088  13.972   4.174   8.685 -0.0955 -0.1472  0.0963
 1272ERGO    R417089  14.109   3.961   8.536  0.0347 -0.1170  0.1793
 1272ERGO    R517090  14.160   4.173   8.537 -0.0562 -0.0970  0.1484
 1272ERGO    C117091  14.095   4.122   8.165  0.0689 -0.2004  0.1401
 1272ERGO    C217092  14.142   3.899   7.881  0.0450 -0.1536 -0.1714
 1273ERGO   ROH17093   1.376   4.249   6.663 -0.0524 -0.1640 -0.0535
 1273ERGO    R117094   1.539   4.363   6.865  0.0046 -0.0048 -0.1868
 1273ERGO    R217095   1.567   4.636   6.897 -0.3001  0.0279 -0.1615
 1273ERGO    R317096   1.490   4.580   7.152  0.0093 -0.1225 -0.0968
 1273ERGO    R417097   1.639   4.832   7.172 -0.1712 -0.0126 -0.1660
 1273ERGO    R517098   1.676   4.650   7.286  0.0941 -0.0231 -0.2654
 1273ERGO    C117099   1.610   4.895   7.572  0.1944 -0.1773 -0.1079
 1273ERGO    C217100   1.824   4.972   7.890 -0.5274 -0.1633 -0.0060
 1274ERGO   ROH17101  14.549   4.032   5.891 -0.0256  0.2344 -0.0494
 1274ERGO    R117102  14.581   4.098   6.164 -0.1472 -0.1167  0.0551
 1274ERGO    R217103  14.653   3.912   6.355  0.2047 -0.2827 -0.2276
 1274ERGO    R317104  14.851   4.090   6.408 -0.1218  0.0163  0.0324
 1274ERGO    R417105  14.865   3.894   6.626  0.2957 -0.3453 -0.3020
 1274ERGO    R517106  14.848   4.110   6.647 -0.1188 -0.3990  0.0752
 1274ERGO    C117107  15.175   4.051   6.835  0.0421 -0.1011 -0.1012
 1274ERGO    C217108  15.457   4.010   6.994 -0.0130 -0.3220  0.0227
 1275ERGO   ROH17109   0.857   2.884   6.482  0.0070  0.0240  0.0680
 1275ERGO    R117110   0.797   2.983   6.741  0.0079  0.1289  0.0292
 1275ERGO    R217111   0.864   2.847   6.972 -0.1369  0.1427  0.0821
 1275ERGO    R317112   0.985   3.081   7.037  0.0006  0.0807  0.0494
 1275ERGO    R417113   0.921   2.956   7.294 -0.2110  0.2235  0.0676
 1275ERGO    R517114   0.867   3.158   7.230 -0.0367  0.2391 -0.0351
 1275ERGO    C117115   1.068   3.240   7.543 -0.1252  0.2123  0.0284
 1275ERGO    C217116   1.133   3.171   7.855 -0.1509  0.2993  0.0437
 1276ERGO   ROH17117  13.385  10.889   6.116 -0.0312 -0.1420  0.0289
 1276ERGO    R117118  13.401  10.917   6.397  0.0121 -0.1809  0.0305
 1276ERGO    R217119  13.192  10.853   6.566 -0.0221 -0.0463  0.0413
 1276ERGO    R317120  13.379  10.697   6.686 -0.1234 -0.1945  0.0106
 1276ERGO    R417121  13.233  10.822   6.907  0.1060  0.0419  0.0343
 1276ERGO    R517122  13.448  10.825   6.877  0.0975 -0.1911 -0.0692
 1276ERGO    C117123  13.433  10.658   7.220  0.0856 -0.0460  0.0014
 1276ERGO    C217124  13.523  10.475   7.609  0.1752  0.0738 -0.0946
 1277ERGO   ROH17125  16.283  14.433   6.226 -0.0496  0.2352  0.0315
 1277ERGO    R117126  16.102  14.369   6.434 -0.1754  0.2060 -0.0852
 1277ERGO    R217127  16.169  14.391   6.701 -0.1822 -0.2506 -0.0370
 1277ERGO    R317128  15.945  14.545   6.711  0.0303  0.0590  0.1289
 1277ERGO    R417129  15.979  14.443   6.985 -0.2477 -0.5093 -0.0316
 1277ERGO    R517130  15.800  14.427   6.861 -0.2158 -0.0214 -0.1623
 1277ERGO    C117131  15.658  14.617   7.160 -0.0861 -0.3692  0.1274
 1277ERGO    C217132  15.410  14.683   7.440 -0.2723  0.2137 -0.2307
 1278ERGO   ROH17133   1.601   8.634   5.744 -0.0970 -0.3032  0.0221
 1278ERGO    R117134   1.537   8.532   6.000 -0.0057 -0.1901  0.0899
 1278ERGO    R217135   1.668   8.316   6.111  0.1238 -0.0525  0.1944
 1278ERGO    R317136   1.709   8.488   6.318  0.0609  0.0837  0.0961
 1278ERGO    R417137   1.715   8.221   6.440  0.1569  0.1430  0.2477
 1278ERGO    R517138   1.590   8.389   6.501  0.0914  0.1383  0.1520
 1278ERGO    C117139   1.781   8.328   6.826  0.1172  0.3845  0.1866
 1278ERGO    C217140   1.985   8.228   6.956 -0.0689 -0.0165  0.1276
 1279ERGO   ROH17141  18.914  14.451   9.773  0.0763 -0.0053  0.1066
 1279ERGO    R117142  18.952  14.424   9.494 -0.0830 -0.0550  0.0889
 1279ERGO    R217143  18.771  14.521   9.309 -0.1284  0.0224  0.1729
 1279ERGO    R317144  18.990  14.647   9.209 -0.1108 -0.1043  0.0467
 1279ERGO    R417145  18.792  14.660   8.993 -0.2298  0.0226  0.1657
 1279ERGO    R517146  18.995  14.584   8.978 -0.2848 -0.0984  0.0408
 1279ERGO    C117147  19.009  14.860   8.716 -0.2725 -0.0964  0.0431
 1279ERGO    C217148  19.042  14.903   8.408 -0.2439  0.1760 -0.5928
 1280ERGO   ROH17149   1.302  12.387   6.161 -0.2135  0.0127 -0.2028
 1280ERGO    R117150   1.212  12.514   6.397 -0.0649 -0.0382 -0.1181
 1280ERGO    R217151   0.948  12.513   6.475 -0.0233 -0.0052  0.0180
 1280ERGO    R317152   1.049  12.413   6.707  0.0733 -0.0937 -0.0616
 1280ERGO    R417153   0.791  12.530   6.783  0.1120 -0.0922  0.0927
 1280ERGO    R517154   0.985  12.572   6.874  0.1604 -0.1401  0.0211
 1280ERGO    C117155   0.795  12.446   7.179  0.2815 -0.2260  0.0616
 1280ERGO    C217156   0.550  12.526   7.352  0.3150 -0.0785 -0.1089
 1281ERGO   ROH17157  12.660  12.005   6.066 -0.1103  0.2456 -0.0147
 1281ERGO    R117158  12.569  11.887   6.307 -0.0919  0.3100  0.0231
 1281ERGO    R217159  12.715  11.697   6.443 -0.2954 -0.0056 -0.1953
 1281ERGO    R317160  12.685  11.869   6.652  0.2062 -0.0301 -0.0872
 1281ERGO    R417161  12.708  11.604   6.776 -0.2808 -0.1653 -0.2384
 1281ERGO    R517162  12.548  11.749   6.808  0.0385  0.1759 -0.0647
 1281ERGO    C117163  12.675  11.711   7.166  0.1988 -0.2815 -0.1620
 1281ERGO    C217164  12.704  11.666   7.518 -0.0301 -0.0390 -0.0231
 1282ERGO   ROH17165   9.503   2.464   5.805 -0.0706 -0.0146 -0.1403
 1282ERGO    R117166   9.528   2.402   6.080  0.0287  0.1398 -0.1130
 1282ERGO    R217167   9.647   2.169   6.170 -0.1101  0.0994 -0.0316
 1282ERGO    R317168   9.800   2.341   6.314  0.1088  0.0691 -0.2235
 1282ERGO    R417169   9.826   2.084   6.453 -0.1578  0.1671  0.0190
 1282ERGO    R517170   9.767   2.274   6.541  0.0700  0.3231 -0.1512
 1282ERGO    C117171  10.074   2.196   6.753  0.0199  0.1780 -0.1317
 1282ERGO    C217172  10.232   2.169   7.045 -0.1358  0.2291  0.1899
 1283ERGO   ROH17173  17.275   5.818   6.292  0.2556  0.0319 -0.2232
 1283ERGO    R117174  17.483   5.887   6.471  0.1602  0.0883 -0.1319
 1283ERGO    R217175  17.673   6.079   6.411  0.0645  0.2276  0.0020
 1283ERGO    R317176  17.591   6.186   6.647 -0.0736  0.0859  0.0195
 1283ERGO    R417177  17.881   6.229   6.643 -0.1031  0.3072  0.1022
 1283ERGO    R517178  17.767   6.132   6.801 -0.0685  0.1664  0.0420
 1283ERGO    C117179  17.925   6.416   7.000 -0.3301  0.2204  0.1769
 1283ERGO    C217180  18.141   6.407   7.204  0.1819 -0.2087 -0.1982
 1284ERGO   ROH17181  14.423   6.396   6.033 -0.1648  0.0170  0.0674
 1284ERGO    R117182  14.321   6.460   6.289 -0.0088 -0.0185  0.1396
 1284ERGO    R217183  14.418   6.345   6.520  0.2321  0.0588  0.0788
 1284ERGO    R317184  14.451   6.604   6.597  0.1410  0.0840  0.0301
 1284ERGO    R417185  14.457   6.451   6.847  0.2449  0.1257  0.0557
 1284ERGO    R517186  14.328   6.621   6.802  0.1683  0.0670  0.0488
 1284ERGO    C117187  14.510   6.756   7.109  0.1669  0.1882 -0.0033
 1284ERGO    C217188  14.703   6.811   7.443 -0.1211 -0.2553  0.1493
 1285ERGO   ROH17189   1.246  15.274   9.773 -0.1440  0.0251 -0.0195
 1285ERGO    R117190   1.180  15.347   9.507 -0.0642  0.0083 -0.0438
 1285ERGO    R217191   1.312  15.547   9.371  0.0019 -0.0277 -0.0292
 1285ERGO    R317192   1.349  15.352   9.185  0.0189 -0.0510 -0.0022
 1285ERGO    R417193   1.399  15.603   9.041  0.3427 -0.0796  0.0470
 1285ERGO    R517194   1.259  15.445   8.983  0.2697  0.0277 -0.0823
 1285ERGO    C117195   1.483  15.452   8.674  0.5571 -0.1318  0.1169
 1285ERGO    C217196   1.643  15.335   8.382  0.4002  0.1094  0.2865
 1286ERGO   ROH17197  11.905  17.104   5.875  0.1890  0.1836  0.0110
 1286ERGO    R117198  11.964  16.972   6.118  0.2395  0.1503 -0.0179
 1286ERGO    R217199  12.057  17.106   6.342  0.1243  0.1477  0.0392
 1286ERGO    R317200  11.845  16.985   6.462  0.1804 -0.0217 -0.0326
 1286ERGO    R417201  12.036  17.035   6.679  0.1678 -0.1148 -0.0122
 1286ERGO    R517202  11.944  16.844   6.628  0.2387 -0.1073 -0.1455
 1286ERGO    C117203  11.825  16.880   6.989  0.2459 -0.4271 -0.1094
 1286ERGO    C217204  11.636  16.904   7.290  0.2831  0.4836  0.1826
 1287ERGO   ROH17205  11.747   9.678   9.138  0.0597  0.1227  0.0451
 1287ERGO    R117206  11.824   9.538   8.904 -0.1009  0.0041  0.0623
 1287ERGO    R217207  11.684   9.558   8.666 -0.0374  0.1944  0.0423
 1287ERGO    R317208  11.928   9.624   8.566  0.0769 -0.1547  0.0741
 1287ERGO    R417209  11.759   9.583   8.330 -0.0088  0.2422  0.0518
 1287ERGO    R517210  11.951   9.488   8.371 -0.1565 -0.1001  0.0020
 1287ERGO    C117211  12.032   9.660   8.040  0.1151 -0.0576  0.0872
 1287ERGO    C217212  12.102   9.658   7.742  0.2709  0.1572  0.2004
 1288ERGO   ROH17213  17.955   3.620   9.718 -0.2252  0.3450  0.0072
 1288ERGO    R117214  17.961   3.534   9.448 -0.1451  0.1969  0.0553
 1288ERGO    R217215  17.809   3.652   9.250 -0.1687  0.0188 -0.0357
 1288ERGO    R317216  18.049   3.679   9.126 -0.1613  0.0570 -0.0127
 1288ERGO    R417217  17.850   3.731   8.916 -0.1515 -0.1151 -0.0656
 1288ERGO    R517218  18.013   3.586   8.908 -0.0934 -0.0553  0.0233
 1288ERGO    C117219  18.100   3.802   8.605 -0.1345 -0.1572 -0.0613
 1288ERGO    C217220  17.877   3.868   8.350  0.1373 -0.1349  0.2492
 1289ERGO   ROH17221   3.015  16.731   5.816  0.2806  0.0722 -0.0038
 1289ERGO    R117222   2.975  16.726   6.096  0.2723  0.0638 -0.0052
 1289ERGO    R217223   3.153  16.841   6.273  0.1509  0.2589 -0.0098
 1289ERGO    R317224   2.931  16.971   6.361  0.0173  0.0508 -0.0324
 1289ERGO    R417225   3.079  16.902   6.605  0.1971  0.4089 -0.0265
 1289ERGO    R517226   2.870  16.855   6.562  0.2332  0.1163  0.0767
 1289ERGO    C117227   2.828  17.060   6.881  0.0986  0.3006 -0.0574
 1289ERGO    C217228   2.945  16.941   7.123  0.4043 -0.3007  0.1598
 1290ERGO   ROH17229   6.222  12.736   6.221  0.0266 -0.2866  0.0916
 1290ERGO    R117230   6.242  12.708   6.502 -0.0952 -0.2154  0.1076
 1290ERGO    R217231   6.351  12.903   6.664  0.0886 -0.2894  0.0690
 1290ERGO    R317232   6.114  12.880   6.796  0.0181  0.0400  0.0116
 1290ERGO    R417233   6.292  13.014   6.986  0.2261 -0.3640  0.1212
 1290ERGO    R517234   6.176  12.833   7.022 -0.0950 -0.1955 -0.0003
 1290ERGO    C117235   6.036  13.056   7.298  0.2400 -0.0983  0.0977
 1290ERGO    C217236   6.076  13.273   7.453 -0.2028  0.0574  0.2224
 1291ERGO   ROH17237   4.612   8.668   6.141 -0.1057 -0.2321 -0.0292
 1291ERGO    R117238   4.609   8.432   6.297 -0.1313 -0.1832  0.0442
 1291ERGO    R217239   4.742   8.203   6.222 -0.1261 -0.2100  0.1332
 1291ERGO    R317240   4.854   8.225   6.469 -0.1582 -0.1346  0.1414
 1291ERGO    R417241   4.789   7.940   6.441 -0.0803 -0.1549  0.1901
 1291ERGO    R517242   4.729   8.072   6.604 -0.1317 -0.1404  0.1579
 1291ERGO    C117243   4.922   7.808   6.801 -0.0837 -0.0522  0.2309
 1291ERGO    C217244   5.048   7.493   6.917  0.0458 -0.1009 -0.2286
 1292ERGO   ROH17245  16.467   3.753   5.654  0.1833 -0.4586 -0.0136
 1292ERGO    R117246  16.595   3.686   5.897  0.3233 -0.1386  0.0082
 1292ERGO    R217247  16.790   3.845   6.012 -0.0394  0.3393  0.0143
 1292ERGO    R317248  16.627   3.833   6.229 -0.0501 -0.0146 -0.0080
 1292ERGO    R417249  16.884   3.928   6.334 -0.1948  0.2806  0.0732
 1292ERGO    R517250  16.769   3.757   6.406  0.0334  0.0787 -0.0386
 1292ERGO    C117251  16.785   3.965   6.725 -0.2955 -0.0859  0.0864
 1292ERGO    C217252  16.933   4.082   7.051  0.0823 -0.1903  0.3885
 1293ERGO   ROH17253   2.537   7.685   6.028 -0.1836  0.1589  0.1699
 1293ERGO    R117254   2.715   7.856   6.166 -0.1627  0.1559  0.1455
 1293ERGO    R217255   2.647   8.112   6.241 -0.2200  0.0835  0.3333
 1293ERGO    R317256   2.723   8.026   6.488 -0.0168 -0.0189  0.2374
 1293ERGO    R417257   2.757   8.318   6.496 -0.2859  0.0172  0.4162
 1293ERGO    R517258   2.908   8.168   6.545 -0.1170  0.1185  0.2377
 1293ERGO    C117259   2.892   8.357   6.876 -0.1335 -0.1175  0.3745
 1293ERGO    C217260   2.731   8.693   6.991 -0.1288  0.2193 -0.0438
 1294ERGO   ROH17261   8.091  17.869   5.941  0.1911  0.0861  0.0686
 1294ERGO    R117262   7.870  17.794   6.102  0.0342 -0.0972 -0.2223
 1294ERGO    R217263   7.767  17.538   6.103  0.3654 -0.2392 -0.2223
 1294ERGO    R317264   7.807  17.558   6.372 -0.0660 -0.0061 -0.1669
 1294ERGO    R417265   7.657  17.309   6.338  0.2075 -0.1591 -0.2176
 1294ERGO    R517266   7.605  17.475   6.469 -0.1431 -0.1090 -0.4165
 1294ERGO    C117267   7.630  17.195   6.726 -0.2894  0.1066 -0.1628
 1294ERGO    C217268   7.688  16.938   6.952  0.2200  0.0063  0.0986
 1295ERGO   ROH17269   0.515   3.867   9.455  0.1279  0.2079 -0.0411
 1295ERGO    R117270   0.425   3.731   9.224 -0.0777  0.2764 -0.0035
 1295ERGO    R217271   0.267   3.853   9.032  0.0124  0.4306  0.0141
 1295ERGO    R317272   0.463   3.769   8.864 -0.1150  0.1874 -0.0159
 1295ERGO    R417273   0.254   3.876   8.688  0.0286  0.5201  0.0196
 1295ERGO    R517274   0.345   3.678   8.676 -0.2529  0.3937 -0.0285
 1295ERGO    C117275   0.431   3.810   8.329 -0.0816  0.3439 -0.0054
 1295ERGO    C217276   0.426   3.820   8.004  0.2423 -0.1112 -0.2751
 1296ERGO   ROH17277  15.205   0.758   9.471  0.1581  0.0939 -0.0805
 1296ERGO    R117278  15.349   0.701   9.234 -0.0245 -0.1539 -0.1358
 1296ERGO    R217279  15.242   0.552   9.027 -0.3750  0.0552 -0.1135
 1296ERGO    R317280  15.310   0.769   8.878 -0.0243 -0.0512 -0.1165
 1296ERGO    R417281  15.188   0.583   8.687 -0.1519  0.0655 -0.1498
 1296ERGO    R517282  15.384   0.677   8.670 -0.0226 -0.1787 -0.0605
 1296ERGO    C117283  15.220   0.805   8.350  0.3074 -0.0283 -0.1738
 1296ERGO    C217284  15.070   0.888   8.265 -0.2556  0.2429 -0.0001
 1297ERGO   ROH17285   6.984   6.382   9.541  0.0353 -0.3165 -0.0068
 1297ERGO    R117286   6.968   6.538   9.305  0.1714 -0.2176  0.0478
 1297ERGO    R217287   7.136   6.500   9.089  0.1149 -0.3157  0.0193
 1297ERGO    R317288   6.903   6.478   8.952  0.0765 -0.0325  0.0327
 1297ERGO    R417289   7.107   6.514   8.745  0.0941 -0.1767  0.0263
 1297ERGO    R517290   6.926   6.633   8.771  0.2163  0.0026  0.0799
 1297ERGO    C117291   6.871   6.503   8.417  0.0458  0.1701  0.0430
 1297ERGO    C217292   6.960   6.333   8.223 -0.0223  0.1047  0.2269
 1298ERGO   ROH17293  14.991   5.382   5.955  0.2070 -0.1211  0.0678
 1298ERGO    R117294  15.095   5.505   6.188  0.1245 -0.0498  0.0671
 1298ERGO    R217295  14.934   5.626   6.378  0.0447 -0.1496  0.0597
 1298ERGO    R317296  15.065   5.458   6.547  0.1488 -0.0611  0.0686
 1298ERGO    R417297  14.955   5.668   6.720  0.0559 -0.0883  0.0518
 1298ERGO    R517298  15.163   5.604   6.710  0.0915  0.0157  0.0388
 1298ERGO    C117299  15.090   5.536   7.079  0.1600  0.0304  0.0556
 1298ERGO    C217300  15.045   5.433   7.375  0.2503 -0.0155 -0.0837
 1299ERGO   ROH17301  15.271   7.736   9.279 -0.0651  0.0492  0.0828
 1299ERGO    R117302  15.229   7.854   9.025  0.0239  0.0284  0.0599
 1299ERGO    R217303  15.331   7.746   8.792 -0.0258 -0.0725  0.0944
 1299ERGO    R317304  15.072   7.757   8.712 -0.0125  0.0707  0.0622
 1299ERGO    R417305  15.227   7.793   8.466  0.0528  0.0201  0.0807
 1299ERGO    R517306  15.070   7.924   8.540  0.1046  0.0985  0.0784
 1299ERGO    C117307  14.924   7.830   8.200  0.1110  0.2086  0.0427
 1299ERGO    C217308  14.714   7.953   7.890 -0.2268  0.0498 -0.1160
 1300ERGO   ROH17309   7.616  17.004   5.984  0.1637  0.4878  0.1452
 1300ERGO    R117310   7.813  16.910   6.165 -0.0108  0.1791  0.1816
 1300ERGO    R217311   8.017  17.070   6.259  0.3278 -0.1801  0.0835
 1300ERGO    R317312   7.923  16.992   6.502  0.1779  0.1360  0.1323
 1300ERGO    R417313   8.140  17.180   6.563  0.6565 -0.3484  0.0158
 1300ERGO    R517314   8.119  16.977   6.639  0.1798 -0.2816  0.0984
 1300ERGO    C117315   8.123  17.171   6.968  0.7071 -0.1497  0.0222
 1300ERGO    C217316   8.294  17.261   7.301  0.0378  0.3966 -0.0407
 1301ERGO   ROH17317  10.642   6.579   9.359  0.3156  0.0106  0.1769
 1301ERGO    R117318  10.741   6.424   9.145  0.1822  0.0247  0.1035
 1301ERGO    R217319  10.576   6.283   8.974  0.0758  0.0207  0.2087
 1301ERGO    R317320  10.710   6.422   8.782 -0.0611  0.0357  0.1229
 1301ERGO    R417321  10.565   6.213   8.636 -0.0178 -0.0707  0.2300
 1301ERGO    R517322  10.779   6.255   8.625 -0.0407  0.0281  0.1399
 1301ERGO    C117323  10.684   6.303   8.259 -0.2007 -0.1097  0.1619
 1301ERGO    C217324  10.709   6.252   7.906  0.2395 -0.3051  0.0939
 1302ERGO   ROH17325   7.064   9.106   6.665  0.2583  0.2567  0.2371
 1302ERGO    R117326   6.970   9.059   6.928  0.2100  0.0748  0.1884
 1302ERGO    R217327   6.718   8.956   6.979  0.1731  0.1088  0.0726
 1302ERGO    R317328   6.858   8.771   7.121  0.0976 -0.0482 -0.0541
 1302ERGO    R417329   6.588   8.763   7.234  0.1544  0.1775  0.1152
 1302ERGO    R517330   6.774   8.791   7.344  0.2545 -0.0130  0.0050
 1302ERGO    C117331   6.643   8.477   7.516  0.0727  0.0701  0.0210
 1302ERGO    C217332   6.702   8.471   7.904 -0.0109  0.1219 -0.0274
 1303ERGO   ROH17333  16.234  11.214   6.542 -0.0250 -0.2373  0.0237
 1303ERGO    R117334  16.188  11.407   6.744 -0.0995  0.0075 -0.2223
 1303ERGO    R217335  15.968  11.574   6.745 -0.4330 -0.4290 -0.1799
 1303ERGO    R317336  15.932  11.473   6.994  0.1361 -0.0965  0.0561
 1303ERGO    R417337  15.748  11.700   6.980 -0.4407 -0.5311 -0.1308
 1303ERGO    R517338  15.899  11.665   7.132 -0.1379  0.0908 -0.2429
 1303ERGO    C117339  15.587  11.678   7.351  0.0891 -0.2784  0.1194
 1303ERGO    C217340  15.263  11.857   7.436  0.1932 -0.2844 -0.1043
 1304ERGO   ROH17341   4.783  11.249   6.238  0.0917  0.0494  0.1678
 1304ERGO    R117342   4.691  11.272   6.504  0.0528  0.1372  0.1472
 1304ERGO    R217343   4.693  11.059   6.681 -0.0010  0.1880  0.2079
 1304ERGO    R317344   4.833  11.232   6.837 -0.0046  0.2150  0.1816
 1304ERGO    R417345   4.659  11.088   7.024  0.1296  0.1070  0.2285
 1304ERGO    R517346   4.676  11.304   7.002  0.0334  0.1195  0.2620
 1304ERGO    C117347   4.771  11.267   7.370  0.2023  0.0851  0.2158
 1304ERGO    C217348   4.773  11.312   7.783 -0.0970 -0.1580 -0.3416
 1305ERGO   ROH17349   7.244   3.955   9.599  0.1031 -0.0653  0.0618
 1305ERGO    R117350   7.148   4.017   9.340  0.0041 -0.0515  0.1015
 1305ERGO    R217351   7.293   4.167   9.160 -0.1407  0.1099  0.1172
 1305ERGO    R317352   7.253   3.953   8.997 -0.0222  0.1308  0.0589
 1305ERGO    R417353   7.307   4.176   8.814 -0.2398  0.2323  0.1152
 1305ERGO    R517354   7.135   4.043   8.809 -0.1411  0.1030  0.1196
 1305ERGO    C117355   7.278   3.979   8.461 -0.1862  0.3231  0.0595
 1305ERGO    C217356   7.432   4.139   8.183 -0.3174 -0.1405 -0.3160
 1306ERGO   ROH17357  10.102   2.475   5.985  0.0073 -0.0616 -0.2684
 1306ERGO    R117358  10.379   2.490   5.928  0.0283 -0.1958 -0.2088
 1306ERGO    R217359  10.556   2.631   6.086  0.0216 -0.0632 -0.3128
 1306ERGO    R317360  10.688   2.394   6.093 -0.0438 -0.0931 -0.0129
 1306ERGO    R417361  10.850   2.574   6.258  0.1248  0.1342 -0.4205
 1306ERGO    R517362  10.920   2.454   6.090 -0.0282 -0.1650 -0.2746
 1306ERGO    C117363  11.145   2.317   6.365  0.1234  0.2211 -0.2016
 1306ERGO    C217364  11.315   2.107   6.540 -0.0177 -0.2568 -0.1750
 1307ERGO   ROH17365  12.918   8.139   5.690  0.0996  0.2514  0.1768
 1307ERGO    R117366  13.096   8.058   5.895  0.1449  0.1789  0.1113
 1307ERGO    R217367  13.018   8.035   6.159  0.2426  0.2456  0.1526
 1307ERGO    R317368  13.117   7.784   6.133  0.0974  0.1912  0.1273
 1307ERGO    R417369  13.169   7.856   6.413  0.1320  0.1207  0.1297
 1307ERGO    R517370  13.315   7.784   6.268  0.0911  0.0543  0.1300
 1307ERGO    C117371  13.350   7.515   6.536 -0.0686 -0.0030  0.0928
 1307ERGO    C217372  13.453   7.353   6.797  0.1118  0.2868 -0.1302
 1308ERGO   ROH17373   2.377   9.625   9.656  0.2205 -0.3461  0.0303
 1308ERGO    R117374   2.532   9.733   9.446  0.1766 -0.0269  0.1559
 1308ERGO    R217375   2.479   9.683   9.180  0.4167 -0.0260  0.1004
 1308ERGO    R317376   2.476   9.954   9.162 -0.0081 -0.0234  0.1980
 1308ERGO    R417377   2.570   9.862   8.900  0.1864  0.2307  0.1864
 1308ERGO    R517378   2.669  10.006   9.031 -0.0686  0.3365  0.2523
 1308ERGO    C117379   2.621  10.222   8.719 -0.3465  0.3825  0.3281
 1308ERGO    C217380   2.586  10.461   8.540  0.1476  0.4605  0.1712
 1309ERGO   ROH17381   0.571   8.484   5.993 -0.0367 -0.2282 -0.1724
 1309ERGO    R117382   0.686   8.405   6.239 -0.0885  0.0204 -0.0672
 1309ERGO    R217383   0.610   8.516   6.481 -0.3116  0.0940 -0.1729
 1309ERGO    R317384   0.568   8.256   6.550 -0.1086  0.0942 -0.0382
 1309ERGO    R417385   0.448   8.412   6.768 -0.5236  0.1273 -0.2771
 1309ERGO    R517386   0.596   8.253   6.788 -0.3691  0.2962  0.0016
 1309ERGO    C117387   0.315   8.107   7.000 -0.4565  0.1466 -0.2114
 1309ERGO    C217388   0.118   7.976   7.345  0.1957 -0.0797 -0.2363
 1310ERGO   ROH17389   3.948  12.174   9.824 -0.1661  0.3128  0.0128
 1310ERGO    R117390   4.014  12.174   9.549 -0.0830  0.3564  0.0321
 1310ERGO    R217391   4.257  12.266   9.454  0.0909  0.0387  0.1542
 1310ERGO    R317392   4.268  12.020   9.338 -0.2492  0.0773  0.0312
 1310ERGO    R417393   4.370  12.205   9.134  0.2646  0.0177  0.2186
 1310ERGO    R517394   4.208  12.061   9.109  0.0197  0.3166 -0.0029
 1310ERGO    C117395   4.446  11.939   8.837  0.0465  0.0416  0.1407
 1310ERGO    C217396   4.474  11.696   8.491  0.3557  0.1119  0.3526
 1311ERGO   ROH17397   9.317  12.770   5.806  0.1155  0.2075  0.0246
 1311ERGO    R117398   9.113  12.871   5.974  0.2411  0.2435  0.1614
 1311ERGO    R217399   8.883  12.729   6.032 -0.0121  0.4925 -0.1400
 1311ERGO    R317400   8.958  12.777   6.289  0.0336 -0.0789 -0.0345
 1311ERGO    R417401   8.665  12.758   6.299 -0.0234  0.6650 -0.1687
 1311ERGO    R517402   8.787  12.922   6.374  0.3813  0.2440  0.1206
 1311ERGO    C117403   8.608  12.820   6.695  0.0129  0.2292 -0.0865
 1311ERGO    C217404   8.586  12.614   6.917 -0.0420  0.2073 -0.1969
 1312ERGO   ROH17405  14.464  13.478   5.904  0.0471  0.2120  0.0081
 1312ERGO    R117406  14.454  13.638   6.137  0.0069  0.2236 -0.0020
 1312ERGO    R217407  14.545  13.549   6.382 -0.1184  0.2033  0.0360
 1312ERGO    R317408  14.694  13.777   6.373 -0.0411  0.1560  0.0883
 1312ERGO    R417409  14.729  13.676   6.647  0.0372  0.0032  0.0271
 1312ERGO    R517410  14.663  13.876   6.589  0.0828  0.0581  0.1540
 1312ERGO    C117411  14.974  13.964   6.792  0.2003 -0.1577  0.0710
 1312ERGO    C217412  15.365  13.859   6.896  0.1594  0.3273  0.1232
 1313ERGO   ROH17413  10.631   1.068   5.822 -0.0305  0.1529 -0.1317
 1313ERGO    R117414  10.578   1.191   6.072 -0.1333  0.1145 -0.1329
 1313ERGO    R217415  10.550   1.048   6.306 -0.2610  0.0723 -0.1656
 1313ERGO    R317416  10.743   1.216   6.395 -0.2795  0.0330 -0.0534
 1313ERGO    R417417  10.597   1.135   6.637 -0.4349  0.0855 -0.1439
 1313ERGO    R517418  10.638   1.339   6.571 -0.3509  0.0661 -0.1267
 1313ERGO    C117419  10.807   1.344   6.913 -0.5534  0.0564 -0.0259
 1313ERGO    C217420  10.720   1.421   7.228  0.0931  0.0731 -0.1386
 1314ERGO   ROH17421  15.260   7.606   5.815 -0.0751 -0.0458  0.1602
 1314ERGO    R117422  15.353   7.719   6.057 -0.0654  0.0173  0.1274
 1314ERGO    R217423  15.615   7.796   6.095 -0.0282 -0.1150  0.1491
 1314ERGO    R317424  15.502   8.034   6.162  0.0912 -0.0167  0.0093
 1314ERGO    R417425  15.727   8.004   6.348 -0.2688 -0.3041  0.4171
 1314ERGO    R517426  15.519   8.043   6.401 -0.3333 -0.1066  0.0507
 1314ERGO    C117427  15.686   8.347   6.558 -0.2967 -0.3219  0.4419
 1314ERGO    C217428  15.685   8.525   6.943  0.2372 -0.1360  0.1612
 1315ERGO   ROH17429  17.061   7.866   9.617 -0.0194 -0.2725 -0.1070
 1315ERGO    R117430  17.014   7.794   9.347  0.1629 -0.0923 -0.1887
 1315ERGO    R217431  16.823   7.917   9.192 -0.0830 -0.3274 -0.0761
 1315ERGO    R317432  17.032   7.959   9.022 -0.1417  0.2907 -0.0200
 1315ERGO    R417433  16.796   7.936   8.847 -0.0251 -0.7619 -0.1099
 1315ERGO    R517434  16.982   7.821   8.832  0.4378 -0.1044  0.0853
 1315ERGO    C117435  16.977   7.985   8.488 -0.0462 -0.4349 -0.0769
 1315ERGO    C217436  17.038   8.106   8.178  0.1294 -0.0919 -0.1327
 1316ERGO   ROH17437   2.666   4.443   6.338 -0.0066  0.0411 -0.0082
 1316ERGO    R117438   2.536   4.370   6.579  0.0613 -0.1299 -0.0212
 1316ERGO    R217439   2.655   4.209   6.769  0.2402 -0.0093 -0.0235
 1316ERGO    R317440   2.594   4.416   6.935 -0.0115 -0.0871 -0.0153
 1316ERGO    R417441   2.702   4.208   7.111  0.0340 -0.0408  0.0052
 1316ERGO    R517442   2.511   4.311   7.133 -0.0536 -0.1864 -0.0873
 1316ERGO    C117443   2.672   4.402   7.466 -0.3224 -0.1323  0.0297
 1316ERGO    C217444   2.951   4.491   7.665  0.0613 -0.1104 -0.2967
 1317ERGO   ROH17445   2.487  14.598   9.313  0.3152 -0.2542 -0.0124
 1317ERGO    R117446   2.374  14.665   9.062  0.3374  0.1605  0.0822
 1317ERGO    R217447   2.507  14.818   8.875  0.6526 -0.1223  0.0682
 1317ERGO    R317448   2.454  14.608   8.711 -0.0307  0.0741  0.0079
 1317ERGO    R417449   2.508  14.832   8.530  0.9117 -0.0609  0.0691
 1317ERGO    R517450   2.331  14.704   8.529  0.4156  0.5714 -0.0550
 1317ERGO    C117451   2.458  14.643   8.175  0.4211  0.1593  0.0128
 1317ERGO    C217452   2.427  14.699   7.920  0.1299 -0.0203  0.0748
 1318ERGO   ROH17453   7.968  11.247   6.008 -0.0953 -0.0495 -0.0941
 1318ERGO    R117454   8.019  11.331   6.274 -0.0973 -0.0894 -0.0807
 1318ERGO    R217455   7.819  11.353   6.464 -0.0933 -0.1696 -0.0616
 1318ERGO    R317456   7.981  11.190   6.607 -0.0470 -0.1639 -0.1078
 1318ERGO    R417457   7.794  11.297   6.804  0.0252 -0.1646 -0.0518
 1318ERGO    R517458   8.011  11.302   6.816  0.0238 -0.1637 -0.1221
 1318ERGO    C117459   7.932  11.111   7.136  0.1377 -0.1563 -0.0893
 1318ERGO    C217460   8.089  10.817   7.357  0.0296 -0.0664 -0.0178
 1319ERGO   ROH17461   8.434  11.238   6.105 -0.0023  0.3625 -0.1329
 1319ERGO    R117462   8.461  11.445   6.296  0.0801  0.2357 -0.0059
 1319ERGO    R217463   8.334  11.438   6.542  0.1000  0.1222  0.0011
 1319ERGO    R317464   8.586  11.476   6.636  0.1214 -0.0157  0.0032
 1319ERGO    R417465   8.414  11.498   6.873  0.1621 -0.1821  0.0452
 1319ERGO    R517466   8.562  11.644   6.805  0.1840 -0.1565  0.1532
 1319ERGO    C117467   8.697  11.569   7.154  0.2183 -0.4885  0.0728
 1319ERGO    C217468   8.857  11.309   7.468  0.0045 -0.1275 -0.1168
 1320ERGO   ROH17469   2.652   2.809   6.319  0.0127 -0.0730 -0.0736
 1320ERGO    R117470   2.626   2.683   6.572 -0.1234  0.0759 -0.0103
 1320ERGO    R217471   2.838   2.560   6.699 -0.2391 -0.0542  0.0743
 1320ERGO    R317472   2.769   2.725   6.904 -0.1130  0.1192 -0.0226
 1320ERGO    R417473   2.969   2.544   7.019 -0.1365  0.1554  0.0428
 1320ERGO    R517474   2.770   2.584   7.097 -0.0884  0.2735  0.0841
 1320ERGO    C117475   2.981   2.691   7.397  0.0416  0.4401 -0.0664
 1320ERGO    C217476   3.145   2.598   7.718 -0.2956 -0.3445  0.2919
 1321ERGO   ROH17477  15.413   4.544   5.840 -0.3084 -0.1151  0.0899
 1321ERGO    R117478  15.293   4.492   6.091 -0.1189 -0.0746  0.1904
 1321ERGO    R217479  15.416   4.338   6.285  0.0741  0.0433  0.1655
 1321ERGO    R317480  15.373   4.557   6.440  0.0911  0.0818  0.1156
 1321ERGO    R417481  15.498   4.361   6.620  0.0507  0.1030  0.1669
 1321ERGO    R517482  15.310   4.467   6.653  0.0624  0.1353  0.1297
 1321ERGO    C117483  15.505   4.580   6.961  0.0531  0.1740  0.1209
 1321ERGO    C217484  15.782   4.530   7.257 -0.1727  0.0305  0.0503
 1322ERGO   ROH17485  17.104  16.971   5.811  0.0467 -0.0547  0.0447
 1322ERGO    R117486  17.143  16.982   6.091  0.1019  0.0376  0.0348
 1322ERGO    R217487  16.958  16.883   6.271  0.0761  0.2093  0.1121
 1322ERGO    R317488  17.171  16.741   6.363  0.0175  0.1295  0.1236
 1322ERGO    R417489  16.996  16.769   6.595  0.0070  0.1550  0.1007
 1322ERGO    R517490  17.206  16.823   6.585  0.0201  0.0864  0.1344
 1322ERGO    C117491  17.218  16.570   6.870 -0.0881  0.0490  0.1050
 1322ERGO    C217492  17.150  16.459   7.137  0.0197 -0.3799  0.0031
 1323ERGO   ROH17493  15.008   9.067   5.955  0.0237  0.3564  0.0926
 1323ERGO    R117494  14.981   8.992   6.227  0.0030  0.2135  0.0520
 1323ERGO    R217495  14.761   9.063   6.379 -0.0094  0.1322  0.0727
 1323ERGO    R317496  14.747   8.795   6.424 -0.0117  0.1082 -0.0688
 1323ERGO    R417497  14.651   8.917   6.672 -0.0249 -0.0200 -0.0083
 1323ERGO    R517498  14.810   8.769   6.653 -0.0233 -0.0109 -0.0777
 1323ERGO    C117499  14.573   8.580   6.885 -0.0360 -0.1312 -0.1883
 1323ERGO    C217500  14.587   8.379   7.093  0.3731  0.4264 -0.1336
 1324ERGO   ROH17501   7.062  14.535   5.639  0.1274  0.1891  0.0519
 1324ERGO    R117502   7.055  14.599   5.915  0.0756  0.0049  0.0946
 1324ERGO    R217503   6.915  14.816   6.013  0.0762 -0.0499  0.2106
 1324ERGO    R317504   6.800  14.628   6.173  0.0250 -0.1450  0.0640
 1324ERGO    R417505   6.756  14.883   6.313 -0.0814 -0.2069  0.1637
 1324ERGO    R517506   6.848  14.703   6.396 -0.0930 -0.2369  0.1253
 1324ERGO    C117507   6.556  14.746   6.637 -0.2213 -0.3878 -0.0012
 1324ERGO    C217508   6.603  14.998   6.861  0.2752  0.2648  0.0364
 1325W        W17509   4.221  14.438  11.246  0.0552 -0.4207  0.0468
 1326W        W17510   4.555   0.675  14.361 -0.1177  0.0819  0.2321
 1327W        W17511  13.647  11.429  10.853  0.1509  0.0998  0.3068
 1328W        W17512  17.714  11.233   0.062  0.0752 -0.0449  0.3891
 1329W        W17513  13.398   1.142  12.023 -0.2342  0.0793  0.2741
 1330W        W17514  18.354  15.805   3.093 -0.1881  0.1814  0.1790
 1331W        W17515  10.334  14.898  10.224  0.2339 -0.1854  0.2008
 1332W        W17516   7.397   8.053   2.828 -0.0133  0.0064  0.0099
 1333W        W17517  12.732   2.864   2.578 -0.1756 -0.0788  0.1152
 1334W        W17518   2.827   1.677  12.259  0.0879  0.3462 -0.3301
 1335W        W17519   4.641   2.396   2.641 -0.1506 -0.0752  0.0241
 1336W        W17520   5.827  11.187  13.857  0.0186  0.2145  0.0405
 1337W        W17521  11.416  13.053   4.308  0.1599 -0.0683  0.2678
 1338W        W17522   1.473  14.948  13.120  0.1797 -0.0000 -0.1477
 1339W        W17523  14.111  16.527   3.202  0.0837  0.1837 -0.2696
 1340W        W17524   2.149   6.574  14.400  0.0409  0.0263  0.2498
 1341W        W17525   2.771   3.436   0.900 -0.2085  0.0289 -0.0029
 1342W        W17526  15.759  13.845   2.426  0.1460 -0.0162  0.2833
 1343W        W17527  15.772   3.868   2.177 -0.2235 -0.1737 -0.1283
 1344W        W17528   5.770   5.328   2.719 -0.2460 -0.1053 -0.0679
 1345W        W17529  11.752   4.564   1.470  0.0044  0.1159  0.1779
 1346W        W17530   3.920   6.998   3.890 -0.0279 -0.0088 -0.3133
 1347W        W17531   1.587   0.927   9.650 -0.3433 -0.0215  0.0609
 1348W        W17532  12.480   1.452   1.548 -0.0464 -0.0810  0.4759
 1349W        W17533   2.138   2.427  14.304 -0.1695  0.0741  0.1151
 1350W        W17534   3.801   6.053   4.152  0.1953 -0.2031 -0.2079
 1351W        W17535  14.993  15.627   5.661 -0.2963 -0.4050  0.0809
 1352W        W17536   1.865   2.564   2.120  0.0583  0.0377 -0.1687
 1353W        W17537   9.236   4.871  14.179  0.0349 -0.2040  0.5155
 1354W        W17538  16.065   6.070   2.588  0.4425  0.0094 -0.1640
 1355W        W17539  11.481   3.695   0.134  0.0833 -0.1907 -0.3440
 1356W        W17540  11.902  14.546  12.726 -0.3106  0.0149 -0.0389
 1357W        W17541  17.633  14.261  14.284 -0.1595  0.0535 -0.1150
 1358W        W17542  18.593   7.406  12.499 -0.3050  0.0426  0.1028
 1359W        W17543   0.425  18.191  12.386  0.2367  0.1946  0.0674
 1360W        W17544   0.663   7.071  14.731  0.0181 -0.2434 -0.1627
 1361W        W17545   6.582   3.801  12.776 -0.1114 -0.1619 -0.1498
 1362W        W17546   7.132  18.517  10.708 -0.0626 -0.2971 -0.1967
 1363W        W17547   7.087  16.213   2.992 -0.0863  0.1905  0.0393
 1364W        W17548   6.258  10.739   3.684  0.1693 -0.1122  0.0385
 1365W        W17549  16.423   3.793  12.266  0.1207  0.2539  0.1864
 1366W        W17550  13.513  10.020   0.182 -0.1728  0.0001 -0.2040
 1367W        W17551   0.147   0.632   2.600  0.1404 -0.1128 -0.1392
 1368W        W17552   2.897   8.664   1.437  0.1387 -0.2015 -0.3561
 1369W        W17553   3.148  16.552  13.222 -0.0321 -0.0067 -0.2169
 1370W        W17554   9.841   5.903   0.435 -0.1596  0.2771  0.0746
 1371W        W17555  11.716   5.207  11.347  0.1762 -0.0223 -0.0558
 1372W        W17556  18.492  13.435  15.116  0.0650 -0.1037  0.3437
 1373W        W17557   9.474   8.475  14.942  0.1799  0.1769  0.0573
 1374W        W17558   8.061  12.054  10.892  0.1790 -0.3892 -0.0756
 1375W        W17559  15.914   4.635   2.761 -0.2161  0.1137 -0.3843
 1376W        W17560  15.059   6.882   0.550 -0.0557  0.0135  0.0554
 1377W        W17561  12.965   6.139   2.122  0.3267 -0.3699 -0.1255
 1378W        W17562   1.462   1.594   2.593  0.1424  0.0685 -0.0561
 1379W        W17563  16.092  14.185   3.181  0.1204  0.1173  0.1901
 1380W        W17564  15.473   1.952   4.847  0.2579  0.1561 -0.1040
 1381W        W17565  10.725  13.335   1.870  0.0699  0.0139 -0.2820
 1382W        W17566  15.381   4.662   2.427  0.1804  0.0900  0.0279
 1383W        W17567   0.317   7.976  15.056 -0.0941 -0.0901 -0.0836
 1384W        W17568  12.365   4.833   1.612 -0.1632 -0.0456  0.0275
 1385W        W17569  18.187   0.634   1.955 -0.1564 -0.0467  0.2226
 1386W        W17570  16.356  14.007  12.820 -0.0753 -0.2851 -0.2111
 1387W        W17571   6.698   0.505   4.748 -0.1210 -0.0517 -0.1686
 1388W        W17572   8.605  18.099  12.458  0.0350 -0.1286 -0.1253
 1389W        W17573   7.727  14.360   0.716  0.2981  0.0320 -0.0827
 1390W        W17574  11.105   6.369   4.940 -0.1166 -0.2848 -0.1266
 1391W        W17575   3.344  14.569   4.604 -0.2157  0.1693 -0.1345
 1392W        W17576  15.694  16.558   2.183  0.0159 -0.0333  0.0095
 1393W        W17577   9.171   1.328   5.031  0.0202  0.1562 -0.1569
 1394W        W17578  15.595   7.597   2.422 -0.2182 -0.1142  0.0802
 1395W        W17579  15.827   1.545   2.698  0.1702  0.1720  0.1232
 1396W        W17580   7.567   5.691  11.669 -0.2920  0.2814  0.1597
 1397W        W17581   0.646   4.988   5.008  0.0757  0.2943 -0.3602
 1398W        W17582   8.867  16.683   0.839  0.2108 -0.1747  0.0871
 1399W        W17583   3.785  18.453   0.489 -0.4119 -0.1058 -0.0875
 1400W        W17584   1.826  17.000  14.411  0.2023 -0.0486  0.3688
 1401W        W17585  12.135  11.179   1.259  0.5098  0.1741 -0.0751
 1402W        W17586  11.494  11.476  12.215 -0.2882 -0.0699  0.3615
 1403W        W17587  12.261  12.205  13.363  0.2588 -0.3318 -0.1612
 1404W        W17588   1.904   0.752   0.328 -0.2061 -0.0078  0.2905
 1405W        W17589   8.419  12.420  12.811  0.1914 -0.0728 -0.1464
 1406W        W17590   4.310   0.616   0.398 -0.2204  0.1297  0.0389
 1407W        W17591  11.767   5.789  13.274  0.1681 -0.1834 -0.1876
 1408W        W17592  17.556   9.735  14.141 -0.1234  0.0955 -0.1992
 1409W        W17593   3.269   4.727   0.853  0.0235 -0.0904 -0.1422
 1410W        W17594  16.942   5.348   0.721  0.0125 -0.1297  0.2035
 1411W        W17595  16.978  18.528   4.283 -0.1332 -0.0467 -0.1144
 1412W        W17596  14.545  15.857  14.366  0.2129  0.0020  0.0101
 1413W        W17597  16.685  15.844   0.375 -0.1253  0.0160  0.0573
 1414W        W17598  13.779  15.643   3.160  0.0415  0.1568  0.1361
 1415W        W17599   9.015   0.079  13.976  0.4678  0.1234  0.0012
 1416W        W17600  16.195  16.355   5.228  0.1206 -0.0387  0.1530
 1417W        W17601   6.838   9.263   1.532  0.4370  0.4601 -0.1516
 1418W        W17602  18.484  13.962  14.245  0.1202 -0.2522  0.1465
 1419W        W17603  11.391   8.932   3.101  0.2360  0.2200  0.4514
 1420W        W17604   7.366   3.232  13.979  0.1487 -0.1214 -0.1434
 1421W        W17605   1.308  15.075  14.876  0.0723  0.1050 -0.0994
 1422W        W17606   7.232   5.325   3.970 -0.0020 -0.1177  0.0876
 1423W        W17607  11.616  18.486  13.900 -0.2838 -0.2073  0.1369
 1424W        W17608   9.307  13.790   3.919  0.0822 -0.0925 -0.1333
 1425W        W17609  11.563   3.848   1.265 -0.1725 -0.0614  0.2742
 1426W        W17610   8.871  18.861  10.601  0.1313  0.2819  0.0666
 1427W        W17611  17.194  17.908  14.719 -0.0695 -0.0915  0.0198
 1428W        W17612  12.397  17.413  12.767 -0.1749 -0.1989 -0.1430
 1429W        W17613  12.521   4.332   3.493 -0.0632 -0.4182  0.3131
 1430W        W17614   4.276  11.776  14.860 -0.2341  0.2441  0.2366
 1431W        W17615   0.926  12.923  10.768 -0.0716  0.2223  0.1410
 1432W        W17616  16.613  14.226   4.859 -0.2002 -0.2016  0.1488
 1433W        W17617   0.154   4.202   3.511  0.1414  0.3160 -0.1746
 1434W        W17618   1.855   7.626   4.583  0.0658  0.3107  0.2769
 1435W        W17619  15.291  13.117  11.725  0.0218  0.0759 -0.0743
 1436W        W17620  12.984  10.553   3.810  0.1241 -0.0635  0.2270
 1437W        W17621   4.748   5.213  13.422  0.0266  0.2230 -0.2100
 1438W        W17622   1.342   1.747  13.581  0.4294 -0.0467  0.1056
 1439W        W17623   9.059  10.079   0.461  0.2422 -0.0320 -0.0753
 1440W        W17624   4.585   5.119  12.000 -0.4150  0.0009  0.0140
 1441W        W17625   6.709   0.454  10.928 -0.1328  0.0852  0.3572
 1442W        W17626   2.790   9.000   4.200 -0.0404  0.2019 -0.1044
 1443W        W17627   3.230   7.750   0.701 -0.2575  0.1216  0.1227
 1444W        W17628   5.388   8.817  13.222 -0.1344  0.0371  0.1042
 1445W        W17629  11.359  11.572   0.505  0.0067 -0.4663  0.0762
 1446W        W17630   8.269  14.607   1.571  0.0133  0.0671  0.1137
 1447W        W17631   5.626  10.655   5.305 -0.2034  0.0443 -0.0197
 1448W        W17632  18.620   7.714  13.707 -0.2114 -0.0223 -0.6248
 1449W        W17633   3.561   7.112   5.524  0.0697  0.1032  0.0703
 1450W        W17634   7.586   3.599  13.638 -0.3047 -0.2554 -0.3438
 1451W        W17635   5.523   2.808  13.341 -0.1697 -0.3893  0.1434
 1452W        W17636  11.877  13.765  14.914 -0.4393 -0.1924  0.1355
 1453W        W17637   0.572   1.649  15.334  0.2469  0.0380 -0.4280
 1454W        W17638  17.848   2.798  12.781 -0.2483 -0.3342  0.1382
 1455W        W17639  11.469  17.385  11.029 -0.0421  0.1553  0.2569
 1456W        W17640   6.661  11.002   4.985  0.0929  0.0617  0.0062
 1457W        W17641  12.813  18.565  13.525  0.1913  0.2397  0.2685
 1458W        W17642   5.291  14.868  11.609 -0.4455 -0.2951 -0.3345
 1459W        W17643  10.665  10.735  14.111 -0.0168  0.2492 -0.0440
 1460W        W17644  16.785   7.386  13.306  0.2635  0.2462  0.1472
 1461W        W17645   7.129   7.972   4.860  0.0978 -0.1632 -0.1215
 1462W        W17646  11.324  17.167   2.875  0.1291 -0.1060 -0.2337
 1463W        W17647   2.957   1.832   1.373 -0.1296  0.1433 -0.0748
 1464W        W17648  10.002  10.387   1.523  0.1808 -0.0349  0.1614
 1465W        W17649   8.576  14.824  13.217 -0.2519  0.2982 -0.1889
 1466W        W17650  12.435   1.436  13.688  0.0003  0.0841 -0.1955
 1467W        W17651  17.720  10.014   5.385 -0.3205  0.0268  0.3435
 1468W        W17652   7.639  14.975   5.128 -0.2719  0.0117 -0.2616
 1469W        W17653   1.648  18.848   0.455  0.0380  0.3679 -0.2660
 1470W        W17654   4.268  13.544  11.260  0.2290 -0.3331  0.0389
 1471W        W17655  17.375  10.461   0.858  0.0429  0.1773  0.2676
 1472W        W17656  12.880  17.652  14.057 -0.2913 -0.1836 -0.1634
 1473W        W17657  10.462  11.194   2.658 -0.3374 -0.1347  0.1519
 1474W        W17658   7.342  15.772   4.408  0.0140  0.0557  0.1664
 1475W        W17659   4.072  10.924   4.529 -0.0482 -0.5685 -0.4517
 1476W        W17660  10.622   9.698  12.133 -0.1830  0.1076  0.1074
 1477W        W17661   2.929  15.838  11.099  0.0270  0.0790 -0.1146
 1478W        W17662   9.060  15.576   3.825 -0.1670 -0.1423  0.0606
 1479W        W17663  12.931   6.477   3.706 -0.1260  0.0212  0.3818
 1480W        W17664  11.350   2.682   2.289 -0.0667  0.2538  0.2088
 1481W        W17665  14.187  11.402   0.904  0.2035 -0.0966 -0.0963
 1482W        W17666   9.601  17.426  15.043 -0.1036 -0.1566 -0.0904
 1483W        W17667   7.568  18.214   1.697 -0.2375 -0.4064  0.1927
 1484W        W17668  18.695   2.337  10.885  0.0097  0.5134 -0.1697
 1485W        W17669  17.075   8.378   2.369  0.0639 -0.3056 -0.0693
 1486W        W17670   6.191  16.297   1.689 -0.1472 -0.1232 -0.5061
 1487W        W17671   2.412  13.143   3.189  0.1797 -0.1326  0.1034
 1488W        W17672   3.180   9.044   3.844 -0.1093  0.0247 -0.0132
 1489W        W17673   9.386   8.180   1.298 -0.1850 -0.0146 -0.1044
 1490W        W17674   3.480  15.193   4.509  0.0876 -0.0259 -0.1723
 1491W        W17675  18.088   7.326   1.892  0.0212 -0.0089 -0.2049
 1492W        W17676  13.665   9.200  11.957 -0.0291  0.1923  0.0250
 1493W        W17677   9.905   4.528  14.761 -0.1670  0.3936 -0.1716
 1494W        W17678  18.680  14.937   3.955  0.0586 -0.0096  0.1271
 1495W        W17679   9.277   4.761  15.336  0.1388 -0.0427  0.0242
 1496W        W17680   8.920  15.249   2.801  0.2133  0.0676 -0.5133
 1497W        W17681  13.369   9.854  12.631 -0.0057 -0.0165 -0.3005
 1498W        W17682   6.241   5.406  13.547  0.2828  0.0979  0.0197
 1499W        W17683  11.924  13.818   2.462  0.1334  0.1547 -0.1003
 1500W        W17684  11.992  17.892   3.334 -0.1548  0.0487 -0.1003
 1501W        W17685  17.495   9.845   4.932  0.2981  0.0762 -0.2537
 1502W        W17686  17.686  17.452  12.768 -0.0504 -0.3313  0.2556
 1503W        W17687   9.855   7.587  12.822 -0.3240 -0.1576 -0.0543
 1504W        W17688   4.817  11.121   5.024 -0.0668  0.2251  0.0340
 1505W        W17689  10.994   9.424  14.408  0.4645 -0.1053 -0.1116
 1506W        W17690  16.293   8.518   1.243  0.0115 -0.0514  0.2003
 1507W        W17691   5.525  18.302   4.767 -0.0780 -0.2100  0.1330
 1508W        W17692   1.371   3.636   3.172  0.1343 -0.1422  0.0494
 1509W        W17693   3.657   8.893   2.193  0.1305  0.1469 -0.0354
 1510W        W17694  14.188   7.005   0.055  0.0643  0.0655 -0.0655
 1511W        W17695  18.316  15.166  14.005 -0.2370 -0.0297 -0.0270
 1512W        W17696  11.987   3.800  10.716  0.0688 -0.1734  0.0855
 1513W        W17697   5.587  16.951  14.982 -0.0208  0.0009 -0.0182
 1514W        W17698   3.067   8.754  12.875  0.1055  0.0060  0.1261
 1515W        W17699   8.448  18.304   2.159  0.1657  0.0629 -0.1486
 1516W        W17700   6.038   0.436   1.641  0.1677  0.2222  0.0205
 1517W        W17701  16.879  18.753   5.383  0.2044 -0.2248 -0.2818
 1518W        W17702   8.970  15.482  13.934 -0.4573  0.0448 -0.1753
 1519W        W17703  11.852  16.133  12.689  0.1862  0.0121 -0.1773
 1520W        W17704   7.239   9.903   1.031  0.2153  0.1645  0.0243
 1521W        W17705   8.532  13.896  15.238  0.1034  0.0057 -0.0080
 1522W        W17706  15.483   4.392  14.385  0.2585 -0.3299  0.3667
 1523W        W17707  13.002   3.751  10.948 -0.0256 -0.2810  0.2106
 1524W        W17708   8.138   8.992   3.859 -0.0397  0.1710  0.2837
 1525W        W17709  12.130  12.294  11.860 -0.0997 -0.0685  0.2430
 1526W        W17710   4.542   9.429  12.983  0.0895  0.1002  0.1472
 1527W        W17711  15.169   2.262   3.048 -0.0671  0.2617 -0.1886
 1528W        W17712   6.937   3.009  13.028  0.2008 -0.1534 -0.1424
 1529W        W17713   6.596   8.177  13.852  0.0017 -0.1151  0.2967
 1530W        W17714   4.646  18.416   1.091  0.5092  0.0431  0.3029
 1531W        W17715  14.884   5.138   3.579 -0.3842  0.1672 -0.1836
 1532W        W17716   7.521   8.595   1.370 -0.1813  0.1224 -0.0035
 1533W        W17717  16.401   4.852   0.766 -0.3065 -0.3062 -0.1832
 1534W        W17718  11.007   7.514   3.939  0.1309  0.2058  0.3278
 1535W        W17719   6.044   1.504  13.746 -0.0571 -0.1804 -0.0361
 1536W        W17720   0.329   8.399  14.056 -0.0816 -0.2883  0.0708
 1537W        W17721   3.296   3.778   3.250  0.0643  0.1921  0.0528
 1538W        W17722  16.451   9.445   4.134 -0.2420 -0.1329 -0.0712
 1539W        W17723  10.235   7.394  12.383  0.0344  0.1881 -0.1192
 1540W        W17724   9.266  18.602   4.306  0.2371  0.1087 -0.3392
 1541W        W17725  18.137  14.971  14.571  0.3981 -0.2565  0.1890
 1542W        W17726   1.587  17.103   0.085  0.1875  0.1395 -0.1158
 1543W        W17727   3.828  16.176  13.647  0.0567 -0.3814  0.2011
 1544W        W17728  16.187  14.597  13.122  0.0841  0.0990 -0.1736
 1545W        W17729   5.991   6.084   4.838 -0.1689  0.0049  0.2431
 1546W        W17730  18.664   3.507  13.093 -0.0515 -0.0143  0.0906
 1547W        W17731  13.285   8.515  12.996  0.0280 -0.0611 -0.3305
 1548W        W17732   8.180   4.609  14.274 -0.2008 -0.3197 -0.1541
 1549W        W17733  17.368   0.072   0.691  0.1764 -0.0517  0.2427
 1550W        W17734  11.145   6.929   3.847  0.0315 -0.2972  0.1829
 1551W        W17735  15.032  16.099  14.343 -0.2332 -0.2158  0.0432
 1552W        W17736  15.311   8.979   4.101 -0.2533  0.0535  0.0409
 1553W        W17737  14.628   3.740   0.786 -0.0531 -0.3842  0.1731
 1554W        W17738  13.666  14.164   4.782 -0.0716 -0.1335 -0.0086
 1555W        W17739   4.405  17.428   1.631  0.1550  0.1166 -0.0953
 1556W        W17740   2.904   1.445   3.293  0.2172 -0.0037  0.0793
 1557W        W17741   7.514   8.413  13.496  0.1095  0.1229 -0.1899
 1558W        W17742   0.273  15.707   1.246  0.1194  0.0057  0.2269
 1559W        W17743  15.761   5.478  11.639  0.1058 -0.1893  0.1475
 1560W        W17744  10.271   6.802  14.803 -0.3272  0.0270  0.0857
 1561W        W17745   8.011   8.420   4.959  0.0816 -0.1126 -0.1036
 1562W        W17746   5.334  10.571  12.703  0.0985 -0.0385 -0.0140
 1563W        W17747  11.434   7.823  13.160 -0.0141 -0.1552 -0.0989
 1564W        W17748  14.427  10.306  13.540  0.0446 -0.2452  0.0372
 1565W        W17749   2.028  15.325   1.052  0.2346  0.2123  0.1628
 1566W        W17750   4.450   1.816   4.849  0.0038 -0.0667  0.1971
 1567W        W17751   5.311   2.061  13.474  0.2580  0.0502 -0.0816
 1568W        W17752  10.223   5.499  12.819  0.2040  0.0884  0.1528
 1569W        W17753   9.075   1.840  13.821 -0.2809  0.2673  0.1190
 1570W        W17754   1.000  16.500  13.440  0.1031 -0.1211 -0.2970
 1571W        W17755   2.532  18.547   0.100  0.1267  0.0138  0.1097
 1572W        W17756  14.882  18.667  14.331  0.2651  0.1022 -0.3006
 1573W        W17757  15.932   0.321  11.194 -0.2263 -0.2342 -0.3047
 1574W        W17758  17.102   7.782  14.513 -0.0379 -0.2139  0.3333
 1575W        W17759   4.122   1.431   4.907 -0.1155 -0.1124 -0.0534
 1576W        W17760  12.416  10.256   3.840 -0.0419  0.0206  0.1485
 1577W        W17761   5.625   3.741  11.601  0.1134  0.0725 -0.1814
 1578W        W17762  15.897   0.634   2.623  0.0347 -0.0542 -0.0525
 1579W        W17763   0.431  13.359  14.392  0.0570  0.1330  0.0901
 1580W        W17764   2.507   3.491   0.095  0.0423  0.2522 -0.0831
 1581W        W17765  16.354   3.849  13.583 -0.0093  0.0738  0.1168
 1582W        W17766   6.575  13.509  11.525 -0.3829  0.3506  0.2550
 1583W        W17767   6.954  13.133   1.878 -0.2982  0.1230  0.2819
 1584W        W17768   9.311  14.840   3.999 -0.2148  0.2145  0.0498
 1585W        W17769  16.458   9.867   2.694  0.1199 -0.1845  0.0324
 1586W        W17770   4.892   2.709   3.678  0.2075 -0.1998  0.0585
 1587W        W17771  10.066   6.152  11.525 -0.1076 -0.0794 -0.1381
 1588W        W17772  12.233  18.252   1.586 -0.1210  0.0721  0.1292
 1589W        W17773  11.006  10.460   3.836 -0.1104  0.0436 -0.0747
 1590W        W17774  18.901   3.924  11.277  0.0341 -0.2788 -0.0756
 1591W        W17775   4.625   6.567  10.176  0.3395  0.1527 -0.0039
 1592W        W17776  17.665   3.447  12.083 -0.0991 -0.0147  0.1984
 1593W        W17777  10.246   7.838   4.237 -0.0358  0.0399 -0.3079
 1594W        W17778  13.681  10.959   3.788  0.2491  0.1094  0.0757
 1595W        W17779  16.015  12.725  15.038 -0.3059 -0.2154 -0.1235
 1596W        W17780  16.527  13.760   1.157  0.0086  0.2675  0.1862
 1597W        W17781   4.580  11.107   3.240  0.1969  0.2782 -0.1478
 1598W        W17782   6.492   8.813  14.664 -0.0497 -0.3561 -0.3570
 1599W        W17783   4.428  15.078  12.009  0.4214 -0.0214 -0.1836
 1600W        W17784  11.483  11.665  12.933  0.0454  0.2062  0.1735
 1601W        W17785   5.029  12.370  10.114 -0.2248 -0.3058  0.1481
 1602W        W17786   5.868  15.485  11.391  0.3239 -0.0263 -0.1129
 1603W        W17787  10.124  14.996  11.434  0.1074 -0.1736 -0.0952
 1604W        W17788  16.933   9.108   1.508 -0.0574 -0.0095 -0.0313
 1605W        W17789   7.105   5.023   3.148  0.1942 -0.2212  0.1070
 1606W        W17790  18.552   9.349  14.445  0.1233  0.0798  0.1854
 1607W        W17791  14.191  16.114   3.754  0.1476 -0.1664  0.3835
 1608W        W17792  14.967   0.935  11.822 -0.1584 -0.1465 -0.0059
 1609W        W17793   5.725   8.619   2.210  0.0403 -0.1269  0.0420
 1610W        W17794  17.545  11.846   1.937 -0.1934 -0.1329 -0.2451
 1611W        W17795   2.353   5.577  15.070  0.1013  0.0771  0.0824
 1612W        W17796   8.270  13.343   9.989 -0.3071  0.2825  0.2399
 1613W        W17797   0.932  13.148   4.102  0.1489  0.4212  0.0307
 1614W        W17798   6.763  14.274   3.954  0.0155 -0.1966 -0.1972
 1615W        W17799   4.476   2.589   5.081 -0.2128 -0.0113 -0.0468
 1616W        W17800   6.398  12.747   0.483  0.0065  0.0981  0.1787
 1617W        W17801  17.475   9.092   3.996 -0.0181  0.0154 -0.1163
 1618W        W17802   3.075  10.769   0.205  0.1281  0.0722 -0.0314
 1619W        W17803   9.255  11.754   2.027  0.1422  0.0916  0.1214
 1620W        W17804  18.658   0.712   6.247 -0.0563  0.2654 -0.4495
 1621W        W17805  11.686  11.507  13.368 -0.3360 -0.1361 -0.1321
 1622W        W17806  10.021  15.386  10.875  0.0735 -0.0461  0.0984
 1623W        W17807   3.572   6.477  11.747  0.0981  0.1428 -0.0521
 1624W        W17808  13.385   0.315  11.506  0.2031  0.0312 -0.0494
 1625W        W17809  18.149   3.137  11.120  0.0213 -0.1771 -0.0670
 1626W        W17810   3.085  12.449  12.919 -0.0338 -0.2512  0.3379
 1627W        W17811  11.648   6.348   2.615 -0.3426  0.0962 -0.0219
 1628W        W17812   5.985   9.474   5.204  0.0010 -0.1042  0.1996
 1629W        W17813  14.386  15.216  15.090  0.2745  0.2641  0.0546
 1630W        W17814  14.587  12.729   3.824  0.1409 -0.0467  0.2001
 1631W        W17815  17.993   6.578  13.033  0.2195 -0.2696  0.0571
 1632W        W17816   0.386   5.359  13.686  0.0162 -0.0907 -0.0242
 1633W        W17817   0.342  15.913   2.941  0.0837  0.1419 -0.1677
 1634W        W17818   7.289   9.203   1.259 -0.1096 -0.0592  0.0053
 1635W        W17819   3.731   2.068  11.725  0.0807 -0.3450 -0.0857
 1636W        W17820  10.258  18.352   2.097  0.2265 -0.2837  0.1761
 1637W        W17821   1.811   5.904  14.818  0.0559 -0.0909  0.3214
 1638W        W17822   8.027   5.009  10.368 -0.0067  0.0654 -0.0055
 1639W        W17823  18.200  14.310  11.721 -0.1069 -0.2555  0.1379
 1640W        W17824   9.500  13.564   2.961 -0.0449  0.0087 -0.3272
 1641W        W17825   9.881  12.766   3.256  0.2732 -0.0108  0.2477
 1642W        W17826   5.723  12.829  13.067  0.0420  0.1182 -0.1323
 1643W        W17827   2.770  13.403  14.852 -0.0408  0.0137  0.3782
 1644W        W17828  12.891  13.076  12.088  0.1288  0.1446 -0.0307
 1645W        W17829   3.753  16.215  12.974 -0.3302  0.0358 -0.0260
 1646W        W17830   1.213   5.503   3.875 -0.0426 -0.0867  0.0747
 1647W        W17831   3.181  11.758  14.137 -0.1523  0.2489  0.2165
 1648W        W17832   7.402  16.957   3.858 -0.2530  0.2276  0.1584
 1649W        W17833  17.298  16.721   1.230 -0.1310  0.1000  0.3575
 1650W        W17834  15.302   5.182   2.520 -0.0275  0.2730  0.0077
 1651W        W17835   7.989   7.210   1.169 -0.1620 -0.0340 -0.0436
 1652W        W17836   4.372  10.812  12.748 -0.3827  0.0217  0.0774
 1653W        W17837   3.270   5.771   0.862 -0.3431  0.0518  0.1457
 1654W        W17838  18.423   0.723  13.913  0.0055 -0.3298 -0.0199
 1655W        W17839   0.569   2.309  11.164  0.0771 -0.1983 -0.1379
 1656W        W17840   9.063  14.449  13.353 -0.1931 -0.0494  0.2981
 1657W        W17841   1.980  13.910   5.122 -0.1246  0.3636 -0.2951
 1658W        W17842   3.086   5.330   9.631  0.1615  0.1113 -0.0208
 1659W        W17843  16.870   6.489  11.835 -0.1075  0.4306  0.3750
 1660W        W17844  10.314  14.570   1.313 -0.4212  0.1429  0.1622
 1661W        W17845   3.069   9.218  12.471 -0.1243 -0.1096  0.0774
 1662W        W17846  11.465   4.087  14.244 -0.2173 -0.1142 -0.0248
 1663W        W17847  10.802   5.135   2.549  0.1201 -0.3873  0.0527
 1664W        W17848   7.695  11.352   1.088 -0.1662 -0.0861  0.1472
 1665W        W17849  14.965   6.874  11.400  0.1404  0.0110 -0.1545
 1666W        W17850   3.426  13.322  10.984  0.0279  0.0697 -0.0888
 1667W        W17851  11.237   7.247   0.989  0.1770  0.1054 -0.0927
 1668W        W17852  18.433   2.962  12.442 -0.0212 -0.2757 -0.0921
 1669W        W17853  12.832  13.937  11.097  0.3503  0.0175  0.1695
 1670W        W17854  17.907   5.174   4.415 -0.1381  0.1091  0.0143
 1671W        W17855   2.359  15.602  12.577 -0.1434  0.0442  0.1962
 1672W        W17856   2.643   5.853  11.710 -0.0265 -0.0969 -0.0232
 1673W        W17857   2.931  14.837  10.846 -0.1309  0.0251  0.2528
 1674W        W17858   8.259   3.801   2.525  0.1115 -0.0230 -0.1765
 1675W        W17859   9.232   8.124   3.200 -0.0240 -0.6952 -0.1272
 1676W        W17860  11.284   3.239   1.742  0.1938 -0.1256 -0.0516
 1677W        W17861  18.212  10.444   4.540  0.1135  0.2589 -0.1073
 1678W        W17862  15.747  18.830  11.084 -0.0430  0.0981  0.0853
 1679W        W17863   3.559   4.681   2.199  0.2153 -0.3287 -0.1978
 1680W        W17864  12.226   9.343   3.067  0.2574  0.0179  0.4115
 1681W        W17865   0.059   3.999  11.790 -0.0102  0.0075 -0.3307
 1682W        W17866  12.048  15.422  11.350 -0.0800 -0.0882 -0.0654
 1683W        W17867   1.855  18.046  13.692  0.0997 -0.0319  0.3811
 1684W        W17868  11.955   5.026   1.434  0.3540  0.0106  0.2295
 1685W        W17869   0.305   5.999   0.302  0.3397 -0.0193  0.0648
 1686W        W17870   4.571  18.933  10.703  0.0637 -0.2786 -0.2100
 1687W        W17871  10.508   0.887   0.216  0.2141 -0.0072 -0.0492
 1688W        W17872  17.334  10.799   3.221 -0.0430 -0.0013  0.0737
 1689W        W17873   1.452  12.880  10.663 -0.1069 -0.1423  0.2859
 1690W        W17874   5.266  11.002   4.542  0.1573  0.3569 -0.0105
 1691W        W17875   5.292  16.812   1.693  0.0582  0.1468 -0.2193
 1692W        W17876  18.823   7.044  10.663 -0.0757  0.2254 -0.3354
 1693W        W17877   8.929   0.894   0.604  0.1481 -0.2976 -0.1497
 1694W        W17878  17.692   1.829  14.484  0.0092 -0.0919  0.0389
 1695W        W17879   6.929   6.991   3.079 -0.3555 -0.0774  0.2312
 1696W        W17880  12.607  15.722   0.248 -0.3743  0.1596  0.3928
 1697W        W17881   8.807  14.934  11.067 -0.0637  0.2049 -0.1839
 1698W        W17882   4.217   4.839  12.030 -0.1387 -0.2750  0.0049
 1699W        W17883   8.923   5.191   3.455  0.0693 -0.0277  0.0103
 1700W        W17884   0.066   3.079   1.122 -0.2469 -0.1756  0.1929
 1701W        W17885  15.880  10.810  14.751  0.3820  0.1619 -0.4279
 1702W        W17886  17.664   1.374  11.480  0.0159 -0.0407 -0.2069
 1703W        W17887  16.338   5.283   3.567  0.0899 -0.1813 -0.0228
 1704W        W17888   7.630  16.503  10.941 -0.1271  0.3721  0.3876
 1705W        W17889   9.015  12.025   3.479  0.1618 -0.1157 -0.0430
 1706W        W17890  17.351  18.812  13.904 -0.1371 -0.0876  0.0927
 1707W        W17891   4.746  18.503  12.356  0.0362  0.0597  0.0406
 1708W        W17892  18.879  16.606  13.231 -0.0066  0.1795  0.1496
 1709W        W17893   0.790   0.554   3.308 -0.0187  0.1312 -0.0990
 1710W        W17894   2.438  17.106   1.040 -0.1709 -0.3075  0.1272
 1711W        W17895   7.397  17.781   2.789 -0.1931 -0.0833  0.2663
 1712W        W17896  15.884   7.667  12.101  0.0948 -0.0285 -0.0931
 1713W        W17897  10.345  11.112   4.890 -0.0226 -0.0331 -0.2183
 1714W        W17898  10.231  17.152  13.393 -0.1324 -0.1318 -0.1229
 1715W        W17899   9.120  15.168  12.133  0.1977  0.0418 -0.2141
 1716W        W17900   7.650   8.986   2.457  0.2142 -0.0488  0.5589
 1717W        W17901   4.930   6.971   2.021 -0.0533 -0.1514 -0.3183
 1718W        W17902  18.060   6.206  15.124 -0.1524 -0.0399 -0.1284
 1719W        W17903   7.157   2.236  11.183 -0.1542 -0.1127 -0.2496
 1720W        W17904   4.654   1.433  13.482  0.1645 -0.0214 -0.0231
 1721W        W17905  14.104   0.918   3.153  0.4354 -0.1792 -0.1723
 1722W        W17906   5.137  12.923   4.130  0.1209 -0.1014 -0.2444
 1723W        W17907   5.869  14.473  12.042  0.1562 -0.1395 -0.0176
 1724W        W17908  13.917  16.982   3.289  0.3157  0.2866  0.1639
 1725W        W17909  13.115  10.193  12.880  0.2437 -0.1812  0.2797
 1726W        W17910   0.203   7.036   4.861  0.0128 -0.2701  0.2389
 1727W        W17911  14.792   3.310  12.001 -0.1507 -0.1165 -0.2626
 1728W        W17912  16.763   6.360  13.747  0.1997 -0.1344 -0.0230
 1729W        W17913  18.473  17.415   1.117  0.0645 -0.1862 -0.1463
 1730W        W17914  10.558  17.821  14.600  0.0860  0.1524 -0.0017
 1731W        W17915  18.203   7.010  10.797  0.3045  0.1703 -0.2973
 1732W        W17916   6.941   2.280   2.326  0.1182 -0.0274 -0.4438
 1733W        W17917   9.173   9.689   1.398  0.0503 -0.0797  0.1567
 1734W        W17918  16.337   3.142  10.864 -0.6194  0.3140  0.0606
 1735W        W17919   5.105   4.397  14.855 -0.5220  0.1633  0.2054
 1736W        W17920   2.757  17.355   0.744  0.4279  0.2415  0.0335
 1737W        W17921  16.960   0.112  13.782  0.0252 -0.1098  0.0096
 1738W        W17922   7.844  14.783   0.072  0.2837 -0.1080  0.0059
 1739W        W17923  18.004   1.203   3.553 -0.0014  0.0595 -0.2781
 1740W        W17924  18.012  16.625  13.585  0.4034 -0.0884 -0.1876
 1741W        W17925   0.617   0.874  11.351 -0.1624 -0.1164 -0.2019
 1742W        W17926  11.799   5.831   4.227 -0.1173 -0.1213 -0.2339
 1743W        W17927   4.218   1.809   5.408  0.0659  0.1128  0.3256
 1744W        W17928  17.500   3.903   4.224 -0.1417  0.0528 -0.3670
 1745W        W17929   4.813  17.534   5.093  0.0168 -0.1477  0.1566
 1746W        W17930  10.049   1.636   2.874 -0.1267 -0.1433  0.1859
 1747W        W17931  11.970  12.508   3.193 -0.1107  0.2436  0.0198
 1748W        W17932  16.561   6.307  15.189 -0.2859  0.0990 -0.1754
 1749W        W17933  13.096   9.784  10.870 -0.2872  0.1925 -0.3270
 1750W        W17934  14.456   2.573   2.663 -0.0912  0.0377  0.3756
 1751W        W17935  11.563   8.857   2.528 -0.0281  0.1934  0.2131
 1752W        W17936   0.126   0.188  14.725  0.1094  0.2806 -0.1521
 1753W        W17937  10.263   6.408   3.091 -0.1459 -0.0445  0.1623
 1754W        W17938   1.924  14.594   3.642  0.1131 -0.0045 -0.0464
 1755W        W17939  17.186   4.828  11.390 -0.2171 -0.1138 -0.1769
 1756W        W17940  15.191   4.436  14.819 -0.4173  0.2009  0.2232
 1757W        W17941   8.913  11.854   3.029 -0.0753 -0.1089  0.1144
 1758W        W17942  13.980   8.395   4.737  0.1850 -0.1453  0.2257
 1759W        W17943   8.154   4.102  11.430 -0.0032  0.3124 -0.1878
 1760W        W17944   8.438  15.037   2.650  0.0623 -0.1081  0.1905
 1761W        W17945   6.328   2.131  11.817  0.2696 -0.2799  0.0469
 1762W        W17946   6.378   1.406  11.873  0.0265  0.0732  0.1355
 1763W        W17947   5.925   6.624   0.674 -0.3009 -0.0011 -0.0187
 1764W        W17948   8.764  17.147   0.521  0.0563 -0.1839  0.0718
 1765W        W17949   4.570   2.617   0.725  0.0264  0.0555 -0.3262
 1766W        W17950   9.370  14.589  12.276 -0.1514 -0.1203 -0.0174
 1767W        W17951  12.840   5.253  14.619 -0.0906  0.0894  0.1899
 1768W        W17952   8.527  17.674   4.941  0.0314  0.0417 -0.4930
 1769W        W17953  12.973  15.865   0.744 -0.1596 -0.1075  0.0907
 1770W        W17954   3.393   1.695   3.201  0.1113 -0.2573  0.1189
 1771W        W17955   7.272   5.362   4.434  0.0653 -0.3269  0.1969
 1772W        W17956   1.730   3.002   3.713 -0.0787  0.1957 -0.1464
 1773W        W17957  15.813  15.076  11.987 -0.0705  0.2620  0.2466
 1774W        W17958   2.144  17.754  11.059 -0.2100  0.1471  0.0685
 1775W        W17959   9.410   7.696   2.827  0.2604 -0.0612 -0.0984
 1776W        W17960  12.914  15.944   3.537  0.0330 -0.3122 -0.3707
 1777W        W17961   7.156   2.455   4.917  0.0197 -0.1846 -0.0447
 1778W        W17962  15.041   8.861   1.266 -0.3582  0.0591  0.2267
 1779W        W17963   8.223  14.915  10.051  0.3175  0.3233 -0.1846
 1780W        W17964  17.003   5.340  14.946  0.3190  0.0310 -0.2143
 1781W        W17965  14.744  17.434   2.446 -0.4018 -0.0596 -0.0920
 1782W        W17966   3.047  14.839  13.523 -0.1292 -0.0877 -0.0463
 1783W        W17967   0.954  18.438  13.948 -0.2351  0.4349  0.0612
 1784W        W17968  18.047   0.869  13.034  0.0027  0.2707  0.1115
 1785W        W17969  12.362  11.447   1.726 -0.1565  0.0663 -0.1187
 1786W        W17970   2.744  18.022  11.550  0.1749 -0.3022 -0.2315
 1787W        W17971  14.830  10.015   3.089 -0.1420 -0.0819  0.0578
 1788W        W17972  17.065  16.575  13.407  0.0278 -0.0589 -0.0178
 1789W        W17973   5.531  17.284  13.626  0.0298  0.0100 -0.1572
 1790W        W17974  13.346   2.504   0.024  0.2030 -0.0317 -0.1244
 1791W        W17975   3.357  15.854   4.117  0.1985  0.1684  0.0570
 1792W        W17976   4.087   8.045   3.596 -0.0967  0.0069  0.4209
 1793W        W17977   0.426  12.754  12.841 -0.3112  0.0137  0.0776
 1794W        W17978   7.514   1.088   5.089  0.0206  0.0799 -0.2462
 1795W        W17979  18.503   9.402  13.938  0.0397  0.0659 -0.0551
 1796W        W17980  18.333   5.904   0.117  0.3054  0.0332 -0.0074
 1797W        W17981   6.341  15.423  11.113 -0.1891 -0.1007 -0.3068
 1798W        W17982   6.782  12.717   3.777  0.3062 -0.0380 -0.1566
 1799W        W17983   4.046  18.923   0.571  0.1142  0.2167  0.1962
 1800W        W17984   0.455   2.884  13.901  0.1475 -0.0199 -0.1122
 1801W        W17985  16.749  14.238   1.032 -0.0594 -0.0159  0.1922
 1802W        W17986   1.163  17.306  10.718 -0.1382 -0.3015 -0.4522
 1803W        W17987   7.327   1.126  10.880 -0.3853  0.2697 -0.4249
 1804W        W17988  11.046  17.383   0.438 -0.2307 -0.4539 -0.2149
 1805W        W17989   3.224   4.838   1.824  0.0006 -0.1001  0.2541
 1806W        W17990   8.510  14.979   2.106  0.1457  0.4786  0.1929
 1807W        W17991  11.337   7.734  14.989 -0.2833  0.1418  0.1172
 1808W        W17992   2.740  17.098   5.019 -0.2755  0.1113 -0.2733
 1809W        W17993   1.215   3.698  15.077 -0.0637  0.1795 -0.4211
 1810W        W17994  12.600  18.930   0.578  0.0318  0.1557 -0.0204
 1811W        W17995   9.324  14.874   4.662  0.2319  0.1129  0.1402
 1812W        W17996  11.124   5.940  14.029 -0.1634 -0.2052  0.0431
 1813W        W17997   5.710  11.713  11.330 -0.1615  0.3710  0.1332
 1814W        W17998   2.801   9.884   5.936 -0.1537  0.1508  0.1662
 1815W        W17999  14.259  12.530   0.651 -0.2709  0.1057 -0.3104
 1816W        W18000   1.440  18.645   5.811 -0.5508  0.0738 -0.0021
 1817W        W18001   2.106   4.744   5.259 -0.0977  0.0810  0.0323
 1818W        W18002   2.714   6.416   3.354  0.2420 -0.0411  0.2774
 1819W        W18003  11.857  17.884  13.150  0.1083  0.1087 -0.2838
 1820W        W18004  18.886   2.558   0.333 -0.2778 -0.2509  0.2638
 1821W        W18005   8.623   8.635   0.091  0.1241  0.1806  0.1440
 1822W        W18006   5.146  10.127   3.138  0.2995  0.0068 -0.1340
 1823W        W18007  16.935   5.923   2.608  0.1099 -0.1517  0.2215
 1824W        W18008   7.416   5.368   0.161 -0.1378  0.2093 -0.0155
 1825W        W18009  16.431   4.084  10.834  0.1290 -0.0295  0.0320
 1826W        W18010   2.603   5.144   2.836  0.1742 -0.1454 -0.4128
 1827W        W18011  12.450   4.726  12.893 -0.2689 -0.2083  0.4261
 1828W        W18012  15.216  12.365  11.573  0.1476 -0.2931  0.1878
 1829W        W18013  16.650   0.712   0.502  0.0193 -0.0510 -0.0607
 1830W        W18014  15.314  14.834  13.613  0.3123  0.3056 -0.1930
 1831W        W18015   2.881  15.904   1.489  0.1129 -0.1469 -0.1251
 1832W        W18016   6.400   8.778   4.633 -0.2049 -0.1250 -0.0617
 1833W        W18017   1.455  12.615   3.945  0.1084  0.4204 -0.0776
 1834W        W18018  17.742  11.746  11.802  0.0039 -0.3062 -0.0356
 1835W        W18019   4.594  14.274   0.165  0.0267  0.1081 -0.0994
 1836W        W18020   1.275  18.681  12.159  0.1774  0.1019  0.1489
 1837W        W18021   3.318   8.060  11.246 -0.2742  0.2150  0.3015
 1838W        W18022   7.164  12.474   1.592  0.2418  0.1273  0.2451
 1839W        W18023  17.839   7.198  14.172  0.0477  0.1202  0.2014
 1840W        W18024  17.895   8.928   0.195 -0.0481 -0.0224 -0.0573
 1841W        W18025  12.628  10.456  14.759 -0.0480 -0.1957 -0.2080
 1842W        W18026   3.683  11.893  11.109  0.2013 -0.2849  0.1218
 1843W        W18027  16.180   3.451  14.950 -0.1302 -0.0049 -0.0777
 1844W        W18028   8.689   6.771   0.284  0.1709 -0.1453 -0.1017
 1845W        W18029   2.581  14.882  12.129 -0.0953  0.0442  0.2095
 1846W        W18030   9.561   7.139   0.450  0.2969  0.3171  0.0794
 1847W        W18031  18.624   2.032  12.067 -0.2617 -0.3022  0.0356
 1848W        W18032  15.172   3.854  11.498 -0.1389 -0.1938  0.1750
 1849W        W18033   3.194  12.004   3.912 -0.4106 -0.0399 -0.0257
 1850W        W18034   0.519  13.001   1.292  0.0345  0.0170  0.0754
 1851W        W18035  13.114   3.589  14.397  0.1419 -0.3392 -0.1694
 1852W        W18036   7.420   7.589  14.704  0.1258  0.0596 -0.2616
 1853W        W18037  10.021   2.800   1.554 -0.1054 -0.2682  0.3603
 1854W        W18038   6.849  18.515   0.887 -0.1939  0.0729 -0.1417
 1855W        W18039   6.520  15.936  14.021 -0.1542  0.0994 -0.2952
 1856W        W18040   6.608   5.227   2.510  0.2518  0.3609  0.2270
 1857W        W18041  11.534   4.417  13.317 -0.1776 -0.0265  0.0032
 1858W        W18042  10.075   4.667   3.768  0.2524 -0.1559  0.1404
 1859W        W18043   6.314  15.500   4.294 -0.1995 -0.3180  0.1127
 1860W        W18044   3.116   8.059  12.110 -0.2727 -0.1700 -0.2443
 1861W        W18045   8.632  10.009  14.167 -0.0798  0.0444 -0.0070
 1862W        W18046  12.457  13.973  14.592 -0.3150 -0.2501 -0.0553
 1863W        W18047  16.209  10.670   2.616  0.1025 -0.1876 -0.1925
 1864W        W18048  11.091   2.195  12.815  0.0670  0.4668 -0.0702
 1865W        W18049  11.654   3.394   2.777  0.3439 -0.2356 -0.1798
 1866W        W18050   7.521  18.569  15.331 -0.0098 -0.2424  0.4036
 1867W        W18051   3.746   3.120   2.952 -0.0356  0.1040 -0.1903
 1868W        W18052   8.287   2.424  15.360 -0.0069 -0.0713 -0.0384
 1869W        W18053   4.920  14.382  13.253  0.1378  0.1654 -0.0879
 1870W        W18054   4.027   8.524  15.344  0.0513 -0.0501 -0.0485
 1871W        W18055  16.595  11.516  13.135  0.0441  0.2594 -0.0225
 1872W        W18056  15.957   5.880  11.422  0.4730  0.1380  0.1636
 1873W        W18057   1.211   9.786  14.517 -0.0805  0.1396 -0.1188
 1874W        W18058   7.690   7.066   2.567  0.3839  0.0063  0.0511
 1875W        W18059  10.702  17.638   2.291 -0.2241 -0.0339 -0.0716
 1876W        W18060   4.536   5.329   5.600  0.0269 -0.1379 -0.1767
 1877W        W18061  18.601  12.854   3.612  0.0700  0.3237 -0.0882
 1878W        W18062   7.835   6.314  13.212 -0.0294  0.1298  0.0452
 1879W        W18063  17.002  16.815   2.029  0.2986  0.2779 -0.0658
 1880W        W18064  18.100   3.303   4.679  0.0477  0.1257  0.0444
 1881W        W18065   6.987   7.484  10.287  0.0512  0.2681 -0.0335
 1882W        W18066   2.767  18.503   0.867 -0.1065 -0.0838 -0.0990
 1883W        W18067   2.271   9.406  11.854 -0.1232  0.2880  0.1878
 1884W        W18068   6.265  17.906  11.448 -0.3131 -0.2686 -0.0024
 1885W        W18069   3.283  16.811   1.428  0.2835 -0.0278  0.0734
 1886W        W18070  12.327  17.645  14.031 -0.4947 -0.1608  0.0038
 1887W        W18071   2.529   5.424  11.917  0.1662 -0.3822 -0.2347
 1888W        W18072   6.535   9.813   1.352  0.1245 -0.3313 -0.2216
 1889W        W18073   2.971   4.388   3.894 -0.2541 -0.6064 -0.0982
 1890W        W18074   6.446  13.361  13.766  0.0701  0.1675 -0.1321
 1891W        W18075   0.928   7.825   5.703 -0.3833  0.0721  0.0780
 1892W        W18076  14.827  13.887   0.713 -0.1087  0.2693 -0.3373
 1893W        W18077  15.734  18.147   1.627  0.0900 -0.3146  0.0477
 1894W        W18078   1.834   6.270   3.048 -0.0856 -0.1926  0.2329
 1895W        W18079   0.364   5.919  12.653  0.3025 -0.3136  0.2055
 1896W        W18080   0.416   8.621  13.079  0.0776 -0.0103  0.1216
 1897W        W18081  11.663   1.545  11.637 -0.0367  0.1067 -0.1631
 1898W        W18082   3.046   0.220  15.026 -0.3514 -0.2691 -0.4296
 1899W        W18083   0.949  13.935  11.117  0.2447 -0.0301 -0.3853
 1900W        W18084   7.813   3.532   5.347 -0.1558  0.1642  0.1893
 1901W        W18085   5.695   1.763   4.090 -0.0679 -0.1970 -0.0663
 1902W        W18086   4.594   3.598  13.020 -0.2486 -0.2633  0.1682
 1903W        W18087   2.752   5.992   1.312 -0.0214  0.2176 -0.2063
 1904W        W18088  10.346   4.447   4.257  0.0379 -0.0539 -0.0186
 1905W        W18089   5.762   8.681   1.582  0.0018  0.1668  0.2114
 1906W        W18090   1.209  13.549  11.308 -0.2020 -0.1949  0.0908
 1907W        W18091  14.283   8.089  13.217 -0.2035  0.0047 -0.0188
 1908W        W18092  16.786  11.077   5.183  0.0771  0.0257 -0.0018
 1909W        W18093  15.526   8.484   2.873 -0.0718 -0.3159 -0.0396
 1910W        W18094  14.946   0.266  13.670 -0.0797 -0.1383  0.1403
 1911W        W18095   6.401   5.025  10.834 -0.2000 -0.0338 -0.0592
 1912W        W18096  13.242  16.633   1.989 -0.1859  0.1607 -0.0922
 1913W        W18097   7.654   4.433   4.833  0.0363  0.1855  0.0562
 1914W        W18098  13.212   1.671   2.547  0.0771 -0.3324  0.2539
 1915W        W18099  13.415  17.763   1.429  0.0236 -0.0651  0.0937
 1916W        W18100   9.344   7.135   4.053  0.0014  0.2538  0.1677
 1917W        W18101  16.558   8.151  10.356 -0.0051 -0.0006 -0.2181
 1918W        W18102   1.628  13.794   4.529  0.1730 -0.2382 -0.0567
 1919W        W18103  12.214  14.399   4.408 -0.0989  0.1033 -0.0678
 1920W        W18104  14.637   1.209   5.304 -0.0976 -0.1099  0.0166
 1921W        W18105  12.125  18.368  15.265 -0.1146 -0.0142  0.0815
 1922W        W18106   2.601  18.538   2.610 -0.1732 -0.3454 -0.0148
 1923W        W18107  16.624  14.873  13.128 -0.0746 -0.1788  0.1744
 1924W        W18108   9.327  17.745   0.767  0.1203 -0.0909  0.0594
 1925W        W18109  13.772   2.063  13.376  0.4534  0.1711 -0.2814
 1926W        W18110  10.356  10.424   1.987 -0.2843  0.3280  0.3114
 1927W        W18111  18.410  16.552   1.339 -0.1200  0.0985  0.1907
 1928W        W18112   7.519  10.089  10.972 -0.1306  0.0214  0.0128
 1929W        W18113   5.097   9.668  12.736  0.0396  0.1698 -0.2651
 1930W        W18114  17.694  17.866   3.193 -0.0288  0.1728  0.1743
 1931W        W18115   1.499   9.538   1.164  0.0534  0.0621 -0.0190
 1932W        W18116  12.172   3.940  12.550  0.0921 -0.1245 -0.1259
 1933W        W18117   3.398   2.057   0.491  0.0369 -0.1047  0.2366
 1934W        W18118   4.322  10.542   1.425  0.2749  0.0164  0.0148
 1935W        W18119  16.937  17.691   3.718  0.0175  0.1533  0.0147
 1936W        W18120   0.604  15.443   4.254 -0.0808  0.1572 -0.0067
 1937W        W18121  17.816  10.133  12.635 -0.0064 -0.3294 -0.1891
 1938W        W18122   2.499   0.293   0.360 -0.0556  0.1102 -0.0530
 1939W        W18123  11.584  11.507   3.749 -0.0229  0.0474 -0.0764
 1940W        W18124   4.327   8.095  13.029  0.3139  0.3105  0.3425
 1941W        W18125   4.972   4.030   2.878 -0.0930 -0.2750  0.0638
 1942W        W18126  18.561  17.644  12.272  0.0002  0.0682  0.0766
 1943W        W18127   8.809  14.396  14.818 -0.0290 -0.2062  0.0242
 1944W        W18128  18.758  17.740  14.149  0.0606  0.0237 -0.0208
 1945W        W18129   2.636   0.527   1.411 -0.2776 -0.0461 -0.0129
 1946W        W18130   9.658  17.382   3.458  0.3115 -0.2932 -0.1681
 1947W        W18131   9.159  15.464  10.252 -0.1630 -0.2478 -0.1728
 1948W        W18132   3.426   6.826   3.861 -0.2921  0.3081 -0.0124
 1949W        W18133  14.480   2.210   2.224  0.1063 -0.1262 -0.1679
 1950W        W18134  13.987  14.249   5.241 -0.1101  0.0330 -0.0714
 1951W        W18135  18.798   0.974  14.429 -0.0363 -0.3132 -0.1771
 1952W        W18136  13.872   7.306  13.040  0.1509 -0.0075  0.0130
 1953W        W18137   4.217  18.908   3.110 -0.1404  0.0645  0.1312
 1954W        W18138  13.287   9.595   1.668  0.1090 -0.1586 -0.0057
 1955W        W18139  14.550  18.362  11.918  0.1478 -0.1766 -0.0072
 1956W        W18140   3.819   0.863  12.902  0.0368  0.0490 -0.3775
 1957W        W18141  15.474   4.326   0.471  0.4429  0.0408 -0.0410
 1958W        W18142   0.614  14.628  12.224  0.1945 -0.2044 -0.0462
 1959W        W18143   4.201   1.571   2.014  0.0139  0.1517  0.0499
 1960W        W18144   4.681   1.212   4.178  0.1102 -0.0187 -0.2173
 1961W        W18145  12.473  11.035   0.060  0.5501 -0.0510  0.3364
 1962W        W18146   3.534   8.843   0.696 -0.1858  0.0264  0.0439
 1963W        W18147  18.701   9.463  11.028 -0.0511  0.2732 -0.1744
 1964W        W18148   8.718   7.990  13.829 -0.0128 -0.0558 -0.4446
 1965W        W18149   6.464   2.814   6.059 -0.2532  0.0106  0.0670
 1966W        W18150  11.482   7.326   3.990  0.0944  0.0732 -0.1845
 1967W        W18151   2.040   8.108  15.069 -0.0751  0.1166 -0.0670
 1968W        W18152   7.826  17.351  13.953  0.1251 -0.1660  0.0294
 1969W        W18153   9.568  18.951  11.115 -0.2457  0.0425 -0.2385
 1970W        W18154   9.707  14.647   4.312 -0.1500  0.0091  0.1233
 1971W        W18155  11.507   1.850  12.936  0.0461  0.2518  0.0413
 1972W        W18156  15.759  17.647  12.991  0.1522 -0.1649 -0.2627
 1973W        W18157  13.549   2.461   5.487  0.0049 -0.2353 -0.2109
 1974W        W18158   7.628  16.515   1.501  0.2366 -0.5579  0.4952
 1975W        W18159   3.975   3.653   2.354  0.0075  0.0444  0.1636
 1976W        W18160  14.418   4.216   1.438 -0.1952 -0.2719 -0.2490
 1977W        W18161  18.164   6.406   3.636  0.1375  0.3217 -0.2225
 1978W        W18162   2.820   6.725  11.016  0.3659  0.2519  0.0937
 1979W        W18163   7.389   2.748   0.239 -0.2906 -0.1204  0.2239
 1980W        W18164  13.327  13.783   3.114 -0.0897  0.1897 -0.2119
 1981W        W18165  18.582   6.148   3.664  0.0991  0.1878 -0.0396
 1982W        W18166   1.819   5.308   0.756  0.0209  0.0198 -0.1442
 1983W        W18167  16.275   3.347   1.209  0.1797 -0.1208 -0.0155
 1984W        W18168  10.230   9.332   5.598 -0.3011  0.1083  0.0805
 1985W        W18169  11.714   2.439   3.576 -0.0192 -0.1796 -0.3424
 1986W        W18170   0.052  10.155  14.141  0.1568  0.1129  0.1884
 1987W        W18171  13.606   2.426  11.732 -0.2478 -0.2618  0.0317
 1988W        W18172  18.403   3.600   4.904  0.1750  0.0456 -0.1571
 1989W        W18173  13.423  17.633  11.847  0.2653 -0.0224  0.0318
 1990W        W18174   0.209   8.813   0.069 -0.1627  0.1468 -0.4006
 1991W        W18175  18.178   3.589  12.440  0.0490 -0.2435  0.0377
 1992W        W18176   8.507  16.944   3.411  0.1600  0.0764 -0.0365
 1993W        W18177  13.091   2.279  15.062  0.1374 -0.0557  0.1852
 1994W        W18178   6.051   1.380   3.975  0.0991  0.0434  0.2093
 1995W        W18179   5.252  17.940   1.414 -0.0144 -0.1039  0.1093
 1996W        W18180  16.319   1.706   2.901  0.0974  0.0195  0.2181
 1997W        W18181  12.957  10.229   0.178 -0.0738  0.1427 -0.0151
 1998W        W18182  14.996  13.650   2.160  0.1204 -0.1888  0.2043
 1999W        W18183   2.988  17.083  13.170  0.0689 -0.0999 -0.0585
 2000W        W18184   1.559   6.969   4.998  0.1639 -0.1818  0.2623
 2001W        W18185  13.101  11.524   4.669  0.2319 -0.1051  0.2083
 2002W        W18186   9.386  14.358  14.917  0.0227 -0.1266 -0.1661
 2003W        W18187   1.380   2.465  11.208  0.0578 -0.2095 -0.2047
 2004W        W18188  15.638   9.582  13.153  0.5219  0.1553 -0.0869
 2005W        W18189  17.480   9.790   1.876 -0.1634 -0.1470 -0.0181
 2006W        W18190   4.371  18.572   4.433  0.0070 -0.3438  0.0904
 2007W        W18191   1.121  13.973   1.805  0.1256 -0.2453 -0.3374
 2008W        W18192   6.464   0.261   4.138 -0.2572  0.0729  0.1673
 2009W        W18193  10.909   7.734  15.346  0.1620 -0.1424  0.0045
 2010W        W18194  13.561  12.928   3.689  0.2851  0.2751 -0.1441
 2011W        W18195   7.648   6.699  11.934  0.2412 -0.2758 -0.1834
 2012W        W18196   4.574  17.047   3.992  0.1007 -0.2535  0.1271
 2013W        W18197  13.694   8.205   3.175  0.2507  0.1137  0.1789
 2014W        W18198   6.570  13.005   2.730  0.0857 -0.1866 -0.1197
 2015W        W18199  13.446  13.141  10.402 -0.1861 -0.1811  0.0767
 2016W        W18200   6.133   7.449  11.112 -0.1014 -0.3563 -0.2358
 2017W        W18201  15.354   9.260   0.168 -0.0156 -0.0106 -0.1550
 2018W        W18202   8.581  13.782  14.774 -0.0252 -0.1859 -0.0869
 2019W        W18203   6.116   0.085   0.044  0.0328  0.1015  0.0274
 2020W        W18204  17.139  12.835   2.375 -0.0668  0.1282  0.0626
 2021W        W18205  16.673   1.904  13.181 -0.1111 -0.0551 -0.1697
 2022W        W18206   6.736  17.146  11.951  0.0785 -0.0210  0.0244
 2023W        W18207  13.688   2.892   1.993 -0.1625 -0.1125 -0.2198
 2024W        W18208  13.419   2.044   0.006  0.1942 -0.1006  0.0830
 2025W        W18209   7.413   1.651   3.708  0.3307  0.2738 -0.0678
 2026W        W18210   9.706  16.034   4.321  0.0958  0.0480 -0.1407
 2027W        W18211   9.009   1.885   0.351  0.2403  0.1370  0.1494
 2028W        W18212   4.161   3.076   3.295  0.1616 -0.1592 -0.0369
 2029W        W18213  15.111  17.493   5.017  0.2839 -0.2028  0.0042
 2030W        W18214  13.017   3.041  14.421  0.3136  0.2841 -0.2807
 2031W        W18215  11.201   8.126   2.743 -0.3541 -0.1402 -0.1888
 2032W        W18216  17.794  16.317  11.106  0.1109 -0.3706  0.0310
 2033W        W18217   9.495   6.521   4.059  0.1026 -0.1333  0.0961
 2034W        W18218  14.920   2.256   0.654 -0.0359 -0.0434 -0.0214
 2035W        W18219  17.272  15.727   5.618  0.1118 -0.2322 -0.1679
 2036W        W18220   8.701   8.714   3.733  0.1605  0.1510  0.3314
 2037W        W18221  18.715  17.738  15.116  0.1587  0.1215 -0.1987
 2038W        W18222   5.856   7.964   0.833  0.3411  0.1863  0.1774
 2039W        W18223   2.269  12.522   9.673 -0.0558  0.1511  0.1832
 2040W        W18224   0.456   6.493   4.190  0.1942  0.1439  0.0957
 2041W        W18225  11.923  15.402   3.746  0.2684 -0.0120 -0.0607
 2042W        W18226  12.630  11.383  11.255  0.0762 -0.1621  0.1509
 2043W        W18227  15.148   6.778   5.131  0.0720 -0.5575  0.0854
 2044W        W18228  11.544  14.864   9.666  0.0940  0.1168  0.0182
 2045W        W18229   9.677  11.564  13.597  0.1230  0.0723  0.0753
 2046W        W18230  17.816  10.753   2.970 -0.0702  0.0339 -0.1523
 2047W        W18231  11.256   0.235  14.284 -0.0960  0.2289  0.0066
 2048W        W18232   9.338   7.712   4.103 -0.0169  0.2487 -0.3238
 2049W        W18233   9.293   5.506   2.701 -0.1037 -0.0080 -0.3568
 2050W        W18234   0.090   4.961   4.164  0.1423  0.2774 -0.0338
 2051W        W18235  11.176   4.109  12.307 -0.2615  0.4426 -0.1774
 2052W        W18236   0.206   5.063   1.891 -0.0769  0.0315 -0.2741
 2053W        W18237   1.944  10.673   5.032  0.0057 -0.5139 -0.1152
 2054W        W18238  10.958  18.664  11.785 -0.3188  0.3047  0.2197
 2055W        W18239   9.851  11.254  14.060 -0.2515 -0.3318  0.1145
 2056W        W18240   5.369  18.960  13.023 -0.3135  0.3218  0.0692
 2057W        W18241   7.749  17.003   2.930  0.0338 -0.5376  0.1459
 2058W        W18242  10.928   0.382   3.932 -0.1952 -0.1816  0.1180
 2059W        W18243   0.804   4.607   3.909  0.2074  0.4192 -0.1342
 2060W        W18244   9.269   1.046  11.089 -0.2676  0.3006  0.3295
 2061W        W18245  18.454   0.539  12.111  0.0709  0.0319 -0.0239
 2062W        W18246  17.653   0.471   1.335 -0.0598  0.0260  0.4156
 2063W        W18247  15.792   1.628  11.757  0.3470 -0.1510  0.0588
 2064W        W18248   4.218   3.456   4.230  0.1639 -0.2041 -0.1946
 2065W        W18249  14.610   7.740  14.894  0.1443  0.0244 -0.4033
 2066W        W18250  12.682  15.039  14.558  0.2011 -0.0415 -0.3200
 2067W        W18251   2.835   9.629  10.750 -0.0710  0.2631 -0.1762
 2068W        W18252  17.701   7.652   0.668 -0.1783  0.2785  0.0202
 2069W        W18253   9.339  12.190  11.568 -0.0990  0.1400  0.1910
 2070W        W18254   8.662   9.621   1.459  0.1115  0.0674  0.1892
 2071W        W18255   3.800   0.641   0.256 -0.0809  0.0852  0.1454
 2072W        W18256  10.868   5.132  11.580  0.0262  0.1124  0.0067
 2073W        W18257  17.970  11.697   2.319 -0.1055 -0.1446  0.0698
 2074W        W18258   3.113   7.820   3.326 -0.0142  0.2491  0.0594
 2075W        W18259   6.482   9.992  14.920  0.1048 -0.0553  0.2047
 2076W        W18260   8.869   7.407   2.016 -0.2253  0.0901  0.0064
 2077W        W18261   8.464   8.435   4.688  0.1878  0.0899 -0.1092
 2078W        W18262  13.540   0.805   4.186  0.0958  0.3402  0.0361
 2079W        W18263   4.841  13.666   5.141  0.0574  0.0758  0.0716
 2080W        W18264   0.667   2.597  13.528  0.1295  0.0104  0.3027
 2081W        W18265   3.822  14.476  10.879  0.0471  0.1616 -0.0376
 2082W        W18266   1.527  11.908  14.689  0.1254 -0.1463 -0.0759
 2083W        W18267  13.310  10.813   4.107 -0.0317  0.0629 -0.2264
 2084W        W18268   8.544   0.734   4.927  0.2746  0.0946 -0.1424
 2085W        W18269  10.070   7.901  14.117 -0.0870  0.3134  0.3991
 2086W        W18270  11.707   7.844   4.369 -0.1164  0.1341  0.3518
 2087W        W18271   6.496  15.522   1.385  0.2027  0.0931 -0.0965
 2088W        W18272   9.384  14.271   1.909 -0.0669 -0.0935  0.1622
 2089W        W18273  13.504   1.694  12.804 -0.0824 -0.3134 -0.0434
 2090W        W18274   6.428  11.085   4.563 -0.2088 -0.2354  0.0250
 2091W        W18275   3.643   6.603   2.011  0.1234  0.2219 -0.3339
 2092W        W18276   8.308  13.129   5.111 -0.1495  0.4057  0.0130
 2093W        W18277   2.475   0.295  14.942  0.1308  0.1259  0.2511
 2094W        W18278  18.823   8.641   2.018  0.0163 -0.1368 -0.3777
 2095W        W18279   9.004  17.684  10.609  0.0461 -0.0799 -0.1362
 2096W        W18280   0.045   7.983  11.095  0.3791 -0.1333 -0.0819
 2097W        W18281   6.637  14.340   5.735 -0.0049 -0.2675 -0.0099
 2098W        W18282  12.675   2.835  11.259  0.1805 -0.0312 -0.0651
 2099W        W18283   7.276   0.504   0.407 -0.2020 -0.2286  0.1843
 2100W        W18284  17.369   9.724   4.476  0.1246  0.0609 -0.0837
 2101W        W18285  15.031   4.510   0.334  0.0029  0.0739  0.3102
 2102W        W18286   1.334   1.563   1.185 -0.0343 -0.0721 -0.1377
 2103W        W18287   4.132   8.974   1.388 -0.0276 -0.0939 -0.1318
 2104W        W18288   1.677   6.257   3.637 -0.2537 -0.4095  0.4086
 2105W        W18289  11.973   0.784   2.572  0.0919  0.1122 -0.0984
 2106W        W18290  14.361  14.138   0.702  0.1262  0.1408 -0.4204
 2107W        W18291  14.901   9.593   4.688  0.0504  0.2272 -0.2396
 2108W        W18292   3.670   6.161   1.789 -0.1604  0.1390  0.2248
 2109W        W18293  15.815  17.030   4.974 -0.2774 -0.0171 -0.0387
 2110W        W18294  12.407   4.859   0.648  0.1411 -0.3412  0.1611
 2111W        W18295  13.064   4.249  10.721 -0.0193 -0.1958 -0.3258
 2112W        W18296  11.824   3.090  12.959  0.0504 -0.0075  0.1085
 2113W        W18297  11.138   6.888   0.602  0.1949 -0.2438 -0.0036
 2114W        W18298   5.678   2.600  12.259  0.2545  0.0232 -0.3895
 2115W        W18299   3.763   6.873  11.457 -0.2421 -0.0484  0.2694
 2116W        W18300   7.104   4.329  14.882  0.0336  0.0427 -0.1043
 2117W        W18301   7.503   7.457  15.314  0.0873 -0.0684 -0.2263
 2118W        W18302  12.116   3.591  13.781 -0.6167  0.1935  0.1688
 2119W        W18303  18.030  12.064  14.066 -0.3403 -0.0253  0.0426
 2120W        W18304   5.358  15.584  11.542  0.1297 -0.2691  0.1119
 2121W        W18305   0.463   5.488   1.697 -0.0665 -0.2468 -0.1684
 2122W        W18306  12.357   5.096  14.970 -0.1341 -0.2251 -0.0291
 2123W        W18307  16.779  13.828  11.908 -0.2688  0.0533  0.1734
 2124W        W18308   6.882  11.312   4.612 -0.5927  0.1369  0.0353
 2125W        W18309   7.194  11.913  12.273  0.5190  0.3679 -0.0973
 2126W        W18310   0.735   9.215  12.474  0.0620 -0.2432  0.1716
 2127W        W18311  10.773   4.949   1.840  0.1517  0.1058 -0.0930
 2128W        W18312  10.967  12.182  11.208  0.0318 -0.1319 -0.2284
 2129W        W18313   3.433  18.154  10.956 -0.0759 -0.4713  0.1047
 2130W        W18314  15.448   1.001  10.522 -0.3953 -0.1081  0.1027
 2131W        W18315  17.942   5.821  14.053 -0.2065 -0.0477  0.0351
 2132W        W18316  13.345   9.570  15.161  0.0047 -0.0697 -0.2857
 2133W        W18317  16.032  15.177   4.525  0.0074 -0.1692  0.2360
 2134W        W18318   4.339  16.956   2.025  0.2324  0.0507 -0.3930
 2135W        W18319   7.445   9.703  13.304  0.2361 -0.3110  0.1101
 2136W        W18320  16.907   9.707  13.419  0.0017 -0.1671 -0.0661
 2137W        W18321   5.447   5.673  12.761 -0.0614  0.3062  0.2108
 2138W        W18322   4.877   9.853   1.065  0.0629 -0.1501 -0.0684
 2139W        W18323   5.344  11.245   3.554 -0.0035 -0.3277 -0.1107
 2140W        W18324   4.766  15.790   2.840 -0.5022  0.1913 -0.4493
 2141W        W18325  13.087   9.986   3.225  0.2072  0.2441  0.2311
 2142W        W18326  17.237  13.078  12.934  0.1081 -0.1163  0.0277
 2143W        W18327  10.142   1.290  13.381  0.3062 -0.1250  0.3904
 2144W        W18328  18.471   6.791   0.191 -0.0233 -0.1618  0.2797
 2145W        W18329   2.108  16.450   0.686 -0.3194  0.3534 -0.1048
 2146W        W18330   0.507   5.786  13.129  0.0763  0.0254 -0.0382
 2147W        W18331  13.603  10.821   2.380 -0.3282 -0.0570 -0.2424
 2148W        W18332   7.169   7.943  13.201  0.1810 -0.2127 -0.1025
 2149W        W18333  16.181   3.305   2.609 -0.1354 -0.2673 -0.2157
 2150W        W18334   2.827  18.208   4.008 -0.0062 -0.0600 -0.1018
 2151W        W18335   8.230   4.406   0.744  0.3862 -0.3174  0.1635
 2152W        W18336  18.973  17.890  12.251 -0.0723 -0.1179  0.0532
 2153W        W18337   9.725  11.783   1.092 -0.0832  0.0253 -0.0909
 2154W        W18338   9.837  13.532  14.785  0.2299 -0.0842 -0.2449
 2155W        W18339  11.101   8.986   5.545  0.4318  0.1078 -0.0219
 2156W        W18340  12.989   5.527   3.622  0.1749 -0.1029 -0.1490
 2157W        W18341   9.562   0.360   2.298 -0.0652 -0.0462 -0.1716
 2158W        W18342   0.662  12.448   2.375 -0.2263  0.0579 -0.3289
 2159W        W18343   3.458   8.089   3.487  0.0185  0.2982 -0.2532
 2160W        W18344   0.490  13.296  12.186  0.0566 -0.3518 -0.0704
 2161W        W18345  11.411  18.689  14.385  0.1624  0.2668  0.1985
 2162W        W18346   1.116   6.148   2.813  0.4605  0.0522 -0.2682
 2163W        W18347   5.771   8.289   4.263  0.0718 -0.2651  0.1415
 2164W        W18348  13.606  11.653  11.338 -0.1296  0.1260 -0.0226
 2165W        W18349   5.125  10.268  11.466  0.0476  0.2275 -0.0917
 2166W        W18350   4.151   3.872   0.904 -0.0278 -0.0975  0.1152
 2167W        W18351   4.870  12.178   3.466  0.0351  0.1956  0.0256
 2168W        W18352  12.411   8.916  13.738  0.1287  0.4072 -0.0576
 2169W        W18353   5.288  11.238  13.970  0.0294 -0.2085 -0.0582
 2170W        W18354   3.166   2.193  11.165  0.0012 -0.2800 -0.1034
 2171W        W18355  15.892  14.992   2.646 -0.0644 -0.0598  0.1124
 2172W        W18356   2.725  12.111   2.567  0.2106 -0.1171 -0.3283
 2173W        W18357   2.978  13.550   2.052 -0.2193  0.3861  0.0363
 2174W        W18358   2.430  18.984   4.466 -0.1027 -0.2518 -0.1100
 2175W        W18359  16.177   0.930   2.235  0.0337 -0.0096  0.3009
 2176W        W18360   9.068   5.246  15.261 -0.1254 -0.0246 -0.3535
 2177W        W18361   9.249  10.299   2.687 -0.4223  0.0465 -0.2695
 2178W        W18362  17.654  13.601   2.533  0.1030 -0.5361 -0.1997
 2179W        W18363  18.313   1.028  14.796 -0.6250 -0.1204  0.0136
 2180W        W18364   8.443   8.048   0.512  0.2170  0.1323  0.0343
 2181W        W18365   0.005  16.094   3.344  0.0095 -0.1817 -0.0296
 2182W        W18366   9.134  18.128   3.946 -0.3395 -0.5851 -0.1334
 2183W        W18367  15.034  11.126  14.862 -0.0167 -0.0925 -0.0568
 2184W        W18368   0.554   8.924   4.544 -0.1372 -0.2412 -0.4139
 2185W        W18369   0.948   1.126  11.529 -0.1422  0.0082 -0.2750
 2186W        W18370   3.645   8.295   0.831 -0.1633 -0.0620 -0.0328
 2187W        W18371   0.751   0.706   5.361  0.0317 -0.1529 -0.1400
 2188W        W18372  16.617   3.817   0.298 -0.1993  0.5026 -0.0298
 2189W        W18373  12.309  11.480  12.642 -0.1898 -0.0163 -0.0725
 2190W        W18374  11.731  11.118  15.097 -0.1152  0.0967  0.0816
 2191W        W18375   1.066   5.605   4.353  0.2203 -0.0149  0.1427
 2192W        W18376  14.234   8.217   3.366  0.0646 -0.1644  0.0340
 2193W        W18377   3.812  12.027  13.446 -0.2030 -0.0696  0.0723
 2194W        W18378   0.187  12.653   1.176  0.0055  0.2510 -0.1483
 2195W        W18379   6.630   7.571   1.033 -0.3273  0.0148  0.0791
 2196W        W18380  13.495   2.188  11.244 -0.1276  0.1588 -0.4206
 2197W        W18381  13.845  15.194  15.063 -0.1173  0.1215 -0.2393
 2198W        W18382  13.825   7.039   2.033 -0.1471  0.2660 -0.4589
 2199W        W18383   9.872   8.625  13.589  0.1412  0.1142  0.1849
 2200W        W18384   5.779   2.334   3.039 -0.0400 -0.1470 -0.1889
 2201W        W18385   5.795   3.596   4.465  0.0450 -0.0314 -0.0745
 2202W        W18386   2.418   2.937  14.880  0.1226  0.0363 -0.1344
 2203W        W18387   4.569  10.498  13.484  0.0456  0.0771  0.1045
 2204W        W18388  16.004   6.376  13.697  0.1534 -0.3693 -0.0426
 2205W        W18389  12.900   1.515   0.573  0.0709  0.2902  0.0361
 2206W        W18390   8.052   8.523  10.000 -0.0635 -0.2692 -0.1259
 2207W        W18391   6.767   6.036  14.335 -0.2315 -0.0512 -0.1467
 2208W        W18392  15.256  10.386  11.050 -0.3965 -0.0990 -0.0581
 2209W        W18393   3.892  14.524  12.664 -0.1787 -0.1965  0.0879
 2210W        W18394  17.090   8.178   1.128  0.0251  0.3034 -0.0834
 2211W        W18395  18.449  15.003   2.767 -0.0569 -0.1268  0.0234
 2212W        W18396  11.959   2.736  12.646 -0.4514  0.0904  0.3457
 2213W        W18397   5.302  18.900   0.110  0.1924  0.1845  0.1785
 2214W        W18398   1.371  16.083   9.941 -0.0985  0.2280  0.1064
 2215W        W18399   2.231   3.991   0.403  0.2274 -0.1823  0.1142
 2216W        W18400  15.485  10.406  14.087 -0.1797 -0.0044  0.3183
 2217W        W18401   2.229  12.676   5.537  0.1732 -0.1435 -0.1460
 2218W        W18402   0.324   2.958   1.752 -0.1784 -0.2356  0.0507
 2219W        W18403   1.630  10.844  12.006  0.1663  0.1086 -0.0435
 2220W        W18404  18.041   9.471   1.137 -0.0248  0.2063  0.0464
 2221W        W18405   3.539  16.710   4.582  0.2136  0.2820  0.0545
 2222W        W18406   8.579  14.433   2.542 -0.3980 -0.0120 -0.0952
 2223W        W18407   9.174   9.627  13.210  0.1940  0.0911  0.1014
 2224W        W18408   9.990   9.106  10.924 -0.2291 -0.0702 -0.0553
 2225W        W18409  18.569  11.817   3.567  0.0418  0.1020 -0.0987
 2226W        W18410   1.153   2.361  13.062  0.1580 -0.1338 -0.0334
 2227W        W18411  15.634   4.441   4.070  0.0331 -0.1317 -0.1170
 2228W        W18412  17.740   1.758   0.973 -0.0318  0.3262  0.3899
 2229W        W18413   0.099  17.054  12.349 -0.1949 -0.3966 -0.1218
 2230W        W18414   2.423   4.870   3.203  0.2080 -0.1617 -0.1408
 2231W        W18415   6.345   6.741   4.707 -0.1820  0.1663  0.1312
 2232W        W18416   2.691  15.150  12.669 -0.2286 -0.0729 -0.1600
 2233W        W18417   5.159  12.062  15.107 -0.1293  0.3191  0.3965
 2234W        W18418   0.534  10.758  13.181 -0.0264 -0.1869 -0.5825
 2235W        W18419   5.201   4.860  12.544 -0.2347 -0.2018 -0.3464
 2236W        W18420   7.836   5.727   3.320 -0.0227  0.1243 -0.0519
 2237W        W18421  14.263  18.125   1.072  0.3177  0.4052  0.3099
 2238W        W18422   2.584   9.932   3.015 -0.1606  0.2251  0.2225
 2239W        W18423   2.558   6.443  15.135 -0.1775  0.0182  0.0953
 2240W        W18424   6.528  12.427   0.831  0.0041 -0.0795  0.0929
 2241W        W18425  11.555   9.071  12.726 -0.2078 -0.1304 -0.2751
 2242W        W18426  10.985   7.547  14.056 -0.0498  0.0855  0.1069
 2243W        W18427  11.024   3.616   0.268  0.2771 -0.1233 -0.0486
 2244W        W18428  16.465  14.856  11.343  0.1151  0.0785  0.1136
 2245W        W18429  14.757   7.420   3.429 -0.1151 -0.1269 -0.0795
 2246W        W18430   8.625  11.606   2.153  0.2954 -0.1604  0.1213
 2247W        W18431  16.249  17.267  15.107  0.3002  0.1394 -0.0803
 2248W        W18432  10.922   9.003   0.622  0.3990  0.0615  0.1106
 2249W        W18433   3.851  11.887   4.928 -0.0049 -0.1592 -0.1118
 2250W        W18434   0.765  10.018  14.671  0.0527 -0.1338  0.4725
 2251W        W18435  12.582  12.630  12.675  0.0505 -0.1134  0.1720
 2252W        W18436   9.307  11.529   1.623 -0.0017 -0.1582  0.0616
 2253W        W18437  11.992  15.863  13.356  0.0026  0.0534  0.2587
 2254W        W18438  13.965  14.401   1.562  0.2324  0.3310 -0.0578
 2255W        W18439   6.072  17.398   3.735  0.0450  0.2973 -0.0190
 2256W        W18440  13.052   5.591  13.821 -0.0384  0.1855  0.0411
 2257W        W18441  15.408   9.699  11.620 -0.0042 -0.2176 -0.2364
 2258W        W18442   9.594   4.047   3.716 -0.1139  0.0825 -0.0363
 2259W        W18443  12.953  10.950  11.278  0.0971 -0.1296 -0.2213
 2260W        W18444   4.229   0.664   2.354  0.2024  0.1429  0.0924
 2261W        W18445  12.779   5.822  12.175  0.0189 -0.0258  0.1949
 2262W        W18446  10.766   1.312   4.806 -0.1618 -0.0415  0.2103
 2263W        W18447  13.983  13.814  12.321  0.1656 -0.0103  0.0802
 2264W        W18448  13.895  10.276   1.090  0.2630  0.1431  0.3103
 2265W        W18449  18.406  17.689  13.701 -0.2049  0.1581  0.0741
 2266W        W18450  16.949  15.682  12.895  0.3307  0.2062  0.0551
 2267W        W18451   7.144  14.444  11.609  0.3341  0.1604 -0.0475
 2268W        W18452  11.924  17.498  15.001 -0.0536  0.2440  0.2662
 2269W        W18453  13.429   7.741  14.603 -0.2891 -0.2535 -0.0220
 2270W        W18454   5.684  10.950   4.155 -0.2745  0.1505 -0.0361
 2271W        W18455  13.446   8.868   3.610  0.1963  0.0174  0.0607
 2272W        W18456   3.219  12.810  11.991  0.0591 -0.0504 -0.1107
 2273W        W18457  15.774   9.321  10.202  0.0191  0.1115  0.1882
 2274W        W18458  14.945   4.246  13.926 -0.1282  0.1833  0.0427
 2275W        W18459  13.837  12.288   3.598 -0.0606  0.1278 -0.2322
 2276W        W18460   6.065   1.266  14.712 -0.3030 -0.0937  0.1485
 2277W        W18461  11.179   0.853  10.901 -0.0667 -0.1060  0.1830
 2278W        W18462   8.132  16.384  10.806 -0.0002  0.2029 -0.1600
 2279W        W18463   8.370   1.418  14.923  0.3460 -0.4117 -0.1512
 2280W        W18464  11.926  11.098   3.948  0.3823  0.1776 -0.1153
 2281W        W18465  11.179   9.918  12.596 -0.0703  0.0002  0.0564
 2282W        W18466   3.811   7.362  13.792 -0.0918 -0.1755  0.4587
 2283W        W18467   3.017   0.384   0.463 -0.1495  0.0377  0.1067
 2284W        W18468  15.039  18.205  14.295 -0.1867  0.2088 -0.4411
 2285W        W18469  16.692  12.028  11.998  0.5224  0.1362 -0.2808
 2286W        W18470  13.847   8.923  14.951 -0.1992  0.0869 -0.0224
 2287W        W18471  11.338  18.706   0.714  0.1746 -0.0156 -0.3865
 2288W        W18472   8.005  10.674   0.615  0.0420  0.4851  0.2743
 2289W        W18473   7.045  18.879  14.516  0.2244  0.3486  0.1765
 2290W        W18474  18.075   3.382   1.478 -0.2228  0.0779 -0.0459
 2291W        W18475  18.694   6.378   1.212 -0.0163  0.3067  0.1032
 2292W        W18476   7.435  11.332   1.920 -0.1413 -0.0673  0.0051
 2293W        W18477  18.793  13.262   1.817  0.1298  0.0168  0.4249
 2294W        W18478  18.108   8.334   1.032 -0.1603 -0.0114  0.2093
 2295W        W18479   9.053   5.773  13.673  0.4246 -0.0555 -0.2011
 2296W        W18480   9.816  11.527   1.999  0.2322  0.1413  0.0514
 2297W        W18481   4.679  10.495   2.053 -0.1188 -0.1062 -0.0388
 2298W        W18482   4.253  16.132  14.580 -0.0180 -0.2297  0.3679
 2299W        W18483  17.750  17.145   1.647  0.2239  0.7079  0.0930
 2300W        W18484   3.422  14.803   2.238  0.0852  0.1762 -0.2615
 2301W        W18485   4.973   9.721   0.417  0.2666 -0.0852 -0.1034
 2302W        W18486  16.624  10.161  11.830  0.2134 -0.4565  0.1572
 2303W        W18487  12.767   0.909   3.685  0.2356 -0.0105 -0.0389
 2304W        W18488   9.596   9.354  14.701  0.2472  0.0878  0.1788
 2305W        W18489  14.482   8.321   0.542 -0.2286 -0.0860 -0.0411
 2306W        W18490   5.846   0.119   1.996  0.0258  0.1861  0.0553
 2307W        W18491  18.652  15.616  11.078 -0.2828  0.1125 -0.1660
 2308W        W18492   1.490  18.185   3.786  0.4808  0.3541  0.0733
 2309W        W18493  13.426   1.834   0.524 -0.1453 -0.0017 -0.0424
 2310W        W18494  15.503  11.990  14.846 -0.0782 -0.1763  0.3101
 2311W        W18495   4.442   5.959  11.893 -0.0416 -0.1100 -0.1660
 2312W        W18496  15.312  17.879   1.231 -0.0101 -0.0017 -0.1451
 2313W        W18497   3.316  10.933  13.131 -0.5444  0.0249 -0.0992
 2314W        W18498  16.124  12.285  12.031 -0.0868 -0.3651  0.3105
 2315W        W18499  16.497   3.381  11.297 -0.0750 -0.2362  0.1612
 2316W        W18500  17.065   1.439   3.918 -0.5499 -0.1572 -0.1063
 2317W        W18501   4.089  12.349   3.112  0.0350 -0.1909  0.2248
 2318W        W18502   0.029   5.854  14.975 -0.0210 -0.0002  0.1533
 2319W        W18503   2.285   4.737   1.236  0.1069  0.0568  0.0011
 2320W        W18504  14.457   4.479  14.745 -0.0069 -0.1031  0.2910
 2321W        W18505  16.263  16.717  14.660  0.0550  0.0731 -0.0364
 2322W        W18506  10.394   3.603   1.919 -0.3592  0.1065 -0.2378
 2323W        W18507   4.755   0.721   0.694  0.3034 -0.1185  0.0167
 2324W        W18508  15.045   3.338  11.498 -0.3186  0.3158  0.2670
 2325W        W18509  16.439   5.340   0.845  0.0202 -0.0294  0.2410
 2326W        W18510  17.154  17.347   1.077  0.0899  0.1059  0.2014
 2327W        W18511  15.003   1.699  11.029 -0.2954  0.0197 -0.0432
 2328W        W18512   8.552  17.966   0.683 -0.0777  0.0500  0.1398
 2329W        W18513  16.007   8.228  10.193  0.1396 -0.3036  0.1156
 2330W        W18514   9.614  18.205   1.641  0.1376 -0.2052 -0.0878
 2331W        W18515  15.386   9.113  10.414  0.4001  0.2664 -0.0904
 2332W        W18516  18.969   4.384  11.518  0.0280  0.0980  0.2197
 2333W        W18517   6.822   0.701   0.134  0.0824 -0.5863 -0.2085
 2334W        W18518   4.973  11.414   5.375  0.0535  0.3680  0.2383
 2335W        W18519  16.596   8.112  11.017  0.0060 -0.0586  0.4552
 2336W        W18520  14.513   4.549   2.752 -0.1106  0.0719 -0.4133
 2337W        W18521   8.998  17.859  13.599  0.0188  0.1732  0.4264
 2338W        W18522  14.343   9.778  15.337 -0.0284  0.2691 -0.0563
 2339W        W18523   6.179  18.867  13.894 -0.0439  0.1398  0.1443
 2340W        W18524   4.954  10.831  14.135 -0.1603 -0.0103  0.3077
 2341W        W18525   3.986  15.300   4.689  0.0998 -0.1637  0.0888
 2342W        W18526  17.440   9.229   4.482  0.0107 -0.1414  0.0942
 2343W        W18527   8.320  14.690   3.434 -0.0384 -0.3663 -0.3644
 2344W        W18528  17.879   3.635   3.728  0.0430 -0.0597 -0.0259
 2345W        W18529  17.040  13.691   1.120 -0.0249  0.1882 -0.0636
 2346W        W18530   2.464   9.166  12.947 -0.0059 -0.0354 -0.0517
 2347W        W18531   5.366   6.364   1.294 -0.3015  0.0492 -0.1721
 2348W        W18532  10.334   5.159  12.031 -0.1157 -0.0804 -0.2142
 2349W        W18533  13.340   2.969  13.074 -0.2496 -0.2609  0.0484
 2350W        W18534   1.910   2.139  15.313  0.1523 -0.1843 -0.2179
 2351W        W18535  14.297   6.336  14.200  0.0714  0.0603 -0.1791
 2352W        W18536   5.064  16.794   4.680  0.1710 -0.1466  0.3093
 2353W        W18537  15.861   3.900  15.026  0.0368  0.2265 -0.2658
 2354W        W18538   4.173   1.049  11.270 -0.2173 -0.2712 -0.1290
 2355W        W18539   9.045   5.866  11.864 -0.1958  0.1104  0.2324
 2356W        W18540  14.691   4.764  10.756 -0.2922 -0.0119  0.0951
 2357W        W18541   1.162   0.059   0.775  0.0045 -0.2195 -0.0798
 2358W        W18542   4.590  10.294   0.538 -0.1323  0.0674  0.1063
 2359W        W18543  15.876   2.888   4.721  0.2329  0.0569 -0.0226
 2360W        W18544   3.180   9.451  14.183  0.0583  0.0344 -0.0683
 2361W        W18545  18.967  15.624  14.297 -0.1345  0.1183  0.0090
 2362W        W18546  17.973  11.852  14.846 -0.2997 -0.0953 -0.0358
 2363W        W18547   8.835  18.475   3.078  0.2522 -0.0213  0.2904
 2364W        W18548   0.303   9.454   9.313 -0.2858 -0.3681  0.1785
 2365W        W18549  14.947  16.148   5.703  0.2494 -0.1116  0.1970
 2366W        W18550   8.661  11.629   4.773 -0.2257 -0.1302 -0.1710
 2367W        W18551  11.450   3.635  12.224 -0.2806 -0.0502  0.0380
 2368W        W18552   9.995   6.081   0.906  0.2710 -0.1665 -0.3238
 2369W        W18553  12.446  17.540  14.613  0.0919  0.0275  0.0596
 2370W        W18554   6.065  11.285   4.317  0.1487  0.3431  0.1201
 2371W        W18555  17.299   7.924   4.655  0.0702  0.2172  0.0136
 2372W        W18556   6.563   7.534   1.543 -0.2195 -0.0808  0.1668
 2373W        W18557  12.670  17.346  11.879  0.1369 -0.1192 -0.3562
 2374W        W18558   2.982  11.901  14.596 -0.0492  0.1127 -0.0189
 2375W        W18559   2.895   3.601  14.570 -0.0380 -0.0023  0.0091
 2376W        W18560   7.442  10.090  11.484  0.0156 -0.0230 -0.1182
 2377W        W18561   1.450  13.102  12.331 -0.0641  0.2220 -0.0685
 2378W        W18562   7.918  10.116  12.574 -0.0460  0.0566 -0.1847
 2379W        W18563   9.193   2.761  11.764  0.3282  0.1109  0.0248
 2380W        W18564  15.869   7.024  14.274 -0.2232  0.1162 -0.3037
 2381W        W18565   7.711  16.571   4.829  0.1353 -0.1423 -0.1538
 2382W        W18566  17.836   5.577   4.679  0.1699  0.0774 -0.0977
 2383W        W18567   8.860  18.583  14.247 -0.0933 -0.3029 -0.0781
 2384W        W18568   6.546  14.009   2.065  0.1281 -0.2176 -0.0146
 2385W        W18569   1.622   0.137   4.985 -0.0068 -0.1456 -0.1606
 2386W        W18570  10.246   9.976   1.785 -0.0534 -0.2296 -0.4049
 2387W        W18571   3.983  17.930   0.603 -0.0156 -0.0966 -0.0862
 2388W        W18572  15.748   7.537  13.048 -0.2050 -0.0833  0.2593
 2389W        W18573  13.806   6.423   3.976  0.0985  0.0117 -0.0231
 2390W        W18574  14.042  10.263   1.558 -0.4009  0.2082 -0.1382
 2391W        W18575   7.205   5.889   3.749  0.0837 -0.2024  0.1013
 2392W        W18576   5.757  14.952  13.772 -0.0505  0.0876  0.0464
 2393W        W18577  15.419   0.396   4.011 -0.5202 -0.2348 -0.0955
 2394W        W18578   5.914  13.355  13.824 -0.1867  0.0116 -0.2582
 2395W        W18579  16.927   9.103   3.415  0.0310  0.3315  0.1486
 2396W        W18580  16.268   7.932   4.799 -0.1840 -0.0945 -0.1851
 2397W        W18581  18.315  16.932   2.603 -0.3671  0.3178  0.1604
 2398W        W18582   6.892  14.646   3.647  0.0828  0.1204 -0.2010
 2399W        W18583   9.645  16.453   0.192  0.2364  0.4186  0.0621
 2400W        W18584   9.445   8.359   5.752 -0.1273  0.0484  0.3645
 2401W        W18585  11.038   4.227   2.861 -0.0397 -0.1112  0.2386
 2402W        W18586  18.477  15.523   0.565 -0.1168 -0.1020  0.0483
 2403W        W18587  15.186  13.643  11.681  0.0580  0.2035 -0.1042
 2404W        W18588  15.216  15.131   2.834 -0.2117  0.3688 -0.3700
 2405W        W18589  15.508  11.570   4.838 -0.2811  0.1932  0.1575
 2406W        W18590   1.987  15.240  14.988 -0.4071  0.3395  0.1279
 2407W        W18591  18.174   3.138   3.779  0.0028 -0.4054  0.0245
 2408W        W18592   2.785  17.501  11.762 -0.0895  0.0949  0.1558
 2409W        W18593   7.099   3.196  13.515  0.1463 -0.1420 -0.1199
 2410W        W18594   2.514   1.629   0.429  0.2068  0.0792 -0.1107
 2411W        W18595  11.167  18.202  11.325  0.1033  0.0953 -0.1384
 2412W        W18596   2.516  18.806   1.868 -0.0065  0.0551 -0.1497
 2413W        W18597   7.939  18.290  15.234  0.0873  0.3093 -0.0583
 2414W        W18598   9.911  16.527  12.308 -0.0773 -0.0063  0.1078
 2415W        W18599   1.846  11.883   1.526 -0.0984 -0.0443  0.0312
 2416W        W18600  14.729   1.566  14.343 -0.4060  0.1849 -0.1526
 2417W        W18601  16.265  13.228   4.422  0.0105  0.1284  0.1985
 2418W        W18602  17.772  17.249   4.818  0.2281  0.0668  0.1617
 2419W        W18603   1.034   2.444  14.302 -0.0540  0.0415  0.1761
 2420W        W18604  14.890  16.226  11.685  0.3050 -0.0781  0.3761
 2421W        W18605  17.432   6.691  15.007 -0.2170 -0.1195 -0.3624
 2422W        W18606  13.216  13.251   1.387  0.2073  0.0699  0.0330
 2423W        W18607   1.378  11.594   4.865 -0.0113 -0.3013 -0.2352
 2424W        W18608  14.054  17.628   4.561 -0.1518 -0.1276  0.0879
 2425W        W18609  17.334  16.887  12.063 -0.0760  0.0498 -0.3753
 2426W        W18610   1.343   5.793  10.644 -0.0184  0.0209  0.2484
 2427W        W18611   2.866   7.805  11.106 -0.1620  0.3391  0.0474
 2428W        W18612  18.641   1.914   4.500  0.0755  0.0252 -0.0369
 2429W        W18613   5.857  11.696   1.070  0.0552  0.4210  0.1257
 2430W        W18614  18.680   8.142  10.791 -0.2417  0.0255 -0.1858
 2431W        W18615  15.006   9.465  10.506  0.1884 -0.1175  0.2669
 2432W        W18616   9.121   8.356   0.887  0.1758  0.1106  0.2489
 2433W        W18617   3.438  18.071   0.592 -0.1129  0.1337  0.2477
 2434W        W18618  13.790   9.759   1.852  0.5424 -0.2155 -0.1372
 2435W        W18619  14.644   6.882  10.896 -0.0287  0.0675  0.2786
 2436W        W18620  15.461   6.637  13.596  0.3141  0.1766  0.1220
 2437W        W18621  11.802  11.350  11.850  0.0086  0.0559 -0.1237
 2438W        W18622  12.487  11.998   0.537  0.0563  0.1211  0.0086
 2439W        W18623   0.205  11.541  11.023 -0.1942 -0.3573 -0.4036
 2440W        W18624   9.885  12.276  13.812 -0.0188  0.2110  0.0864
 2441W        W18625   9.077   5.544  11.409 -0.1803 -0.0805  0.0071
 2442W        W18626   5.558  17.553   2.135 -0.0704 -0.0046 -0.0770
 2443W        W18627   1.154   8.089  12.082  0.1137  0.0994  0.1853
 2444W        W18628  14.342  11.542  13.106 -0.0474 -0.2296  0.0269
 2445W        W18629   9.936   0.728   2.754  0.1375 -0.0860  0.0362
 2446W        W18630   1.492  18.802  13.076  0.1726 -0.0007 -0.3033
 2447W        W18631  18.164  13.969  13.849 -0.2067  0.0278 -0.1880
 2448W        W18632   5.768   8.430  15.350 -0.0499  0.1823 -0.0420
 2449W        W18633  18.995  17.513  14.718  0.0643 -0.0380  0.0368
 2450W        W18634   2.499  17.490  12.278  0.1146 -0.2610 -0.0569
 2451W        W18635  16.426   0.518  12.394  0.2288 -0.0689 -0.0916
 2452W        W18636   8.222   1.112   0.834  0.2560 -0.3272  0.1308
 2453W        W18637   0.454  12.548  11.634  0.0050  0.1443  0.0960
 2454W        W18638   4.674  16.725  12.497 -0.0916  0.0137  0.0057
 2455W        W18639  10.171   5.328  14.258 -0.1021 -0.0160 -0.1079
 2456W        W18640   7.929   9.387   5.197  0.4183  0.1638 -0.1945
 2457W        W18641  11.190  18.235   0.509  0.2574  0.1986 -0.1876
 2458W        W18642   6.930   2.469  14.519 -0.1672  0.0573  0.0534
 2459W        W18643  14.087  16.093   5.558  0.0919  0.0309 -0.3307
 2460W        W18644   9.691   3.611   0.972  0.4409  0.4405 -0.1232
 2461W        W18645  16.623   5.344   1.393 -0.0745  0.2422 -0.4028
 2462W        W18646  18.173   7.602   4.431  0.3704  0.2393  0.0143
 2463W        W18647   9.111   2.130   5.684 -0.1835  0.1252 -0.2474
 2464W        W18648  15.944   3.606   3.573  0.1533 -0.1248  0.1555
 2465W        W18649  11.956  15.813  10.968 -0.1614 -0.5976 -0.3009
 2466W        W18650  14.140   4.574   1.284  0.2274 -0.2942 -0.1378
 2467W        W18651  15.161  17.390   2.112 -0.0111 -0.1371 -0.0300
 2468W        W18652   0.236   0.691   1.707  0.1395 -0.0593 -0.2596
 2469W        W18653   2.566  13.701  11.900 -0.0599 -0.2244  0.1418
 2470W        W18654   2.007   6.241  13.863 -0.1234 -0.2386 -0.0663
 2471W        W18655   8.002  11.653   2.360  0.0648 -0.0532 -0.1228
 2472W        W18656   5.093   5.592   4.818  0.2074 -0.2115 -0.1064
 2473W        W18657   6.817  16.641   4.456 -0.0479 -0.2145  0.2415
 2474W        W18658   2.647  14.988   3.346  0.1904  0.1017  0.3149
 2475W        W18659  17.978   3.830  13.580 -0.1114 -0.1841 -0.1666
 2476W        W18660  13.137   1.984   2.913  0.2414  0.1649  0.0756
 2477W        W18661   7.923   7.922  10.671 -0.0151  0.0192  0.0067
 2478W        W18662   7.223  13.753   4.641 -0.2530  0.1898  0.0396
 2479W        W18663   1.331   7.544   0.123  0.0621  0.2339 -0.2957
 2480W        W18664   0.993  12.475   0.104 -0.0052  0.0726 -0.3700
 2481W        W18665  17.964  14.808  11.854  0.0606 -0.0476  0.2331
 2482W        W18666  13.130  14.059  10.708 -0.4172 -0.0640  0.2652
 2483W        W18667   6.032   6.670   4.269 -0.1732 -0.2835  0.3019
 2484W        W18668  15.700  11.608  12.623  0.0894  0.0985  0.0557
 2485W        W18669  10.575   0.630  10.369 -0.0276  0.1502 -0.0529
 2486W        W18670   9.338   1.463  11.895  0.2650  0.3601 -0.2058
 2487W        W18671  15.224   2.902  12.711 -0.1656  0.2392 -0.3008
 2488W        W18672  17.829  12.902  12.053 -0.1175 -0.2135 -0.1047
 2489W        W18673  16.249   4.072   5.293 -0.1380  0.2363 -0.2504
 2490W        W18674  12.106  13.040  11.203  0.1454  0.1605  0.1000
 2491W        W18675  13.790   2.164   1.225 -0.2300 -0.0434 -0.1613
 2492W        W18676   5.899  14.723   2.309 -0.0309  0.1538 -0.0184
 2493W        W18677   7.690   9.532  15.067  0.1241 -0.0134  0.1171
 2494W        W18678  13.874   0.380   1.422  0.1656 -0.2083 -0.2458
 2495W        W18679  16.915  17.751  12.981  0.2877 -0.0823  0.0866
 2496W        W18680  17.694  18.074   2.723  0.0946 -0.1733  0.0061
 2497W        W18681  14.953  11.948  13.058 -0.3312 -0.0747  0.1997
 2498W        W18682   3.539   2.662   3.329  0.1489 -0.5714  0.0132
 2499W        W18683  10.503   7.634  11.263 -0.0482 -0.0771  0.0281
 2500W        W18684  16.206  14.834  12.257  0.1080 -0.0665  0.2032
 2501W        W18685  13.327  11.807  10.826 -0.0163 -0.1739 -0.0918
 2502W        W18686  11.203  14.998   5.062 -0.3775  0.3699 -0.3062
 2503W        W18687  10.287  16.552   4.832 -0.1742  0.2945 -0.1708
 2504W        W18688   9.287   5.705  13.130 -0.0353 -0.0078  0.0742
 2505W        W18689   4.903   1.995   0.330  0.1378  0.2273 -0.0266
 2506W        W18690   5.252   5.358   3.426 -0.0228 -0.0770 -0.0970
 2507W        W18691  12.033   5.984   3.741  0.0605  0.3697 -0.0335
 2508W        W18692   6.800   5.277  13.373  0.0572 -0.1089  0.3485
 2509W        W18693  14.244   4.816  11.583  0.1607 -0.2878 -0.0315
 2510W        W18694   0.435   0.071  11.817  0.1272  0.0990 -0.0225
 2511W        W18695   7.942  13.206  14.847 -0.0466 -0.0187 -0.1135
 2512W        W18696   4.377  15.414  14.013  0.0978  0.1293  0.1641
 2513W        W18697  11.413   8.767   0.549  0.0316 -0.2006  0.0153
 2514W        W18698  14.793   9.618  15.384 -0.2490  0.2159 -0.0243
 2515W        W18699  12.159  14.032  13.136  0.3854 -0.1299 -0.0756
 2516W        W18700   4.667   5.766  13.409  0.1784 -0.0447  0.1173
 2517W        W18701   0.455   3.103  11.172  0.0806 -0.2463  0.0611
 2518W        W18702  18.500   4.950   4.247 -0.0317  0.0808 -0.4440
 2519W        W18703   5.881   2.995   5.232 -0.2443 -0.1768  0.2884
 2520W        W18704   9.132  16.413  13.021  0.4228  0.2020 -0.3315
 2521W        W18705   1.381  16.186   4.347 -0.1282 -0.2775  0.3886
 2522W        W18706  14.096  16.847  14.228 -0.2222  0.3617  0.2575
 2523W        W18707  13.382   8.920  15.200  0.1876 -0.1128  0.1325
 2524W        W18708   9.822  18.366   4.843  0.1557 -0.0027 -0.3260
 2525W        W18709   6.802   4.313   5.162 -0.1448  0.1762  0.2550
 2526W        W18710  10.203   5.124   3.960  0.0695 -0.2508 -0.1609
 2527W        W18711  16.564   1.270  14.700 -0.2273 -0.0408 -0.2028
 2528W        W18712   6.481   8.940   4.147 -0.0491  0.0134  0.2024
 2529W        W18713   4.473  17.614   4.689 -0.0607 -0.3325  0.1643
 2530W        W18714  11.582   2.231   2.481 -0.0309  0.0217 -0.2146
 2531W        W18715   8.211  16.565  14.228  0.0728 -0.0501 -0.1345
 2532W        W18716   1.376  18.010   5.754 -0.3284 -0.3064  0.3647
 2533W        W18717   2.138   7.987   4.778  0.1886 -0.1135 -0.0914
 2534W        W18718  14.196  15.284   5.227  0.1641  0.5779 -0.1504
 2535W        W18719   7.932   7.904   2.787 -0.3505  0.0882 -0.2122
 2536W        W18720   3.313  14.292   3.442  0.2020 -0.2504  0.1188
 2537W        W18721  15.500   3.152   0.472 -0.1807  0.0733  0.1959
 2538W        W18722   0.262  18.575   0.294  0.1900  0.3020  0.0137
 2539W        W18723   5.629  17.424  10.765 -0.1041 -0.0850 -0.0434
 2540W        W18724   7.584  15.977   1.524 -0.2065 -0.1604  0.3259
 2541W        W18725   5.485   4.014   5.279 -0.0302  0.2577  0.2712
 2542W        W18726  10.244   9.035   1.418  0.1318  0.2167 -0.2714
 2543W        W18727   1.004  14.968   5.239 -0.0489  0.0657 -0.0422
 2544W        W18728  18.851  17.684  10.970  0.0684 -0.2379  0.0171
 2545W        W18729   7.399  16.295   1.102 -0.1036 -0.0869 -0.0129
 2546W        W18730   7.320  18.104  13.254  0.0737 -0.0666 -0.0288
 2547W        W18731   9.661  10.009   2.770  0.0894 -0.0882  0.4336
 2548W        W18732  14.880  18.468   3.810  0.1937 -0.0852 -0.1192
 2549W        W18733   3.627  10.733   1.243 -0.0344 -0.1282  0.0005
 2550W        W18734   7.327   9.425   2.628  0.0292 -0.1516  0.1219
 2551W        W18735   9.680  18.597   0.116 -0.0922 -0.2644 -0.1584
 2552W        W18736  11.524   7.486   4.718 -0.3011  0.2406  0.0942
 2553W        W18737  10.924  16.062  12.426 -0.0569 -0.1133  0.0411
 2554W        W18738  15.908   8.432  11.817 -0.0590  0.0016 -0.1767
 2555W        W18739  16.770  16.831   4.906 -0.2705  0.4875 -0.0819
 2556W        W18740   9.863   3.618   5.239  0.1411 -0.3166  0.1907
 2557W        W18741   2.493  16.282   2.855  0.0925  0.0274 -0.1125
 2558W        W18742  15.239   9.642  13.478  0.1258  0.1992 -0.0468
 2559W        W18743  18.828   2.295   2.266  0.2187  0.0977  0.1695
 2560W        W18744  16.734  12.978   4.734 -0.0290 -0.2470 -0.0904
 2561W        W18745   0.353   3.597  11.482 -0.4948  0.2970 -0.0102
 2562W        W18746   6.657  10.418  12.052  0.4049  0.0201 -0.1272
 2563W        W18747  13.354   7.917  14.140  0.1086  0.0933 -0.1876
 2564W        W18748   1.189   7.166   1.856 -0.1714 -0.1014  0.1005
 2565W        W18749  11.972   3.982   4.632 -0.3199 -0.0600 -0.0752
 2566W        W18750  12.359  17.304   2.729 -0.0869  0.3359  0.1906
 2567W        W18751  18.659   0.104  11.870 -0.3667 -0.3757  0.0796
 2568W        W18752  13.484  16.261   0.885 -0.0856 -0.1190  0.0422
 2569W        W18753   0.159  17.266  15.219 -0.4366 -0.1563 -0.1234
 2570W        W18754   3.009   6.273  10.872 -0.2730 -0.0138 -0.1535
 2571W        W18755   8.908   5.807   4.720 -0.0230 -0.1347 -0.2178
 2572W        W18756  15.314   9.436  12.687  0.1111  0.0558  0.1344
 2573W        W18757  14.834   0.802  12.860 -0.1689  0.2902  0.0122
 2574W        W18758   1.407   0.177   1.277 -0.0273  0.2481  0.2659
 2575W        W18759   2.286  15.959  10.124  0.0183  0.2712  0.0411
 2576W        W18760  11.647  13.346   3.441 -0.1042 -0.2322 -0.0708
 2577W        W18761   7.834  17.507  11.714 -0.1481 -0.2976  0.0753
 2578W        W18762   7.440   1.154  15.161  0.0477 -0.1602  0.1065
 2579W        W18763   6.116   5.133   2.456  0.0318 -0.1911 -0.0640
 2580W        W18764   0.875   1.670   1.188  0.4846 -0.0590 -0.0942
 2581W        W18765  14.652   9.909   1.080  0.3420 -0.0050 -0.0520
 2582W        W18766   0.068  11.506   3.133 -0.3277 -0.1516  0.1810
 2583W        W18767  18.504  16.690   3.633  0.0651 -0.4258  0.0108
 2584W        W18768   4.231  13.187   3.710 -0.1245  0.1295  0.0839
 2585W        W18769  10.176   5.936   1.836  0.1184  0.1351  0.1501
 2586W        W18770   3.001   3.965   5.394 -0.1960 -0.2976 -0.0642
 2587W        W18771  11.765   3.870  11.617 -0.2177 -0.3464 -0.0257
 2588W        W18772  14.392   6.861   0.554  0.3490 -0.0724  0.0880
 2589W        W18773   7.445   9.294   5.044  0.2038 -0.2941 -0.3457
 2590W        W18774  13.990   4.336  10.180  0.2919 -0.0017  0.0179
 2591W        W18775  13.371  12.089  11.244  0.1486  0.1917  0.0572
 2592W        W18776  17.745   4.282   4.567  0.0807 -0.2734 -0.0971
 2593W        W18777   0.654  13.314   3.190  0.0425 -0.0375 -0.1904
 2594W        W18778   9.820   1.379  14.405  0.2217  0.0346  0.0886
 2595W        W18779  11.313   4.179   0.142  0.0930 -0.0760  0.1117
 2596W        W18780   4.133  14.697   1.313 -0.1687 -0.2745 -0.0806
 2597W        W18781  13.724   1.858  12.408 -0.1802 -0.3351 -0.1068
 2598W        W18782  16.948   4.496  13.635 -0.2055 -0.1007  0.1377
 2599W        W18783   5.706   2.982   3.132  0.2832  0.0014 -0.0953
 2600W        W18784  10.961  12.855   0.082  0.1134 -0.1834  0.0332
 2601W        W18785  16.631  14.100  14.460  0.2874  0.1662  0.0544
 2602W        W18786   5.412  10.779  10.552 -0.0860  0.1854 -0.0622
 2603W        W18787   3.761   4.124   1.472  0.2041 -0.0497  0.3831
 2604W        W18788  18.977   3.883  15.287  0.3525 -0.1682 -0.0340
 2605W        W18789  17.707   0.716  12.488 -0.3671 -0.0748  0.2536
 2606W        W18790  14.822   4.233   3.272 -0.0774  0.0791  0.0499
 2607W        W18791   6.406   6.444  11.294  0.0007 -0.0843 -0.1051
 2608W        W18792   7.751   2.275  14.349  0.0291  0.2198 -0.0498
 2609W        W18793  18.157  13.811   2.296  0.1440 -0.3185 -0.3609
 2610W        W18794  10.663   2.279   5.116 -0.2096  0.0725 -0.2845
 2611W        W18795   1.645   0.023  10.593 -0.1609 -0.3705 -0.0474
 2612W        W18796   3.430   0.632   2.503 -0.0532 -0.1087 -0.2144
 2613W        W18797   3.752  11.105  14.635 -0.1457  0.0221  0.1283
 2614W        W18798   5.700   1.044  14.949 -0.3602  0.2216  0.0402
 2615W        W18799  11.574   6.400   4.584 -0.2141  0.3530 -0.2946
 2616W        W18800  12.935   3.890  13.560  0.0929 -0.1838  0.0577
 2617W        W18801  13.988   2.377   1.854 -0.1187 -0.1003 -0.1834
 2618W        W18802   3.155   4.978   2.368  0.1048 -0.1523  0.0263
 2619W        W18803  16.854   8.159  14.287 -0.1662 -0.2184  0.1771
 2620W        W18804   8.683  12.111   4.430  0.2838  0.1714 -0.1877
 2621W        W18805   8.887  17.667   9.725 -0.1783  0.1186  0.3823
 2622W        W18806  15.363  11.234   1.310 -0.3179  0.1646  0.1562
 2623W        W18807  18.365  13.534  12.858 -0.1183  0.0289 -0.1208
 2624W        W18808  14.447  10.164   5.678 -0.1544 -0.1075  0.1189
 2625W        W18809   6.508  16.995   0.894 -0.3029 -0.0705  0.1192
 2626W        W18810  10.407   3.656   0.324 -0.1157  0.0878 -0.0203
 2627W        W18811  15.783  15.188   1.656 -0.4854 -0.1645 -0.5516
 2628W        W18812  17.474  17.010   2.168 -0.3240 -0.4284 -0.0199
 2629W        W18813  12.450  17.501  10.741 -0.3702  0.0432 -0.0667
 2630W        W18814   7.250   0.419  12.507  0.0344 -0.2546  0.0585
 2631W        W18815   3.129  13.814   2.564  0.2597  0.1748 -0.2548
 2632W        W18816   0.582  11.570   0.321 -0.1293  0.0569  0.0037
 2633W        W18817   2.495   0.120   0.907  0.2406 -0.1500 -0.3156
 2634W        W18818   9.343  10.403  11.985 -0.0171  0.0821  0.0055
 2635W        W18819   1.986   2.879   3.285  0.1736 -0.1354 -0.0536
 2636W        W18820   5.324  11.423   0.134 -0.0375 -0.0228 -0.2853
 2637W        W18821   0.722   6.410   0.052  0.0330  0.0347 -0.1279
 2638W        W18822   1.038   8.927  10.791  0.0668 -0.4373  0.2179
 2639W        W18823  18.354  16.871   4.511 -0.2261  0.2371  0.0931
 2640W        W18824  11.448   6.514  12.088  0.0685  0.2194  0.2817
 2641W        W18825  10.223  15.655   2.175  0.1713 -0.2391 -0.1203
 2642W        W18826   2.624  17.582   3.213 -0.4402  0.0525  0.3649
 2643W        W18827  16.783  10.253   1.548 -0.0173  0.0883 -0.1113
 2644W        W18828   7.573   2.657  15.119 -0.0222 -0.1167 -0.4087
 2645W        W18829   0.044  18.591   2.727  0.0400  0.3510 -0.0481
 2646W        W18830   4.047   7.337  14.752  0.1147 -0.0791 -0.0814
 2647W        W18831   4.410  10.712  11.413 -0.0162  0.2637 -0.1793
 2648W        W18832   1.371  14.475   5.743 -0.0554  0.3898  0.0144
 2649W        W18833  16.034   5.548   2.819 -0.1375  0.0224  0.1536
 2650W        W18834   1.324  15.838   4.723  0.0532  0.2288 -0.0405
 2651W        W18835  15.108  14.713   0.869  0.1075  0.0992  0.2052
 2652W        W18836   7.833   1.677   4.012  0.0565 -0.1482 -0.2282
 2653W        W18837  18.556   1.563   0.401 -0.0426  0.0030  0.1618
 2654W        W18838   2.010  11.500   0.489  0.1047  0.4614 -0.1201
 2655W        W18839  10.508  10.505  13.698 -0.0316 -0.0870 -0.0260
 2656W        W18840  16.015  18.343  11.253 -0.0535 -0.0506  0.0710
 2657W        W18841  11.220  13.206  15.186  0.2284  0.4155 -0.1632
 2658W        W18842  12.848   3.113   4.968  0.3134  0.1496  0.5982
 2659W        W18843  11.579  11.935  11.983 -0.3401 -0.3790  0.1964
 2660W        W18844   5.061   2.892   4.360 -0.0749  0.0465 -0.0218
 2661W        W18845   2.661   7.477  10.763 -0.1523  0.0400  0.0771
 2662W        W18846  15.925  12.796  14.560  0.1213  0.1237 -0.0493
 2663W        W18847   9.263   1.559  12.941  0.0160 -0.0715  0.0238
 2664W        W18848   3.315  11.410   0.743 -0.0029 -0.3235 -0.3867
 2665W        W18849   5.227   0.759   1.461  0.2207 -0.2594  0.1043
 2666W        W18850   5.748   4.686   3.654  0.3865  0.2901  0.1663
 2667W        W18851   4.479  15.590  13.246  0.2060  0.2255 -0.0612
 2668W        W18852   0.063   9.561  15.181  0.0811  0.1163 -0.0360
 2669W        W18853   2.019   5.221  11.144 -0.0363 -0.4198 -0.0521
 2670W        W18854   4.797  11.409  10.668  0.0746 -0.0979 -0.0645
 2671W        W18855   7.797   6.759   0.500  0.2823 -0.2207 -0.0915
 2672W        W18856   3.463  11.698   1.685 -0.2654 -0.0547 -0.1616
 2673W        W18857  13.921   6.028  14.230  0.0329 -0.1044 -0.0478
 2674W        W18858   2.733  11.358  10.954  0.1344  0.0178 -0.2756
 2675W        W18859  13.858  18.152   4.632  0.0756 -0.0931  0.0381
 2676W        W18860   5.288   7.930  13.549 -0.0788 -0.0100  0.0256
 2677W        W18861  11.181  11.906   5.175 -0.0251  0.0523 -0.0203
 2678W        W18862   6.159   0.937   5.673  0.0170 -0.0938  0.0558
 2679W        W18863  11.012  10.737  10.306 -0.1359 -0.0725  0.0916
 2680W        W18864  17.349  16.604   2.766  0.1784 -0.1887  0.2649
 2681W        W18865   7.894  10.708  13.113  0.1611 -0.1808  0.2872
 2682W        W18866  14.434   8.508   4.700  0.1072  0.1079  0.0350
 2683W        W18867  11.768   2.937  15.157  0.0004 -0.2895  0.1077
 2684W        W18868   3.052  16.213   2.192  0.2354 -0.1106  0.2449
 2685W        W18869  11.376  18.990   2.068  0.1280  0.2128  0.0052
 2686W        W18870  12.980   8.494  10.422 -0.0775  0.0219  0.0061
 2687W        W18871  17.869   1.234  13.511  0.0360 -0.2683  0.0847
 2688W        W18872   4.809  10.486  12.777 -0.0114 -0.3120 -0.1338
 2689W        W18873   0.369  13.381   1.846  0.0825 -0.0388 -0.4553
 2690W        W18874  12.560   8.284  13.571 -0.0332 -0.2787  0.4332
 2691W        W18875   6.204   7.513   3.023  0.1739 -0.3089  0.1502
 2692W        W18876   0.224   6.772   3.016  0.0113  0.1432 -0.1538
 2693W        W18877   3.832   6.673  13.749  0.1003 -0.1226 -0.1969
 2694W        W18878  11.571  12.174   0.001 -0.2372  0.2219  0.1066
 2695W        W18879  16.372  17.469   3.728  0.1269 -0.0504  0.3051
 2696W        W18880   2.019  15.534   3.111  0.2799  0.2907 -0.0793
 2697W        W18881  13.583   2.199  12.734 -0.1139  0.2076 -0.1412
 2698W        W18882   3.623  16.939  12.410  0.4121  0.1047  0.0064
 2699W        W18883   9.966   8.345  14.945 -0.1903  0.1396 -0.1476
 2700W        W18884   9.517  10.010   4.408 -0.0470 -0.0627 -0.1836
 2701W        W18885   3.324  10.031  12.700  0.0212 -0.2489  0.1870
 2702W        W18886  11.216   4.064   2.341  0.0948 -0.0039  0.2652
 2703W        W18887   2.807   1.348  14.838  0.1078  0.1266  0.0145
 2704W        W18888  11.454  12.365  14.853  0.1749 -0.0755  0.1802
 2705W        W18889   0.750  11.899  12.297  0.2371 -0.0968 -0.0090
 2706W        W18890   6.662  18.969   0.979 -0.0806 -0.1432  0.1400
 2707W        W18891   5.208  17.485  14.003 -0.0843  0.0752 -0.1711
 2708W        W18892  18.914   2.852  15.334 -0.2064 -0.2412  0.1372
 2709W        W18893   2.828   6.809   3.014  0.2977  0.1318  0.0903
 2710W        W18894   9.586   2.848   3.534 -0.4397  0.0618 -0.0920
 2711W        W18895  12.890   4.079   3.146  0.2704 -0.0318  0.0917
 2712W        W18896   0.689   9.455  12.988  0.2753 -0.0384  0.3071
 2713W        W18897   7.909  15.448   2.312  0.0353 -0.0398 -0.0276
 2714W        W18898   3.881  13.975   0.442 -0.2214 -0.3585  0.2665
 2715W        W18899  16.051   5.467  11.136 -0.1249  0.0389  0.2335
 2716W        W18900  16.612  17.499   0.069 -0.1682 -0.1035  0.1357
 2717W        W18901   9.905  12.260   1.246 -0.1568  0.2143  0.0959
 2718W        W18902  13.285  10.669  12.796  0.1038 -0.0500  0.4087
 2719W        W18903   7.720   1.025   2.720  0.1513 -0.0597  0.2437
 2720W        W18904   7.357  18.025  12.640  0.1105 -0.0083 -0.1678
 2721W        W18905  17.970  10.245   4.140 -0.4437 -0.0768  0.0966
 2722W        W18906   1.187   2.980   4.425 -0.0315 -0.1449 -0.1062
 2723W        W18907   9.031   8.587  11.079 -0.1604 -0.2198  0.3521
 2724W        W18908  12.918  15.595  14.819  0.2199  0.1480 -0.2705
 2725W        W18909   9.798  14.109  15.194 -0.1087  0.0286 -0.0358
 2726W        W18910  12.032  17.595   5.113 -0.3441 -0.1366 -0.3678
 2727W        W18911  18.281   8.998  12.421 -0.2814 -0.2741  0.0749
 2728W        W18912  13.516   3.077  12.278 -0.1936 -0.0424 -0.1721
 2729W        W18913   2.164   5.342  13.262  0.2287 -0.0729 -0.0948
 2730W        W18914   7.105   1.721  11.570 -0.2711 -0.2097 -0.3143
 2731W        W18915  11.768   3.522  15.114 -0.2741  0.0935  0.0308
 2732W        W18916  11.540   0.982  12.984 -0.1304 -0.0184 -0.1283
 2733W        W18917   8.443  18.585  10.518  0.2448 -0.2145  0.0367
 2734W        W18918  18.939  18.000   3.538  0.0100  0.1779  0.1611
 2735W        W18919   9.046  15.835  13.569  0.0348 -0.1047 -0.0820
 2736W        W18920   4.984   9.631   5.006 -0.0869 -0.0828 -0.1338
 2737W        W18921   7.949   9.862   0.623 -0.1872 -0.0825  0.0617
 2738W        W18922  14.516  16.325   5.435 -0.1439  0.0668  0.4361
 2739W        W18923   5.177  10.119   4.594  0.0103  0.6423  0.0493
 2740W        W18924   2.969   5.250  13.219  0.1865  0.0899  0.2193
 2741W        W18925  10.478  11.376  13.250 -0.0106 -0.0365 -0.1007
 2742W        W18926   5.192  18.465  11.434 -0.2637 -0.3305 -0.0186
 2743W        W18927   0.193   0.265   5.733 -0.0570 -0.1447 -0.1405
 2744W        W18928  10.543  10.281  11.937  0.2410  0.1265 -0.0412
 2745W        W18929   5.271  12.287   1.450  0.1066 -0.1375 -0.4008
 2746W        W18930  16.330  15.691  11.011 -0.0482  0.0360  0.3026
 2747W        W18931  13.728  17.716  10.827 -0.2300 -0.0638  0.3149
 2748W        W18932   7.170   2.964  12.201  0.1047 -0.2983 -0.1412
 2749W        W18933   7.960  10.039   3.613 -0.1098 -0.0380 -0.1050
 2750W        W18934   3.326   4.851   1.318 -0.1195  0.2623 -0.1258
 2751W        W18935   7.844  11.800  12.414 -0.0473  0.3104 -0.4483
 2752W        W18936   0.207  10.695  13.582  0.1474 -0.0937 -0.2798
 2753W        W18937  16.027  11.871  11.608 -0.2654 -0.1775 -0.2746
 2754W        W18938   5.848   9.308  11.089 -0.1027  0.0399  0.2155
 2755W        W18939  18.562   7.665  14.533 -0.2722 -0.1599  0.0358
 2756W        W18940   0.692   7.930   4.481 -0.2080 -0.0328  0.0558
 2757W        W18941  10.387   0.958  12.164  0.0459 -0.0063  0.4260
 2758W        W18942   4.942  14.719   1.549  0.0890 -0.0196 -0.0287
 2759W        W18943   1.159   6.498  12.604 -0.1958  0.1296 -0.4477
 2760W        W18944  11.962  18.370  14.278  0.1703  0.3331 -0.1332
 2761W        W18945   9.442   9.997   1.734  0.1326 -0.0726  0.1100
 2762W        W18946   3.626   3.236  12.169 -0.3289 -0.1187  0.1475
 2763W        W18947   3.682   4.922  13.833  0.0616 -0.2402 -0.0144
 2764W        W18948  10.502  17.663  13.828  0.0561 -0.0330  0.1569
 2765W        W18949   1.887  14.441  12.122 -0.1443 -0.0686 -0.1733
 2766W        W18950  10.977  16.921   0.362  0.2006  0.2995  0.0375
 2767W        W18951  17.503  15.374   1.453  0.1286  0.0026 -0.0891
 2768W        W18952   0.876  11.128   0.032 -0.0889 -0.0670 -0.2474
 2769W        W18953   9.544   4.418   0.275  0.4578 -0.0773 -0.1206
 2770W        W18954   0.631  12.988  15.211 -0.0529  0.0607  0.1416
 2771W        W18955  14.789  14.179  13.533  0.0729 -0.0774  0.3561
 2772W        W18956  16.012  14.113  13.293  0.0807  0.1263 -0.0275
 2773W        W18957  13.215  14.629  14.910  0.0163 -0.2456 -0.2174
 2774W        W18958   0.716   2.957   3.201 -0.2827 -0.0036  0.2067
 2775W        W18959  18.174   5.734  13.253 -0.1012 -0.0205 -0.0590
 2776W        W18960   1.778   7.448   2.556 -0.1534  0.0775 -0.1503
 2777W        W18961  14.532  11.650  11.371  0.0859 -0.1401  0.0408
 2778W        W18962   3.180   7.336  14.955 -0.1673 -0.3732 -0.1327
 2779W        W18963  14.275   9.181  11.203  0.1892  0.1302 -0.0887
 2780W        W18964   5.436  13.582   3.041 -0.1163 -0.1508  0.3222
 2781W        W18965  12.531  13.207  11.731  0.1681 -0.0479  0.3789
 2782W        W18966   8.614   1.278   2.365 -0.3892 -0.0648  0.1805
 2783W        W18967   9.806   6.670  13.035 -0.3824  0.1460 -0.1257
 2784W        W18968  13.348  17.845   0.907  0.0617  0.3447 -0.0214
 2785W        W18969  11.452  17.111   0.396 -0.0067  0.0295  0.2027
 2786W        W18970   3.211   3.337  11.313  0.0766 -0.0055 -0.0778
 2787W        W18971   0.980   1.369  15.158 -0.0841  0.0031 -0.0470
 2788W        W18972  18.404  10.196   1.868 -0.3063  0.1127  0.0520
 2789W        W18973  17.717   0.678   2.115 -0.1275 -0.1045  0.1269
 2790W        W18974   5.334   5.790  14.065 -0.0314  0.1324  0.1237
 2791W        W18975  18.924  15.498   0.897  0.2841 -0.3543  0.0226
 2792W        W18976  11.662  11.086   2.997 -0.2966 -0.1022  0.5661
 2793W        W18977   3.628  14.078  12.903  0.1597  0.0528 -0.0604
 2794W        W18978  13.079   4.587   1.275  0.0106  0.0945  0.0132
 2795W        W18979  15.565   9.915   4.224  0.2036  0.0721  0.0752
 2796W        W18980   4.685   8.053   0.465  0.2776  0.0348 -0.1979
 2797W        W18981  12.083   6.786   3.268  0.0672  0.1200 -0.1271
 2798W        W18982   5.533  10.156  10.955 -0.0059  0.1852 -0.1097
 2799W        W18983   6.382  15.581   3.402  0.2053  0.1386  0.3532
 2800W        W18984  18.974   0.223   0.922 -0.3212 -0.4131  0.0457
 2801W        W18985   6.514   5.411   3.296  0.1482  0.0058 -0.1262
 2802W        W18986  18.074   1.133   0.495  0.0338  0.3046  0.1194
 2803W        W18987  17.461   2.606   0.946  0.2459 -0.0659 -0.2667
 2804W        W18988  17.167   5.632   5.290 -0.0276  0.0073 -0.3297
 2805W        W18989  18.963  10.660  13.997  0.0112 -0.0793  0.0364
 2806W        W18990  15.562  14.535   3.345  0.0529 -0.0806 -0.1840
 2807W        W18991  13.715  16.978   3.785  0.0674  0.5619  0.0843
 2808W        W18992  13.674   0.408  13.197 -0.0802 -0.1635  0.3040
 2809W        W18993  18.774   7.519  10.727 -0.1534  0.1481 -0.3344
 2810W        W18994   7.096  12.945  13.345 -0.0564  0.1978  0.0760
 2811W        W18995  11.513   9.332   2.795 -0.1602  0.4264  0.0036
 2812W        W18996   3.604   6.515   1.355 -0.1586  0.1706  0.2249
 2813W        W18997   3.192   0.669  14.822  0.1207  0.0488  0.0302
 2814W        W18998  11.901  18.022   3.847 -0.0367 -0.0108  0.0775
 2815W        W18999  12.048   5.347  10.887 -0.0498  0.1417  0.0424
 2816W        W19000  12.932  13.108  11.086 -0.0027  0.2203 -0.1382
 2817W        W19001  13.655  14.640   3.395  0.0626  0.1400  0.1082
 2818W        W19002  11.240  15.342  13.731 -0.0111  0.4095 -0.1090
 2819W        W19003  15.933  10.339  11.002 -0.1691  0.1163  0.2261
 2820W        W19004  14.485   0.048  13.208  0.0931  0.1307 -0.1334
 2821W        W19005  13.114   0.181   5.695  0.0872  0.0130  0.0429
 2822W        W19006  13.117  12.685   1.862 -0.2411  0.0436 -0.0243
 2823W        W19007  12.732   0.679  13.293  0.0236 -0.2986 -0.1407
 2824W        W19008  13.170   3.214   3.909 -0.1040  0.2806  0.0445
 2825W        W19009  10.214  18.567   4.505  0.1758  0.1785  0.5126
 2826W        W19010  15.512  14.134  12.438  0.2722 -0.1269  0.1496
 2827W        W19011   2.643   4.005   0.035 -0.1548 -0.0229  0.1694
 2828W        W19012   7.558  16.983  10.117 -0.0315  0.4382  0.0891
 2829W        W19013  17.968   3.954   4.139 -0.3136  0.0599 -0.0028
 2830W        W19014   5.814   2.421  13.985 -0.0568  0.0882  0.1612
 2831W        W19015  13.248  11.562  13.420 -0.2071 -0.1367 -0.0301
 2832W        W19016   2.294  17.370   4.924 -0.1470 -0.3313  0.0088
 2833W        W19017   5.034  15.364   5.454 -0.2214 -0.1478  0.4206
 2834W        W19018   3.194  15.701  13.718  0.0354  0.1341 -0.1333
 2835W        W19019   4.971  18.966  10.955  0.0468  0.0826  0.0738
 2836W        W19020   1.394   7.509  11.279  0.2576  0.0772  0.1016
 2837W        W19021   8.903   7.164  13.827  0.2552  0.1449 -0.3615
 2838W        W19022  12.591   3.967   9.861 -0.2016  0.0774  0.1563
 2839W        W19023  10.515  15.633  14.369  0.4014  0.1522 -0.1378
 2840W        W19024  15.583   1.836   5.356 -0.3949  0.0892  0.0176
 2841W        W19025   6.168  15.235  13.617 -0.1047 -0.2815 -0.0870
 2842W        W19026  16.285   4.714   3.487 -0.3256  0.1186 -0.1215
 2843W        W19027  16.331   6.700  15.374 -0.1462  0.4532  0.0666
 2844W        W19028  18.270   8.907  11.335 -0.0722  0.0775 -0.1687
 2845W        W19029  18.142   6.791   4.435 -0.4230  0.0422  0.2014
 2846W        W19030   7.917  11.411   1.517 -0.0620  0.2361 -0.0668
 2847W        W19031  17.360   9.798  12.539 -0.0730  0.3481 -0.2352
 2848W        W19032   8.671  17.050   2.848  0.1185  0.0683 -0.2941
 2849W        W19033   4.169   3.091   2.521 -0.0003 -0.2473 -0.0114
 2850W        W19034  18.171   6.446  10.705  0.0788 -0.3513  0.1036
 2851W        W19035  15.741  10.033   5.159  0.1838  0.2661  0.0314
 2852W        W19036  17.489  15.848   4.475 -0.0411 -0.0764  0.1362
 2853W        W19037   4.025   2.715   1.566  0.3493  0.0381  0.1108
 2854W        W19038  16.728   5.239  11.449 -0.3409  0.0767 -0.1599
 2855W        W19039   2.617  13.879  12.448 -0.2505 -0.0326  0.0787
 2856W        W19040  12.260  16.083  11.856  0.3659 -0.0418 -0.2076
 2857W        W19041   5.189  17.662   4.028  0.3645 -0.2758 -0.0788
 2858W        W19042   3.592  13.703   4.900 -0.0338 -0.0715  0.3035
 2859W        W19043  13.785   1.967  13.992  0.1455  0.2505 -0.0682
 2860W        W19044  10.985  18.739   2.663 -0.5490 -0.1718  0.3149
 2861W        W19045   9.614   6.654   0.601 -0.1767  0.0824  0.1244
 2862W        W19046   9.093  10.899   1.939  0.0333  0.0747 -0.0713
 2863W        W19047  12.170   4.980   3.157  0.2966  0.0168  0.0710
 2864W        W19048   1.998   6.173  12.840 -0.0002  0.0580  0.0553
 2865W        W19049  14.051   2.784   3.747 -0.2497  0.3772  0.2392
 2866W        W19050   9.401   6.333   3.553 -0.1093 -0.1951  0.1394
 2867W        W19051  18.751   4.009   3.704 -0.0856  0.1083 -0.2387
 2868W        W19052   6.117  15.792  14.431  0.1802 -0.0296 -0.0766
 2869W        W19053  16.034   7.997  12.768  0.1228 -0.0398 -0.2011
 2870W        W19054   3.081  16.642  14.586  0.1200  0.0997  0.1292
 2871W        W19055   0.237  11.972   2.278  0.2402  0.0420  0.1675
 2872W        W19056  11.200  15.983  10.346 -0.3766 -0.0504  0.1027
 2873W        W19057   6.721  16.263   3.390 -0.1153  0.1477 -0.1445
 2874W        W19058  17.386   5.259  12.665 -0.1574  0.0873 -0.1040
 2875W        W19059   3.774   0.147   5.758 -0.0751 -0.0539  0.1302
 2876W        W19060   3.713   1.573  14.712  0.0632 -0.2097 -0.0619
 2877W        W19061  11.227   5.977   4.217 -0.1831 -0.0350 -0.0522
 2878W        W19062   2.300  11.218   1.744  0.0603  0.0046  0.1154
 2879W        W19063  11.399  16.264  15.016 -0.0775  0.1667 -0.0614
 2880W        W19064  10.929   8.591  14.606 -0.0232 -0.3813 -0.1226
 2881W        W19065   2.148  14.648   1.386 -0.1756  0.3294 -0.0320
 2882W        W19066   8.466   2.051   0.265  0.0665  0.2906 -0.1548
 2883W        W19067   0.818   4.087  14.149  0.1378  0.1990  0.3563
 2884W        W19068   0.685  17.223  12.490 -0.0514  0.0027 -0.1527
 2885W        W19069   7.255  12.814   2.156  0.0488 -0.3039 -0.2148
 2886W        W19070  15.855  12.541  14.061  0.1010  0.1260  0.6309
 2887W        W19071  14.710   6.662  12.786  0.1402  0.1700 -0.0889
 2888W        W19072  13.782  16.023   1.800  0.1912  0.1841  0.0347
 2889W        W19073   9.133  12.301   0.801 -0.1279  0.0090  0.2270
 2890W        W19074  17.425   5.923   4.663 -0.0719 -0.3178 -0.0635
 2891W        W19075  17.738  15.582  14.775 -0.0685  0.0591 -0.1416
 2892W        W19076   4.457  11.663  12.495  0.0657 -0.0947 -0.2415
 2893W        W19077  10.080   3.712  11.558  0.3678 -0.1710 -0.1114
 2894W        W19078   0.081   2.526   1.125 -0.1148  0.0748 -0.2584
 2895W        W19079  15.182   7.846   3.365 -0.1637  0.1535  0.1406
 2896W        W19080  18.491   8.533   9.567  0.0813 -0.1040 -0.1897
 2897W        W19081   9.093   7.830  13.052  0.2095  0.1948 -0.1956
 2898W        W19082  11.762   9.913  10.618 -0.1083 -0.0940 -0.1937
 2899W        W19083   1.099  12.701  12.303 -0.3680  0.1381  0.0922
 2900W        W19084   2.970   9.594   0.542  0.0296  0.0987  0.0782
 2901W        W19085   6.128  11.170  11.014 -0.0760 -0.2403  0.2532
 2902W        W19086  13.838  18.272   5.198  0.2108 -0.1450 -0.0916
 2903W        W19087  15.056   9.322  11.631 -0.0015 -0.1124  0.0630
 2904W        W19088   5.040  15.618   1.983  0.3641 -0.1002 -0.0974
 2905W        W19089  14.252  13.037  14.684  0.3123  0.2323 -0.1646
 2906W        W19090  14.179   7.415   2.684 -0.0413 -0.1757 -0.1216
 2907W        W19091  12.554   1.191  15.119 -0.0694  0.2081 -0.2264
 2908W        W19092  13.426   5.399   3.302 -0.1175  0.0513 -0.0635
 2909W        W19093   8.347  11.422  13.894 -0.0183  0.0935 -0.3137
 2910W        W19094   0.736   8.539  12.653  0.1815 -0.2601 -0.2468
 2911W        W19095   0.552  17.544  14.574  0.0119  0.1481  0.0748
 2912W        W19096  15.082  10.999  14.376 -0.0774  0.5375 -0.0122
 2913W        W19097   8.317  11.258   1.946  0.0033  0.2925  0.0570
 2914W        W19098   8.982  16.160   3.601  0.1070  0.1010 -0.1920
 2915W        W19099  17.233   5.059   2.746  0.2257 -0.0019 -0.0549
 2916W        W19100   7.509  10.874   3.973 -0.0571 -0.0677 -0.3567
 2917W        W19101   9.413  15.042  10.088 -0.0165 -0.0258 -0.0981
 2918W        W19102   4.321   7.629  15.087 -0.2599 -0.0927 -0.4354
 2919W        W19103  11.694   8.113   0.184 -0.0778 -0.3181  0.0416
 2920W        W19104  15.935   8.425  13.013  0.1255  0.1286  0.1839
 2921W        W19105  18.886  11.512  15.098 -0.0986 -0.1068 -0.0337
 2922W        W19106   5.771   9.667   4.238 -0.0934 -0.3354 -0.0098
 2923W        W19107  17.565  15.989   6.110  0.2560 -0.0008  0.0758
 2924W        W19108  17.202   2.781   2.935 -0.0155  0.0767  0.1128
 2925W        W19109  12.642   1.725  15.073 -0.1915  0.2960  0.2073
 2926W        W19110   2.090   4.628  12.189  0.2474  0.3402 -0.2436
 2927W        W19111   5.026  14.039   0.334 -0.2307  0.2369 -0.0095
 2928W        W19112  13.551  18.825   3.083 -0.1143  0.2211 -0.0861
 2929W        W19113  13.279  17.100  12.993 -0.0086  0.0690 -0.0559
 2930W        W19114   0.578  13.891   3.999  0.0702  0.0018  0.0245
 2931W        W19115  16.548   1.353  12.458  0.0134 -0.3102  0.0321
 2932W        W19116  15.497  12.470  12.702  0.1209 -0.0681 -0.0546
 2933W        W19117  14.235   8.520   1.831  0.1664 -0.0871  0.1714
 2934W        W19118   7.588  10.395   3.655 -0.1464 -0.1069 -0.0815
 2935W        W19119   2.362  17.055   0.315  0.4956 -0.0885  0.2133
 2936W        W19120   8.275   1.639   4.215 -0.0726 -0.0382 -0.1494
 2937W        W19121   2.860  17.870   2.101  0.0958  0.1511  0.1536
 2938W        W19122   5.967  12.415   4.836  0.1725  0.2104  0.3107
 2939W        W19123  14.387  16.277   5.991  0.0170 -0.1588  0.4029
 2940W        W19124  14.970   7.145   0.040  0.1576  0.3212 -0.1249
 2941W        W19125  10.329   8.843  13.354 -0.0117 -0.0361 -0.1818
 2942W        W19126   4.064   2.739  10.510 -0.5435 -0.0415  0.0841
 2943W        W19127  15.329  18.180   3.191 -0.2615  0.0585 -0.1280
 2944W        W19128  13.017  11.294   0.289  0.2212  0.0750  0.0896
 2945W        W19129   1.382  16.322   4.891 -0.2798  0.4073  0.0091
 2946W        W19130  12.436  16.405  14.583  0.0834 -0.2038  0.3071
 2947W        W19131   9.325  17.299  10.529  0.1089  0.1539 -0.2105
 2948W        W19132  16.174   4.077   4.375 -0.2256 -0.0369  0.0539
 2949W        W19133  12.247   4.849   4.703  0.0092  0.4837 -0.1434
 2950W        W19134  15.956   3.372  13.613  0.1835  0.0434  0.1451
 2951W        W19135  13.075  12.254  11.595 -0.0704 -0.1265 -0.1107
 2952W        W19136  17.044  15.506   3.102  0.0136 -0.4268  0.1683
 2953W        W19137  10.442   8.334   4.498 -0.2060  0.1041 -0.1499
 2954W        W19138  15.347  16.489  12.476 -0.0919  0.0595 -0.0913
 2955W        W19139  11.279  11.006   1.605  0.0687  0.0257 -0.2498
 2956W        W19140  15.685   1.281   9.642 -0.0000  0.0207  0.3874
 2957W        W19141   5.572  10.992  13.123 -0.0810  0.2912 -0.0995
 2958W        W19142   1.886   1.454   4.437 -0.2050  0.1100  0.2627
 2959W        W19143  16.407  16.064   3.616  0.3109 -0.2050 -0.0565
 2960W        W19144  16.254  11.867   0.717 -0.0338  0.1626 -0.2156
 2961W        W19145   9.713   8.835   5.034  0.0934  0.0216  0.0444
 2962W        W19146  12.890  18.144   4.876  0.2197 -0.3690  0.0825
 2963W        W19147  16.929  11.501  11.242  0.4165 -0.0841 -0.2043
 2964W        W19148  12.428   8.104  11.979 -0.2667  0.2796  0.1774
 2965W        W19149  17.266   9.395   4.941 -0.0299  0.2422 -0.3404
 2966W        W19150  15.039   4.083  14.449 -0.0171 -0.3190 -0.2069
 2967W        W19151  17.070  13.219  11.276 -0.1154  0.2445 -0.3439
 2968W        W19152   5.674  10.500  12.371  0.1118  0.0176 -0.0327
 2969W        W19153   8.026   4.944   2.847  0.1251  0.1284  0.1122
 2970W        W19154  10.483   3.848  13.952 -0.2680 -0.0718  0.0101
 2971W        W19155  14.031   1.962  10.880  0.0964  0.3236 -0.5996
 2972W        W19156  10.911  15.222   5.532 -0.2972  0.2265  0.0264
 2973W        W19157   7.272  11.997  14.325 -0.1552  0.1242 -0.2765
 2974W        W19158   0.639  14.612  11.586 -0.0153 -0.3140  0.0033
 2975W        W19159  16.867  12.183   3.848 -0.2003 -0.3117  0.2601
 2976W        W19160   7.190  16.692  13.496  0.1548  0.0797 -0.0038
 2977W        W19161   1.218  10.135  11.379 -0.2492  0.0533 -0.1496
 2978W        W19162   3.098   8.741  14.487 -0.3008 -0.0893  0.1612
 2979W        W19163   6.926   2.763   2.556 -0.2023  0.0612 -0.2795
 2980W        W19164   4.775   1.669   4.023 -0.2287  0.0849  0.1145
 2981W        W19165   8.317   8.955   9.710  0.0161 -0.3121  0.2140
 2982W        W19166  16.107  17.446   5.012 -0.0705 -0.0766 -0.0291
 2983W        W19167   7.059  11.509  14.564  0.2162  0.4643 -0.0386
 2984W        W19168  17.339  18.283  11.434  0.2089  0.1679  0.0773
 2985W        W19169   5.522  13.953   0.473  0.2158 -0.2290  0.1287
 2986W        W19170   3.880   3.507   0.696  0.1621  0.1099  0.2639
 2987W        W19171   9.728  12.078  12.319  0.1144  0.3549  0.1073
 2988W        W19172   2.878   1.939   3.397  0.2427 -0.1408 -0.4651
 2989W        W19173  13.573   2.255  14.331  0.2131 -0.5432  0.0338
 2990W        W19174   3.687   9.227  11.838 -0.1420  0.0518  0.3267
 2991W        W19175   7.405   3.063   3.998  0.0172 -0.1915  0.1285
 2992W        W19176   8.254   3.507   0.906 -0.2539  0.1302 -0.0202
 2993W        W19177   1.615   9.459   4.309  0.1503 -0.3939  0.1405
 2994W        W19178   7.323  12.056   0.621  0.0330 -0.1828 -0.1005
 2995W        W19179   9.914   9.030  11.773  0.0863  0.0543  0.3310
 2996W        W19180  11.325   1.291  11.155 -0.1366 -0.2387  0.0124
 2997W        W19181  18.512  16.475   0.836 -0.0876 -0.0335  0.0124
 2998W        W19182   8.413   2.951   2.163 -0.1242  0.0938  0.2716
 2999W        W19183  16.394  13.488  14.515 -0.0021 -0.1471 -0.0929
 3000W        W19184  10.778  10.754   3.273  0.2593  0.0941 -0.0965
 3001W        W19185  11.163   9.903  14.400  0.0199  0.2878  0.0400
 3002W        W19186  13.810  15.911  10.438 -0.0440 -0.1747 -0.1231
 3003W        W19187  16.189  10.218  12.661 -0.0851  0.1955 -0.1411
 3004W        W19188   7.656   8.516   2.669 -0.0040 -0.5074 -0.0553
 3005W        W19189   3.348  18.021   1.336 -0.1254 -0.0300 -0.0157
 3006W        W19190  18.727   2.109   0.549  0.2373  0.0303 -0.0667
 3007W        W19191  15.792  17.675   1.232 -0.0734  0.1581  0.1202
 3008W        W19192  11.137  17.812  14.609  0.0024  0.0943 -0.0412
 3009W        W19193   7.672  13.685   4.971  0.0864 -0.0856 -0.0691
 3010W        W19194   4.235  16.591  10.432  0.0138 -0.0687 -0.0382
 3011W        W19195   5.777  13.686  15.226 -0.1294  0.3586  0.1224
 3012W        W19196  15.125   3.600   1.227  0.1616 -0.4220  0.1175
 3013W        W19197   8.376   9.762  12.130  0.2842 -0.2418  0.0740
 3014W        W19198   7.232   7.699   0.347 -0.0864  0.2264 -0.1166
 3015W        W19199   2.051   8.907   1.526 -0.2350  0.1137  0.0894
 3016W        W19200  18.752   1.066   3.939  0.1174 -0.3122  0.1651
 3017W        W19201   8.471   4.808   4.484  0.1074 -0.2778  0.0843
 3018W        W19202  16.170  16.456   0.835  0.0651  0.0543  0.0609
 3019W        W19203  14.506   4.007   0.286 -0.1951  0.0282 -0.2225
 3020W        W19204  10.594   0.017  11.842 -0.3852 -0.0900  0.0289
 3021W        W19205  13.847  11.898  10.808  0.4240  0.1455  0.4190
 3022W        W19206  16.164  10.231   4.642  0.0181 -0.3713 -0.0471
 3023W        W19207   9.697  15.422  14.692  0.2051  0.1430  0.3989
 3024W        W19208   5.992   7.052  12.464 -0.0435 -0.1399 -0.2261
 3025W        W19209   2.933   4.783  11.064 -0.2212  0.1394  0.2889
 3026W        W19210   0.417   8.813   0.881  0.0326 -0.0899 -0.0122
 3027W        W19211   6.548   5.709  12.082  0.6682 -0.0018 -0.2445
 3028W        W19212  15.896   3.954  11.584  0.0660  0.0079  0.0103
 3029W        W19213   9.418  17.092  15.315 -0.4216  0.2266 -0.3266
 3030W        W19214   4.323   7.765   4.799  0.2840  0.3538  0.3787
 3031W        W19215   9.327  15.700  14.458  0.2306  0.2742  0.2575
 3032W        W19216   8.133   9.683  12.645 -0.0489  0.0938 -0.3031
 3033W        W19217  17.452  11.884   5.196 -0.0169 -0.0100  0.0327
 3034W        W19218   0.091   1.757   0.634  0.1583  0.2980  0.1278
 3035W        W19219  17.111  15.966   0.699  0.0565  0.6733 -0.1189
 3036W        W19220   7.762   2.890  11.435  0.0864  0.2203 -0.1166
 3037W        W19221   3.877   3.908  15.302 -0.2356 -0.2935 -0.0676
 3038W        W19222  17.323  15.989  10.931  0.1435 -0.3313 -0.2606
 3039W        W19223   6.796  11.403  13.807 -0.1602 -0.1916 -0.4282
 3040W        W19224   4.100  18.022  13.442 -0.1574  0.2281  0.0075
 3041W        W19225   7.386   6.550  12.697 -0.3374  0.1565  0.2667
 3042W        W19226  15.600  14.661   1.999 -0.2180  0.1396 -0.0947
 3043W        W19227   3.231   0.712  11.351  0.0734 -0.1256 -0.1289
 3044W        W19228   3.859  10.608   1.708  0.1840  0.0664  0.2740
 3045W        W19229   1.275  10.786   5.307  0.2751  0.2915 -0.1584
 3046W        W19230   2.869   3.297  12.121 -0.0469  0.0933  0.2063
 3047W        W19231   6.412  16.050   4.313 -0.0231 -0.1789 -0.0699
 3048W        W19232  12.033   5.470   1.119 -0.2157  0.0833 -0.1825
 3049W        W19233  10.673   9.925   2.592 -0.2284 -0.1297  0.2610
 3050W        W19234  17.588  11.621   2.686 -0.0824  0.0190  0.1127
 3051W        W19235  15.822   9.728   0.293  0.2997  0.4343  0.0420
 3052W        W19236   5.181   0.697  11.498 -0.0317 -0.0186 -0.0937
 3053W        W19237   2.561  10.177  14.058 -0.0049  0.0627 -0.2506
 3054W        W19238   7.092   3.493  12.694  0.3159 -0.1021  0.1716
 3055W        W19239  13.070   4.685  10.373 -0.3420 -0.0988 -0.2067
 3056W        W19240   8.036  17.521  11.072  0.0876  0.1006  0.0612
 3057W        W19241  16.746  15.324   1.345 -0.2064 -0.1211 -0.1426
 3058W        W19242  18.036  15.625  15.230  0.0502  0.3040 -0.2981
 3059W        W19243   0.752   2.113   0.392  0.0150  0.0997 -0.0569
 3060W        W19244   3.341  16.182   1.435  0.0279  0.3131 -0.1553
 3061W        W19245   3.144  16.968  12.545 -0.0252  0.1498 -0.1535
 3062W        W19246  14.173  13.818   1.509  0.2792  0.0080 -0.2286
 3063W        W19247   5.311  13.626   0.884  0.0785  0.1079  0.0482
 3064W        W19248  17.832   2.285   0.751 -0.2177 -0.1213 -0.0490
 3065W        W19249   5.695  18.125  14.014  0.0614 -0.1456  0.0446
 3066W        W19250  13.720  15.208   2.023  0.2269  0.1321 -0.3147
 3067W        W19251   8.418   2.921  14.182 -0.0085 -0.0929 -0.0280
 3068W        W19252  13.623  14.219  12.180  0.1114  0.1441 -0.3420
 3069W        W19253   5.445   5.937   4.226 -0.3203 -0.0989  0.3015
 3070W        W19254   8.478   4.074  13.694  0.0560  0.0814 -0.0537
 3071W        W19255  13.864   1.373  14.732 -0.2336  0.0282  0.0171
 3072W        W19256   9.894  15.033  10.487  0.2036 -0.0380  0.0005
 3073W        W19257   9.153  15.336  14.977  0.0199 -0.1585 -0.2048
 3074W        W19258   1.171  17.161   4.603 -0.1612 -0.0963  0.1723
 3075W        W19259  10.076   7.870  11.589  0.0517 -0.2318  0.0156
 3076W        W19260   2.179   2.599   3.736  0.2960  0.0328 -0.1158
 3077W        W19261  12.339   8.806  15.308 -0.1546  0.1640 -0.0952
 3078W        W19262   0.328  10.948   5.497 -0.1072 -0.2184 -0.0389
 3079W        W19263   6.293  11.513   1.236 -0.1407 -0.0375 -0.2590
 3080W        W19264   8.093   8.467  11.395 -0.1067 -0.0418 -0.2043
 3081W        W19265   9.736  18.589  11.820  0.2206 -0.0818 -0.2657
 3082W        W19266  11.262  17.214  14.443  0.1182  0.0993 -0.0824
 3083W        W19267  10.245  10.794   0.809 -0.1684 -0.1989 -0.3406
 3084W        W19268  11.266  10.672   5.027  0.2666 -0.4166  0.2272
 3085W        W19269  10.182  16.851  10.904  0.0192 -0.1350  0.2551
 3086W        W19270   1.371  10.484   2.401  0.0067  0.3297  0.0354
 3087W        W19271   6.115   7.515   2.098 -0.2508 -0.4732  0.2674
 3088W        W19272  12.311   2.092   3.721 -0.0321  0.1524 -0.0165
 3089W        W19273  13.883   5.427   4.012  0.0060 -0.1147  0.2431
 3090W        W19274   8.215   0.573  15.333  0.1471 -0.1491 -0.0981
 3091W        W19275   4.590  13.313   0.115  0.0655  0.1400 -0.0499
 3092W        W19276  10.849  12.890   1.107 -0.3165  0.1628  0.1490
 3093W        W19277  17.605  16.301  14.302 -0.1713 -0.1765 -0.1960
 3094W        W19278   2.471  15.990   2.414 -0.1953  0.2588  0.1252
 3095W        W19279  17.479  15.964  14.647  0.0834 -0.3813  0.0043
 3096W        W19280   6.918   9.875   5.083  0.1156  0.0187 -0.0538
 3097W        W19281  13.865   4.239   1.686  0.2687  0.3689  0.2214
 3098W        W19282  11.387   5.178  11.806 -0.0148  0.2463  0.1382
 3099W        W19283  10.953  12.186   1.705 -0.1415 -0.3444 -0.0514
 3100W        W19284  14.968  17.166   9.705  0.2494 -0.0254 -0.0820
 3101W        W19285  12.201  10.962   4.865  0.0158 -0.0138  0.1069
 3102W        W19286   7.580  17.319  15.050 -0.0061  0.0425 -0.1848
 3103W        W19287  12.114   8.889   1.000 -0.2645  0.0310  0.0285
 3104W        W19288   3.310  10.556   3.203 -0.2874  0.1000  0.0302
 3105W        W19289  13.896   3.535   1.183 -0.2846 -0.0887 -0.0658
 3106W        W19290  18.315  14.433  10.948 -0.1859 -0.2832 -0.1861
 3107W        W19291   6.556   5.021  12.856  0.1000  0.0915 -0.1664
 3108W        W19292  18.002   9.376  10.396 -0.1345 -0.2961  0.3148
 3109W        W19293  15.646  13.590   0.857  0.2032  0.2920 -0.1542
 3110W        W19294   7.569   5.239   5.810 -0.1561 -0.2008 -0.0557
 3111W        W19295   9.519  18.882   2.519 -0.1037  0.0892  0.2337
 3112W        W19296  11.613  11.855   4.549  0.3868  0.1134  0.0536
 3113W        W19297   7.705   5.342  14.599 -0.0254  0.1087 -0.1140
 3114W        W19298  13.761  13.300  12.238 -0.1098 -0.1058 -0.0406
 3115W        W19299   3.816  18.056   3.383  0.0282  0.1019  0.0987
 3116W        W19300   3.613   6.591  14.438 -0.1505 -0.1504 -0.2473
 3117W        W19301  13.971  18.267   0.629  0.0672  0.0428  0.0628
 3118W        W19302  12.632   0.652  14.178 -0.2032  0.0777 -0.1807
 3119W        W19303   7.144  14.283  14.977 -0.0279 -0.1656  0.0211
 3120W        W19304   3.954  13.549  13.702 -0.1375  0.0864 -0.1525
 3121W        W19305  11.659   6.422   1.652 -0.1358 -0.4676  0.0867
 3122W        W19306  10.228  11.154  12.742  0.4108  0.1473  0.0865
 3123W        W19307   3.135   3.374   0.040  0.2625  0.3768  0.1316
 3124W        W19308   1.427   1.393  10.957  0.0630  0.3252  0.1307
 3125W        W19309   1.620  14.164  10.404 -0.0192 -0.0761  0.1429
 3126W        W19310  16.853   0.538  11.331 -0.3032 -0.2328  0.2221
 3127W        W19311  12.551  14.800   3.891 -0.1950  0.3867 -0.2645
 3128W        W19312   6.748  11.768   4.824  0.1121 -0.1652 -0.0095
 3129W        W19313  12.884   1.571   3.060 -0.3541 -0.4537 -0.0031
 3130W        W19314   6.767   2.430  10.797  0.0374  0.1673 -0.2345
 3131W        W19315   4.467  16.647   3.200 -0.2182  0.1351 -0.1543
 3132W        W19316  14.206  16.040  14.756 -0.1005 -0.1570 -0.1143
 3133W        W19317  14.354   9.363   2.091  0.0882  0.1792  0.3281
 3134W        W19318   3.606   4.152   2.068  0.0608  0.3335 -0.0814
 3135W        W19319   3.337  15.376   0.476 -0.2778  0.0253 -0.1503
 3136W        W19320   1.032  14.797   4.604 -0.0346  0.0293 -0.1319
 3137W        W19321  11.522  10.547  15.085 -0.1075 -0.1583  0.1643
 3138W        W19322   7.010   4.066   2.978  0.1659 -0.0223 -0.1441
 3139W        W19323   7.898   7.982  11.520  0.2863  0.0442  0.0935
 3140W        W19324  18.565  15.136   2.207  0.1667 -0.1664  0.2063
 3141W        W19325   2.659   9.795   5.261 -0.2229  0.2599  0.0805
 3142W        W19326   4.096   5.783   3.748  0.0929  0.1329  0.1685
 3143W        W19327   2.631  17.770   4.906  0.0741  0.0616 -0.1619
 3144W        W19328  16.195   8.238   2.988  0.1713 -0.3315 -0.0643
 3145W        W19329   7.760  16.628   4.307 -0.0432  0.1773 -0.1602
 3146W        W19330   6.354   9.765   2.710 -0.1217 -0.0869 -0.0035
 3147W        W19331  13.959   1.653   2.752  0.0612  0.0093  0.1947
 3148W        W19332  14.495   7.478   1.763  0.1659  0.2209  0.2235
 3149W        W19333  13.748  17.885  11.633  0.0684 -0.3422  0.4899
 3150W        W19334  15.903   6.335   4.859 -0.1691  0.0631  0.0604
 3151W        W19335   6.275  16.817   1.330  0.2387  0.2047 -0.0789
 3152W        W19336  10.251   4.931   4.933  0.3771  0.0723 -0.0119
 3153W        W19337   3.765  12.016   3.466 -0.1173 -0.0966  0.0857
 3154W        W19338   0.481  14.332  13.951  0.1262  0.0317  0.0852
 3155W        W19339   0.402   3.329   4.116 -0.4070  0.1305  0.1255
 3156W        W19340   9.428   7.592   9.695  0.0947 -0.1573 -0.2658
 3157W        W19341  15.614   4.420   4.564  0.0288  0.2936  0.1203
 3158W        W19342   3.446   1.899   1.214  0.1266  0.6967 -0.4126
 3159W        W19343  18.755   3.441   0.791  0.1576  0.1573  0.1630
 3160W        W19344  13.490   1.564   4.952 -0.0803  0.1513 -0.2899
 3161W        W19345  12.670   7.193  10.261 -0.1020 -0.1172 -0.0939
 3162W        W19346   6.506  13.248   0.591  0.2977  0.1563  0.0722
 3163W        W19347   5.018   2.724  11.562  0.0216 -0.0050  0.1904
 3164W        W19348   3.777   3.144  13.638  0.1176  0.1854 -0.0953
 3165W        W19349   0.288   1.164  14.193  0.2272 -0.2551 -0.3785
 3166W        W19350  15.645  10.073  13.082  0.2886 -0.1459  0.4371
 3167W        W19351   2.127   5.264  13.778 -0.2667  0.1030  0.1256
 3168W        W19352   7.467   3.192  12.615 -0.0200  0.1603 -0.2632
 3169W        W19353  13.575  10.699  14.843  0.0338 -0.0954  0.1204
 3170W        W19354  14.443  11.790  10.766 -0.2213 -0.2102 -0.2943
 3171W        W19355   6.018   8.443   2.705 -0.0800 -0.0176  0.1186
 3172W        W19356   8.017  15.300   5.076 -0.3059 -0.1469  0.1591
 3173W        W19357   5.033  18.706   1.025 -0.0629 -0.0886 -0.0890
 3174W        W19358   7.434  10.106   1.869  0.1664  0.0961 -0.2701
 3175W        W19359  10.743  17.453   0.987  0.1428 -0.2564 -0.1345
 3176W        W19360  15.394   6.153  10.771 -0.2835  0.2411 -0.2051
 3177W        W19361   8.525   5.777  14.994  0.1446 -0.0786  0.0208
 3178W        W19362   8.798  18.998   4.124 -0.0023  0.3228 -0.0626
 3179W        W19363  18.208   8.473   4.379 -0.0840  0.0549  0.2141
 3180W        W19364   0.820  12.304  12.972  0.1135  0.1202  0.0348
 3181W        W19365  16.277   7.191  15.025 -0.3513  0.0059  0.2813
 3182W        W19366   7.589   9.219   4.555  0.0944  0.1795 -0.2381
 3183W        W19367  12.176   2.778  11.210 -0.1120  0.0784 -0.2751
 3184W        W19368   7.766  18.803   3.318  0.6227 -0.1861  0.0228
 3185W        W19369  13.156   4.667  13.949 -0.0340 -0.2986  0.0875
 3186W        W19370   9.903   5.280  15.179 -0.0801 -0.0133 -0.1041
 3187W        W19371   7.760  10.274   5.606  0.2269  0.0448 -0.0681
 3188W        W19372  14.719   1.903  15.348  0.3089 -0.0471  0.0412
 3189W        W19373  11.905   3.969   0.065  0.0197  0.0753  0.3321
 3190W        W19374   8.339   1.243  14.033  0.2398  0.1632 -0.1246
 3191W        W19375   3.214  10.661  10.127 -0.0244  0.1141 -0.3972
 3192W        W19376   8.015   6.434  14.750 -0.1045  0.2288  0.0203
 3193W        W19377   5.911   4.080  11.036 -0.2615 -0.0840 -0.0177
 3194W        W19378   6.797   2.973   1.178 -0.0366 -0.1572  0.0318
 3195W        W19379   7.011  10.630  11.814  0.1467 -0.1010  0.4536
 3196W        W19380   8.536  14.445   3.004  0.1645  0.1810 -0.0831
 3197W        W19381   1.061   7.876   4.148 -0.3166  0.2725  0.0016
 3198W        W19382  18.150  13.784  15.247  0.2234 -0.1470 -0.0911
 3199W        W19383   6.461   2.750  12.193  0.0408 -0.0730 -0.2681
 3200W        W19384  12.242  11.450  10.381 -0.1373  0.3047  0.0059
 3201W        W19385   2.494   4.485  11.210 -0.0510 -0.3465 -0.0117
 3202W        W19386  18.027  16.240   3.020 -0.0141  0.0298  0.1093
 3203W        W19387  18.862   2.767   3.427  0.0159 -0.1101 -0.2089
 3204W        W19388   6.812   3.179   9.943 -0.0197 -0.1067 -0.0717
 3205W        W19389   3.265  11.084   1.257  0.0916  0.3152  0.1957
 3206W        W19390  10.398   8.259  11.669 -0.1621  0.1829 -0.0141
 3207W        W19391   4.514  15.004   1.204 -0.1836 -0.0629  0.1356
 3208W        W19392   2.880  13.427  14.284 -0.1537 -0.2493 -0.1508
 3209W        W19393  11.685   8.148  12.299 -0.1901 -0.2631 -0.1141
 3210W        W19394  11.121  13.459  11.445  0.3999  0.2023  0.2958
 3211W        W19395  11.689  10.504  10.350 -0.1776  0.2447 -0.2657
 3212W        W19396  14.415   4.902   4.799 -0.0616  0.0833  0.1522
 3213W        W19397   6.988  14.290  13.383  0.2342  0.1227 -0.1151
 3214W        W19398  10.718   1.620  14.007  0.0057  0.1638 -0.0069
 3215W        W19399   8.811   0.197  13.496  0.3157 -0.0741  0.1899
 3216W        W19400   4.495   3.320   5.753 -0.0707 -0.0750  0.0376
 3217W        W19401   4.303   6.001  14.161 -0.1329 -0.0968 -0.0214
 3218W        W19402  11.899  15.328  10.709  0.1663 -0.4286 -0.1438
 3219W        W19403   7.308  18.214   1.082 -0.0757 -0.3438 -0.2827
 3220W        W19404  13.075  12.340  14.159 -0.0918 -0.4648 -0.0884
 3221W        W19405   5.479  10.661   9.954  0.0983  0.0369  0.4471
 3222W        W19406   6.111  13.161  12.419  0.2184  0.0395 -0.3612
 3223W        W19407   0.027  16.649   3.448  0.0704  0.0700  0.0413
 3224W        W19408  14.857  11.043  13.611  0.5539  0.1370  0.0246
 3225W        W19409   1.397   7.205   2.946  0.1063 -0.1295 -0.0587
 3226W        W19410   5.158   7.956   0.508 -0.1086 -0.0117 -0.2147
 3227W        W19411   3.508   7.422   3.684 -0.1070 -0.2475  0.1917
 3228W        W19412  13.240  17.748   3.105  0.3304  0.1258  0.1774
 3229W        W19413  12.240   6.141  13.517 -0.1079 -0.2427  0.1320
 3230W        W19414  14.372  18.796  12.681 -0.0532 -0.1685  0.3054
 3231W        W19415   5.871  17.975   3.467 -0.1061  0.2545 -0.1752
 3232W        W19416  14.882  14.697   1.422 -0.2177  0.0484 -0.2075
 3233W        W19417   5.146   1.552  14.414 -0.0160  0.0047 -0.0876
 3234W        W19418  14.410   2.765  11.159  0.1261 -0.0313 -0.0748
 3235W        W19419   0.447   1.971  14.528 -0.2349  0.2612  0.2158
 3236W        W19420   4.182  12.672  10.600  0.0396  0.1550  0.1758
 3237W        W19421  14.796  13.517  14.007 -0.1370  0.0973  0.0457
 3238W        W19422  17.548   5.008   1.251 -0.1543 -0.0179  0.2051
 3239W        W19423  14.507  16.172   2.474 -0.1398 -0.0651  0.1898
 3240W        W19424  10.149   7.422  14.282  0.0720 -0.0635  0.0202
 3241W        W19425   2.651  13.623  10.273  0.1725 -0.3047 -0.0806
 3242W        W19426   2.833  10.912   1.427  0.1802  0.2431  0.0456
 3243W        W19427  15.095   0.800   0.008  0.1001 -0.0567 -0.0476
 3244W        W19428  13.548  11.612   5.826 -0.1584  0.0050 -0.1489
 3245W        W19429   3.353  16.298   3.082 -0.0816  0.1992 -0.1442
 3246W        W19430   3.017   6.177  11.785  0.3077  0.0567  0.1052
 3247W        W19431   7.265  15.183   4.895 -0.0690  0.0627  0.0052
 3248W        W19432   5.866   8.369   1.060  0.1181  0.1011 -0.0829
 3249W        W19433  13.518  11.250   3.369  0.3614 -0.0355  0.2563
 3250W        W19434  11.571  17.686  11.819 -0.1715  0.1107 -0.3059
 3251W        W19435  14.759   5.046  14.141 -0.0668 -0.0007 -0.1401
 3252W        W19436  12.666   2.859   3.121 -0.0539 -0.0939  0.1276
 3253W        W19437  11.754  12.299   1.446 -0.0445  0.0545 -0.1430
 3254W        W19438  17.234  18.383  14.286 -0.0710  0.1585  0.1031
 3255W        W19439   7.240  10.288   3.076  0.1812 -0.0397 -0.3376
 3256W        W19440   5.038  10.278  10.947  0.0325  0.1506 -0.1173
 3257W        W19441  13.696   2.746   0.503  0.1003 -0.0931  0.0555
 3258W        W19442   5.832   0.640   4.590 -0.1597  0.2978 -0.1602
 3259W        W19443   4.575  15.153   5.495  0.0764 -0.0050  0.1822
 3260W        W19444   4.134  12.448   1.229 -0.0211  0.0759 -0.1440
 3261W        W19445   0.988  10.049   5.464  0.3440 -0.1863  0.0605
 3262W        W19446  18.646   6.283   0.364  0.1379 -0.1354  0.1261
 3263W        W19447   7.025  17.379  15.218  0.0591  0.1675  0.4006
 3264W        W19448  18.930  11.407   3.991  0.1700  0.4100  0.0315
 3265W        W19449   1.296   9.309   2.572 -0.2146  0.0015 -0.1414
 3266W        W19450   5.049  15.987  11.728  0.0875 -0.0285  0.1625
 3267W        W19451   9.127   2.621   2.774  0.2446 -0.0308  0.0631
 3268W        W19452  12.706   2.437  14.372  0.4932  0.1136  0.0082
 3269W        W19453  14.924   2.573   3.998  0.0933 -0.1685 -0.2028
 3270W        W19454   7.744   8.775   0.463 -0.1565 -0.0814 -0.0135
 3271W        W19455   0.639  13.846  13.740 -0.0401  0.3068 -0.1122
 3272W        W19456  10.868   6.552  11.211 -0.2760 -0.1066 -0.0529
 3273W        W19457  11.037  15.573  13.190  0.2756  0.0521  0.3515
 3274W        W19458  14.057   5.214  14.086 -0.2451 -0.0627 -0.0822
 3275W        W19459  17.467  17.135  13.071  0.3864  0.0646  0.0423
 3276W        W19460  13.727  10.908  12.802  0.0548  0.2337  0.0983
 3277W        W19461  11.529  11.920  12.512 -0.0170  0.1911  0.1333
 3278W        W19462   5.959  17.926   5.411  0.0275  0.1306 -0.4982
 3279W        W19463  17.957   5.241   1.128 -0.0360 -0.2327  0.1351
 3280W        W19464  15.764   5.842  14.672  0.0483 -0.6569 -0.2961
 3281W        W19465   2.753   4.425   1.045  0.0335 -0.0489  0.0678
 3282W        W19466   4.824  12.182   5.929  0.0420  0.0254 -0.1198
 3283W        W19467   8.829   1.524   1.496  0.1791  0.3788  0.0308
 3284W        W19468  10.487   9.188   2.083  0.2475  0.1064 -0.0656
 3285W        W19469   4.083   1.169   2.342 -0.2087 -0.0205 -0.2970
 3286W        W19470  12.445   8.789   2.243 -0.2388  0.5201  0.3592
 3287W        W19471  15.208   2.207  14.572 -0.0061 -0.1171 -0.0687
 3288W        W19472   4.313  13.634  11.817  0.0070 -0.2501  0.0498
 3289W        W19473  15.727   0.205   2.437  0.2856 -0.1321  0.1339
 3290W        W19474  16.110   7.382   2.688  0.1238 -0.0235  0.0704
 3291W        W19475  14.754   4.879   4.105 -0.1166 -0.2725 -0.0176
 3292W        W19476   3.049  10.004   1.680 -0.1569  0.1165 -0.0210
 3293W        W19477  15.323  16.036  13.962  0.2578 -0.2734 -0.0210
 3294W        W19478   9.777  10.522   0.668 -0.1464  0.1647 -0.0567
 3295W        W19479  17.661   5.358  11.801  0.0142  0.1750 -0.0330
 3296W        W19480   3.830   6.662   0.509  0.2151  0.2292 -0.0860
 3297W        W19481   7.492   2.346   0.727 -0.3396  0.1584 -0.0206
 3298W        W19482   0.363  12.921   2.267  0.1198  0.2607  0.2069
 3299W        W19483   8.917   7.706   1.282 -0.0595  0.2374  0.0431
 3300W        W19484  16.034   9.098   4.243  0.2328  0.4364  0.1368
 3301W        W19485  14.943   1.186   1.222 -0.1258 -0.1052  0.1551
 3302W        W19486   0.789   8.043  11.607  0.2339  0.2193  0.3141
 3303W        W19487   3.251   3.979  14.601 -0.1883  0.0648 -0.1066
 3304W        W19488   6.916  18.610  12.135  0.0589  0.2943  0.3305
 3305W        W19489  12.491   0.559  10.594  0.1488 -0.2499 -0.1197
 3306W        W19490  12.903  15.458  10.969  0.0574  0.1276 -0.1063
 3307W        W19491  14.894  16.961   3.214 -0.0345  0.0923  0.0348
 3308W        W19492  15.252   9.371  10.961  0.3475  0.1102  0.0356
 3309W        W19493   4.417  13.942   4.305 -0.0106 -0.1574  0.0837
 3310W        W19494  10.466   5.511  11.711 -0.2834 -0.2506  0.1496
 3311W        W19495   5.226   1.873   5.813 -0.2437 -0.0417 -0.0335
 3312W        W19496  18.935   8.860   5.279 -0.0731  0.0335 -0.0497
 3313W        W19497  17.407  17.416   5.113  0.1166  0.1518  0.3829
 3314W        W19498  12.587   2.901  14.141  0.2264  0.0186 -0.0221
 3315W        W19499  18.424  12.632  13.758  0.0146  0.2638  0.2222
 3316W        W19500   3.161   5.199  12.757  0.0737 -0.0266  0.1088
 3317W        W19501  10.875  15.075  11.877 -0.1431  0.2680 -0.3726
 3318W        W19502  10.110  13.190   1.490 -0.1471  0.0865 -0.0491
 3319W        W19503   3.513  14.326  14.903 -0.0321 -0.0855 -0.2082
 3320W        W19504  15.855  11.939   2.682  0.0058 -0.1373 -0.1475
 3321W        W19505   4.002   7.575   3.228  0.0598  0.0852 -0.2458
 3322W        W19506   9.243  11.195  12.048 -0.0688  0.2150  0.0238
 3323W        W19507  14.820   2.599  12.935 -0.2832  0.0173  0.4149
 3324W        W19508   7.425  10.828  13.178 -0.1313  0.0744  0.1772
 3325W        W19509   4.249   0.504   4.916 -0.0847 -0.0540  0.0959
 3326W        W19510   2.618   4.331   0.440 -0.1850 -0.1170  0.1563
 3327W        W19511  13.321   7.093   4.773  0.2083 -0.0093 -0.0012
 3328W        W19512  13.940   4.078   1.230 -0.1498  0.1750  0.0508
 3329W        W19513   0.155   9.814   0.315  0.0296  0.1618  0.2417
 3330W        W19514   5.740  12.412   3.821 -0.2296  0.1837 -0.4823
 3331W        W19515   4.204  16.047   1.914  0.2927  0.0551 -0.3260
 3332W        W19516   5.347   1.938   3.224  0.0291 -0.2060  0.2432
 3333W        W19517   6.860  12.918  10.238 -0.0543 -0.0779 -0.4011
 3334W        W19518  11.374  10.049  10.343 -0.3342  0.1281  0.0375
 3335W        W19519   9.047  13.709   0.674 -0.1326 -0.3534 -0.1646
 3336W        W19520  13.472   9.621   3.181 -0.1394  0.0313  0.0170
 3337W        W19521   6.359  10.395  12.572  0.0490  0.2091 -0.2446
 3338W        W19522   4.274  16.732   0.588  0.0167  0.2570  0.1107
 3339W        W19523   5.871  15.301   0.829  0.2503 -0.1411 -0.4707
 3340W        W19524   0.921  17.582   2.774 -0.2308  0.0312 -0.0105
 3341W        W19525   6.768   1.965   4.706  0.0912 -0.3509 -0.1435
 3342W        W19526   8.104  11.469   0.139 -0.0605  0.0586 -0.0150
 3343W        W19527  18.385  17.212   3.189 -0.0973 -0.1370  0.5023
 3344W        W19528  18.957  14.244  13.602  0.2646  0.0761  0.2124
 3345W        W19529  13.453  16.728  12.113 -0.0067  0.0009  0.1428
 3346W        W19530   2.611   6.369  14.508 -0.0213 -0.3374 -0.0982
 3347W        W19531  11.585   2.367   4.185  0.1810 -0.0650  0.0646
 3348W        W19532   0.096   6.137  13.046 -0.0155  0.2790  0.0466
 3349W        W19533  18.467  16.420  13.812  0.2291  0.6256 -0.2389
 3350W        W19534  10.130  17.974   5.041  0.2018 -0.1484 -0.2302
 3351W        W19535   0.957  17.218  14.650 -0.0400 -0.1115  0.2074
 3352W        W19536  13.946  17.992  15.118  0.3461  0.0450 -0.0848
 3353W        W19537  13.951  12.378   1.387 -0.0851 -0.1600 -0.0187
 3354W        W19538  17.618  11.260   2.275 -0.2179 -0.1321  0.0207
 3355W        W19539   7.229   6.042   0.670 -0.0953  0.2009 -0.2457
 3356W        W19540  16.944   2.351   2.658 -0.2672  0.4088 -0.1098
 3357W        W19541   9.229   0.087   1.284  0.4461  0.0091  0.2799
 3358W        W19542   3.190   8.347  11.574  0.2314  0.1734 -0.0434
 3359W        W19543  15.465  11.058  10.204 -0.0161 -0.1627 -0.0073
 3360W        W19544  17.056  11.862   0.560  0.2164 -0.1121  0.2740
 3361W        W19545   5.287   8.507  11.826  0.2472  0.1980  0.3582
 3362W        W19546  15.558  13.844   0.406  0.0736 -0.1015 -0.1811
 3363W        W19547   2.850  10.849  11.609  0.0274 -0.2456  0.2823
 3364W        W19548   3.030  16.047  15.231  0.1005  0.0996  0.0784
 3365W        W19549  18.354   1.205  14.261 -0.0136  0.1179  0.0640
 3366W        W19550  12.173   7.408  15.324 -0.0884 -0.1637  0.2052
 3367W        W19551   2.579   8.061   4.358  0.0486  0.0138 -0.0278
 3368W        W19552  12.352   6.721   5.673 -0.4398  0.4392 -0.2343
 3369W        W19553   5.569   1.853   2.266  0.2243  0.0674 -0.0089
 3370W        W19554  12.484  11.386   4.576  0.2828 -0.0941 -0.0322
 3371W        W19555   6.428   8.896   1.546 -0.1490  0.1816  0.0734
 3372W        W19556  10.144   2.250  12.785 -0.0955  0.0654 -0.0125
 3373W        W19557  17.093   9.488   1.937  0.1063 -0.1642  0.0218
 3374W        W19558   4.056  10.275   0.490  0.1099  0.0993 -0.0984
 3375W        W19559   3.584  12.305  15.082 -0.0902  0.1784 -0.3256
 3376W        W19560  18.893   4.631   0.603 -0.2146  0.0664  0.1695
 3377W        W19561   8.258  17.296  14.424 -0.1013 -0.1154  0.1900
 3378W        W19562  18.527  18.731  11.147 -0.1814  0.0145 -0.1783
 3379W        W19563   0.501   6.589  14.483  0.2949 -0.0191 -0.0681
 3380W        W19564   5.683   9.132   2.371 -0.0599  0.5326 -0.1489
 3381W        W19565  11.866   8.502   0.621 -0.0737 -0.2634 -0.3596
 3382W        W19566   3.544  11.564   2.693 -0.2121  0.1023 -0.0374
 3383W        W19567  14.887   7.210  14.120 -0.1362  0.1164  0.0491
 3384W        W19568   2.989   8.768  15.322 -0.0537 -0.2436 -0.2086
 3385W        W19569  16.329  10.644   4.876 -0.1864 -0.2902 -0.0166
 3386W        W19570  13.222  11.362  10.515 -0.2727 -0.1012  0.0316
 3387W        W19571   9.235   4.019  13.331  0.2159 -0.1037  0.0858
 3388W        W19572  17.982   8.043   4.677  0.0700 -0.2568 -0.1283
 3389W        W19573   7.607  10.332   2.653  0.1805 -0.1004  0.1233
 3390W        W19574  14.598   0.661  10.955  0.3399 -0.0503 -0.0211
 3391W        W19575   4.793  10.310   3.451 -0.3176 -0.0313  0.4153
 3392W        W19576   1.799  14.465  14.480 -0.1239 -0.3684  0.0625
 3393W        W19577   4.648   1.002  12.260 -0.3108 -0.0117  0.2500
 3394W        W19578   9.320  12.538  12.466 -0.0996  0.3212 -0.1115
 3395W        W19579   3.737  18.494  10.636 -0.1612  0.0452  0.3998
 3396W        W19580   5.810  15.295  13.129  0.0452  0.0310 -0.2046
 3397W        W19581  11.330  14.521  14.948 -0.0375  0.0830  0.2926
 3398W        W19582  16.134  16.037   4.104 -0.1611  0.3319 -0.2774
 3399W        W19583  17.995   9.720   5.043  0.1327  0.1387  0.2450
 3400W        W19584   8.905  17.146  12.692  0.1857  0.1895  0.2614
 3401W        W19585   1.171  13.884   3.471  0.1518 -0.2772 -0.0027
 3402W        W19586  17.675  16.707   3.136  0.0768 -0.0134  0.0360
 3403W        W19587   7.339  11.627   5.487 -0.0365 -0.0810  0.0088
 3404W        W19588   9.287   2.226   0.892 -0.0227  0.1097 -0.0576
 3405W        W19589   3.605  14.280  13.351  0.0848  0.0075  0.3491
 3406W        W19590   1.925  13.040  13.381  0.0949 -0.4625 -0.4404
 3407W        W19591  17.725  14.878   0.493 -0.0608  0.1118 -0.1918
 3408W        W19592  18.024  18.742   3.032  0.0023 -0.1682  0.0714
 3409W        W19593   4.103  16.583   4.607 -0.4783 -0.0749 -0.0864
 3410W        W19594  18.122   2.718   4.389  0.0903  0.0427  0.1467
 3411W        W19595   7.606   6.805  10.791  0.1905 -0.2903  0.3588
 3412W        W19596   9.626  16.911  11.001  0.0650 -0.1230 -0.1178
 3413W        W19597   1.364   2.923  10.991  0.4113 -0.2110  0.4079
 3414W        W19598  12.605   3.570  13.360  0.0627  0.0992  0.2541
 3415W        W19599  15.936   5.016  13.357 -0.0393 -0.1442 -0.2923
 3416W        W19600  16.845  12.247   0.826  0.2494  0.2022 -0.1239
 3417W        W19601  13.238  17.234   1.161 -0.1266  0.0219 -0.1289
 3418W        W19602   3.752  18.973  10.726  0.2176  0.1512  0.3925
 3419W        W19603  14.752  15.207  14.709  0.1629  0.1925  0.3453
 3420W        W19604   1.012   7.116  10.950 -0.1336 -0.2206  0.0502
 3421W        W19605  16.055  16.931   4.553 -0.0720  0.1017 -0.0511
 3422W        W19606   9.290   0.215   2.774  0.1878 -0.2668  0.2303
 3423W        W19607  14.982  14.154  11.421  0.2065 -0.0131 -0.1927
 3424W        W19608  14.800  11.422   9.574  0.1510 -0.6066 -0.0332
 3425W        W19609   8.375  12.857  11.337 -0.2822  0.1730 -0.0801
 3426W        W19610  15.357  14.068   2.232 -0.0256  0.0036  0.1245
 3427W        W19611  10.713   1.763   4.978  0.1648 -0.2175 -0.2429
 3428W        W19612   1.164   5.597   3.311  0.1385 -0.2596  0.2542
 3429W        W19613   4.662  16.763   4.956 -0.0296 -0.1668  0.1175
 3430W        W19614  16.573  18.412   1.847  0.4111 -0.0992 -0.2417
 3431W        W19615  18.576  11.221   5.598  0.1263 -0.2213  0.1473
 3432W        W19616   3.252  11.180  15.373 -0.2941 -0.2430  0.0438
 3433W        W19617  13.753   1.449   3.744  0.2253  0.3976  0.1388
 3434W        W19618   6.135  13.650  12.625  0.2347 -0.0457  0.1090
 3435W        W19619   6.914   9.057  14.925  0.1444  0.1173  0.1465
 3436W        W19620   8.869   5.041  14.505 -0.1087 -0.1254  0.1278
 3437W        W19621  15.706  12.997  10.884 -0.0057 -0.0059  0.0119
 3438W        W19622   6.030   7.770  13.801  0.1701 -0.3112  0.1715
 3439W        W19623   7.430  13.531  12.627  0.2899 -0.2714 -0.0497
 3440W        W19624   6.963   2.203  11.681  0.0895 -0.3024  0.4191
 3441W        W19625  16.562  15.806  12.523  0.2993 -0.1043 -0.2004
 3442W        W19626   4.408  14.105  15.009 -0.0616 -0.1274 -0.0853
 3443W        W19627  13.760  17.418   1.233 -0.0031  0.5137  0.1251
 3444W        W19628   6.017  16.761  12.613  0.1666  0.0232  0.0745
 3445W        W19629  14.006  18.446   1.312 -0.1089  0.1443 -0.4370
 3446W        W19630   8.623   1.633  11.002 -0.0361 -0.4144 -0.1065
 3447W        W19631  18.462   2.515   5.169  0.0544 -0.1516  0.2190
 3448W        W19632   0.740  12.905  11.840  0.1189 -0.0560 -0.1193
 3449W        W19633  15.610  14.338  12.938  0.3527 -0.0818  0.0833
 3450W        W19634   0.406  11.616  13.729  0.0216 -0.1469 -0.3191
 3451W        W19635   0.571  12.795  12.325  0.2667 -0.2443  0.1300
 3452W        W19636  12.075   6.115  14.268  0.3495  0.1158  0.2808
 3453W        W19637   6.717  18.712   1.997  0.0254 -0.1708 -0.1875
 3454W        W19638  13.892  16.783  11.173 -0.2346 -0.2010 -0.0943
 3455W        W19639  14.083  11.610  11.125 -0.1934  0.1577  0.3745
 3456W        W19640  17.622  10.117  14.628 -0.0071  0.0815 -0.1467
 3457W        W19641   0.842  14.253   1.471 -0.1072  0.2331  0.0167
 3458W        W19642  18.961  17.600   2.485 -0.2980 -0.1864 -0.0069
 3459W        W19643   3.570   9.257   2.499  0.0023  0.1022  0.1456
 3460W        W19644  13.166   5.064   2.427  0.1971 -0.1554  0.1715
 3461W        W19645   1.331   1.208  12.528  0.0376  0.1997  0.2411
 3462W        W19646   5.770   5.452  13.224 -0.2024 -0.0477 -0.1301
 3463W        W19647   9.313   8.818   3.039  0.1258 -0.1650  0.2378
 3464W        W19648   8.968   8.150   3.963  0.2047  0.1391 -0.3369
 3465W        W19649  10.284  17.441   4.137  0.1022  0.0164  0.2069
 3466W        W19650  10.137  18.656   3.935 -0.1178 -0.0382 -0.0293
 3467W        W19651   0.318   8.816   1.812  0.0389 -0.1131 -0.1588
 3468W        W19652   5.730  13.090  14.738 -0.4527 -0.2512 -0.1854
 3469W        W19653  10.506  15.825  13.847  0.1378  0.0484 -0.0439
 3470W        W19654   6.913   7.132   1.095 -0.2569 -0.1876 -0.2527
 3471W        W19655   4.187   5.030  12.562 -0.1018  0.0934  0.3259
 3472W        W19656   2.657   9.230   0.462 -0.0267 -0.0778 -0.2510
 3473W        W19657   4.268  12.287   2.486  0.1797 -0.1080  0.2007
 3474W        W19658   7.084   1.167  14.793 -0.0524  0.2183  0.1337
 3475W        W19659  11.659   2.014  12.055  0.0978 -0.1537 -0.0662
 3476W        W19660   7.776   8.432  10.416 -0.0047  0.1827 -0.2343
 3477W        W19661   7.615  10.646   0.332 -0.0999  0.0421  0.0859
 3478W        W19662   8.492  16.409  10.046 -0.1387  0.1620  0.0680
 3479W        W19663  11.418   0.999  13.902 -0.1386  0.0001 -0.0875
 3480W        W19664  17.623   8.444   2.105  0.1088  0.1202 -0.0014
 3481W        W19665  17.820  18.697  11.617  0.1115  0.3449  0.1728
 3482W        W19666   5.917  10.622   1.335  0.0383  0.1388 -0.0865
 3483W        W19667  16.423   1.735   1.965 -0.0284  0.1178 -0.1201
 3484W        W19668   0.880   0.434  10.722  0.2922  0.0783  0.1159
 3485W        W19669  12.718  11.499  10.146  0.1727  0.0060  0.1708
 3486W        W19670   8.868  17.893   3.090 -0.2069 -0.0851  0.2396
 3487W        W19671   9.992   7.367   5.033  0.3040  0.1366 -0.1565
 3488W        W19672   5.858   3.499   3.237 -0.1554 -0.0561  0.0551
 3489W        W19673   7.176  14.240  10.322  0.1455 -0.0025  0.2556
 3490W        W19674   2.085  16.789   2.908  0.2491  0.1213  0.2262
 3491W        W19675  13.924   1.868   4.917  0.0824 -0.1107  0.0002
 3492W        W19676   4.040   9.316   4.027  0.1072 -0.0654 -0.0708
 3493W        W19677  10.997   1.959  15.184  0.0543 -0.0567 -0.0214
 3494W        W19678   4.395  10.240  12.534 -0.1720  0.0385  0.1090
 3495W        W19679  10.914   0.987   3.470  0.1585 -0.2016 -0.0765
 3496W        W19680   0.922   4.425   0.056  0.3314 -0.0958  0.0888
 3497W        W19681   1.658  12.903   2.131  0.0947 -0.1558  0.0844
 3498W        W19682   3.073   1.579   3.711 -0.1360 -0.1260  0.0989
 3499W        W19683  15.048   0.633   4.543 -0.0279 -0.2394 -0.3026
 3500W        W19684   7.258   4.928  13.699  0.1474 -0.1524 -0.2137
 3501W        W19685   3.458  10.459  12.466 -0.1953 -0.1593 -0.1962
 3502W        W19686   1.192  17.207   0.504  0.1273  0.1658  0.1919
 3503W        W19687   3.900   2.053   0.368 -0.1445  0.2243 -0.0207
 3504W        W19688  12.310  12.651  13.726 -0.0435  0.0802  0.2255
 3505W        W19689  14.207   2.939   0.546 -0.2087  0.1622 -0.3003
 3506W        W19690  11.915  16.399   3.623  0.1101 -0.2846  0.0467
 3507W        W19691  15.014  17.228   2.809  0.0206 -0.0392 -0.2697
 3508W        W19692  15.778  13.386   2.608  0.1597 -0.3753  0.0301
 3509W        W19693  11.774  18.273   1.305  0.1099 -0.1265 -0.2364
 3510W        W19694  10.101  10.050   0.591  0.1441  0.3668 -0.1168
 3511W        W19695   9.283   7.371   0.763 -0.3935 -0.0760 -0.0902
 3512W        W19696  14.777   0.562  15.087 -0.0301 -0.1453  0.2105
 3513W        W19697   3.541  15.103   0.087 -0.3162  0.0177  0.0415
 3514W        W19698  12.195   6.141   4.808  0.0262 -0.1003  0.2193
 3515W        W19699  13.023   2.190  11.840 -0.0928  0.0908  0.0664
 3516W        W19700   8.755   3.511  15.246 -0.1842  0.1644  0.0561
 3517W        W19701   9.664   2.579  14.004  0.2072  0.1089  0.0498
 3518W        W19702  16.199  16.594   0.110  0.0417 -0.1270  0.1107
 3519W        W19703   5.136   0.828   5.517  0.1468 -0.1205  0.0686
 3520W        W19704   5.252   3.361  12.399 -0.0002  0.1155 -0.1658
 3521W        W19705   6.688  13.349   2.384 -0.1733  0.0848 -0.1122
 3522W        W19706   0.636  17.936  14.850  0.2801 -0.0142 -0.3516
 3523W        W19707  13.483  14.049   5.242 -0.1271  0.1815  0.1744
 3524W        W19708   4.469   5.565   2.057 -0.2873  0.1653  0.1106
 3525W        W19709   3.981  18.417   1.998  0.1140  0.3398  0.2338
 3526W        W19710  16.299   9.438  14.462  0.0678  0.1697  0.1383
 3527W        W19711  15.718  13.565  14.903 -0.2854  0.2302  0.1081
 3528W        W19712   0.954  17.654   0.514  0.2587  0.1608 -0.5315
 3529W        W19713  18.963  17.759   5.244  0.0514 -0.1742 -0.0824
 3530W        W19714  15.426  17.707  10.442 -0.2175 -0.4581  0.1957
 3531W        W19715   2.370   2.525   5.432  0.3953  0.3919 -0.1772
 3532W        W19716   2.224   0.050  13.614  0.2588 -0.0411 -0.2886
 3533W        W19717   6.983  18.630  11.227 -0.0491 -0.0709 -0.1921
 3534W        W19718   5.535   6.564   3.252 -0.3650  0.2281  0.3275
 3535W        W19719   9.064   5.930   0.382  0.0054 -0.0618 -0.0076
 3536W        W19720   2.399  13.371   2.759 -0.1305 -0.1009 -0.1814
 3537W        W19721   7.134  13.283   3.229  0.2204  0.0290 -0.2658
 3538W        W19722  10.116   3.346   2.266  0.1497  0.0237 -0.1341
 3539W        W19723  16.904   7.572   0.696 -0.0211 -0.1028  0.0100
 3540W        W19724  11.734  14.274  14.053  0.1172 -0.0389  0.1459
 3541W        W19725  14.204   7.378  14.073 -0.2084 -0.0424  0.2074
 3542W        W19726   0.716   7.222   5.586  0.0441  0.2054  0.0722
 3543W        W19727   2.455   8.227  10.921  0.3305 -0.1316 -0.2382
 3544W        W19728   3.193  18.512   0.302 -0.0196 -0.1557  0.0227
 3545W        W19729   1.740   7.304   4.147 -0.2742 -0.1851  0.4213
 3546W        W19730  17.499   1.258   3.750  0.1408  0.0191  0.1148
 3547W        W19731   8.450   4.767  13.158  0.0515  0.2297  0.3617
 3548W        W19732  16.179   8.809   4.645 -0.1348 -0.3984  0.0680
 3549W        W19733  11.247   9.963  13.540  0.0593  0.1181 -0.3420
 3550W        W19734  17.402   7.225   4.367  0.0598 -0.1003  0.0808
 3551W        W19735  14.243   6.164   3.074  0.0185  0.2734  0.0734
 3552W        W19736  16.710  16.947  13.285  0.2277  0.1275 -0.0869
 3553W        W19737   6.285  13.605  13.141  0.0256 -0.1272 -0.1006
 3554W        W19738  16.766  15.567   2.508 -0.2911 -0.1795  0.2736
 3555W        W19739   1.524   6.152   1.198  0.0162  0.0172 -0.0936
 3556W        W19740   3.433  12.729  12.445 -0.0822  0.0154 -0.0737
 3557W        W19741  11.030  16.341   1.141  0.2367 -0.2286  0.0305
 3558W        W19742  14.906   7.031   3.074 -0.1135 -0.1137 -0.0955
 3559W        W19743   8.607   6.314   1.620  0.0437  0.3252  0.3185
 3560W        W19744  18.364   1.357   3.842 -0.1433 -0.2716  0.0464
 3561W        W19745   3.975  16.591   2.475  0.0758 -0.1740  0.2666
 3562W        W19746  13.552   2.293  14.878 -0.2839 -0.1095 -0.1785
 3563W        W19747   8.217  11.210  10.044 -0.1487 -0.1884  0.1855
 3564W        W19748  11.685  18.323  12.569 -0.0610  0.0729 -0.0137
 3565W        W19749   7.281  12.179  11.876  0.1165  0.2008  0.1135
 3566W        W19750   8.467   2.278   3.505  0.0955 -0.5421 -0.1594
 3567W        W19751  16.870  17.107  15.213 -0.2470 -0.3430 -0.2159
 3568W        W19752   4.961   9.668   3.115 -0.0698 -0.2448  0.1955
 3569W        W19753   7.233   5.188  11.395 -0.1512  0.0241 -0.1079
 3570W        W19754   1.337  12.701  11.103  0.1882  0.0245 -0.1147
 3571W        W19755   6.322   5.858  14.348  0.3689 -0.0418 -0.5380
 3572W        W19756  10.617  16.663  11.236 -0.0691  0.4518 -0.1181
 3573W        W19757   3.322   3.189  11.770 -0.2741  0.4335  0.0817
 3574W        W19758   2.833   2.368   1.227 -0.1115 -0.1265 -0.1798
 3575W        W19759   7.566  10.418   0.851  0.4347  0.0515  0.0836
 3576W        W19760  10.917   3.469  11.666  0.1971  0.0503  0.2476
 3577W        W19761  14.893  13.969  11.931  0.4532 -0.1473 -0.1390
 3578W        W19762   2.644  12.269  13.255  0.1912  0.1437  0.0639
 3579W        W19763   5.372  18.039  11.149  0.0942  0.0668 -0.1599
 3580W        W19764   0.133   5.574  11.849  0.2617 -0.1747 -0.0813
 3581W        W19765   3.725   0.513  10.581 -0.0535  0.1556 -0.3804
 3582W        W19766   3.625   2.347  12.134 -0.1805  0.2670  0.1705
 3583W        W19767   8.245   8.025   3.315  0.1384  0.2059  0.2334
 3584W        W19768  11.117   0.594  12.235 -0.0280 -0.1534  0.1215
 3585W        W19769   8.018  12.151   1.492 -0.1158 -0.0500  0.5505
 3586W        W19770   9.326  12.944   2.045 -0.4986 -0.2144  0.0750
 3587W        W19771   3.048   1.161   0.682  0.1606 -0.0698 -0.0080
 3588W        W19772  15.647   7.025   2.194  0.1071  0.1420  0.0230
 3589W        W19773   9.583  16.007   2.989  0.1770  0.1926  0.2202
 3590W        W19774   2.080   6.569   5.690 -0.0189  0.1105  0.2383
 3591W        W19775   3.543   9.315  13.874 -0.4549 -0.2014  0.0934
 3592W        W19776  14.210   1.727   1.170 -0.2008  0.4021 -0.0075
 3593W        W19777   9.777  10.719   9.938  0.1806 -0.0940  0.0570
 3594W        W19778  13.476   5.481  11.147  0.0836 -0.1313 -0.1924
 3595W        W19779  14.064   3.453  14.035 -0.2646  0.2877  0.1588
 3596W        W19780  11.643   2.357   0.920 -0.3819  0.1245  0.0693
 3597W        W19781   4.898  17.365   3.777  0.1962  0.2422 -0.2509
 3598W        W19782  15.714   9.177   3.896  0.2704 -0.0784  0.0266
 3599W        W19783  11.821   3.997   4.081  0.1704 -0.0626  0.1120
 3600W        W19784  16.481   4.620   3.011 -0.0599  0.1298 -0.1619
 3601W        W19785  16.949  18.724  14.260 -0.2678 -0.0369 -0.1095
 3602W        W19786   0.328  17.256  11.838  0.0511  0.1830 -0.2205
 3603W        W19787   4.453  18.734   2.024 -0.4975 -0.1238 -0.2985
 3604W        W19788  11.328   0.255  10.069 -0.4002  0.0736 -0.0903
 3605W        W19789   7.366   7.785  11.731  0.2791  0.1982 -0.1183
 3606W        W19790   8.948  17.761  11.603 -0.4020  0.1822  0.2756
 3607W        W19791  15.968   8.360  14.053  0.3569  0.0255  0.0212
 3608W        W19792  16.216  17.728   4.565 -0.3246 -0.2675 -0.1473
 3609W        W19793  16.117   2.109   3.109 -0.0063 -0.0605  0.0133
 3610W        W19794  18.614   6.442   4.647 -0.0976 -0.0297 -0.1163
 3611W        W19795  15.759   4.705  10.065  0.0278 -0.2032  0.2868
 3612W        W19796  10.308  17.666   1.149 -0.1970  0.0614  0.1505
 3613W        W19797  16.143   2.749  14.135  0.2455  0.3099  0.4632
 3614W        W19798   0.749   4.227  12.144 -0.0399  0.0485  0.1713
 3615W        W19799  14.474  14.338  15.082 -0.0829  0.0386  0.1348
 3616W        W19800  14.226  14.480  14.645  0.0902  0.4780 -0.1698
 3617W        W19801   5.598   0.668  14.147 -0.2541 -0.0254  0.0862
 3618W        W19802  10.943   6.103   3.764  0.0762  0.1482 -0.2156
 3619W        W19803   5.664   5.703  10.357  0.0074  0.2406 -0.0941
 3620W        W19804   3.356  16.898   0.018  0.0641 -0.0559  0.0791
 3621W        W19805   2.898  10.322   2.766 -0.0531 -0.0881 -0.1461
 3622W        W19806   0.141   0.289   2.152 -0.1245 -0.4656 -0.2229
 3623W        W19807  16.719   8.750   2.539 -0.1607 -0.1471 -0.1035
 3624W        W19808  14.997   6.218  12.977 -0.0095  0.1716  0.0922
 3625W        W19809   2.380   8.401  14.154  0.0659  0.1778 -0.0445
 3626W        W19810  11.757  14.984   5.189 -0.5627 -0.0229  0.0451
 3627W        W19811   0.709   1.302   4.548 -0.0522  0.1981  0.1479
 3628W        W19812   0.801   4.570  10.289  0.1707 -0.1382  0.0466
 3629W        W19813   1.132   2.026   4.405  0.1578  0.0309 -0.0394
 3630W        W19814   4.497   5.061  13.909  0.4219  0.2292 -0.1047
 3631W        W19815   6.358  12.085  14.729  0.0195  0.1666 -0.2694
 3632W        W19816  10.654  14.391   3.338  0.0923 -0.0249 -0.4872
 3633W        W19817   7.630  10.211  14.614 -0.1638  0.1519 -0.5551
 3634W        W19818  12.109   1.225   2.454  0.1313  0.1554  0.2806
 3635W        W19819  18.408  17.508   0.170  0.1319 -0.2213  0.2325
 3636W        W19820   3.257   6.268  14.656 -0.4549  0.0474 -0.1577
 3637W        W19821  17.254  14.091   1.227  0.0796 -0.2291  0.0249
 3638W        W19822   9.535   2.820   0.706  0.1408  0.1230 -0.0247
 3639W        W19823   0.730  17.668  13.315 -0.0276 -0.0270 -0.0165
 3640W        W19824  12.223  11.135  10.933  0.2998 -0.1785  0.2554
 3641W        W19825  15.756   4.405  11.771 -0.2871  0.0702 -0.0136
 3642W        W19826  13.431  11.588   2.607  0.1810  0.1111  0.3135
 3643W        W19827   0.794   9.770  11.655  0.0046  0.2274  0.2119
 3644W        W19828  13.273  16.208   3.068 -0.0289  0.0679  0.3654
 3645W        W19829   9.992  13.266  13.057 -0.0408  0.0080  0.1442
 3646W        W19830   7.547  15.269   3.423 -0.0390  0.0181  0.1300
 3647W        W19831  12.300  17.129  14.839  0.1529 -0.0531  0.1990
 3648W        W19832  10.716  12.702  13.419 -0.0662  0.4424 -0.1261
 3649W        W19833  11.230  17.542   2.240 -0.1074  0.1072  0.1431
 3650W        W19834   0.267  13.965  15.203  0.0124 -0.0785 -0.0208
 3651W        W19835   1.171   0.285   4.849 -0.2751 -0.0729 -0.1869
 3652W        W19836  18.288  15.341   0.151  0.0382  0.3223 -0.0188
 3653W        W19837   1.205   5.980  11.606  0.1037 -0.0210 -0.1917
 3654W        W19838   5.530   6.294   4.625  0.0249 -0.3811  0.3140
 3655W        W19839   6.894   6.325  11.375  0.1811 -0.0319  0.3034
 3656W        W19840  15.703  13.177  13.394 -0.1711 -0.2528 -0.0520
 3657W        W19841  11.145   1.818  11.333 -0.0813 -0.3418  0.1013
 3658W        W19842  18.072   2.759  14.708 -0.0504 -0.2120 -0.2539
 3659W        W19843   7.389   5.722  14.675 -0.3376 -0.0686  0.1021
 3660W        W19844   1.000  12.527  11.499 -0.0054  0.0455 -0.0163
 3661W        W19845   5.662   9.414   1.961 -0.0223  0.3094  0.2693
 3662W        W19846   5.304   9.391  13.151  0.0026  0.1319  0.1234
 3663W        W19847  14.828  14.658   2.736  0.1435  0.2363  0.1335
 3664W        W19848   6.935   7.809  12.028 -0.0962 -0.0291 -0.2481
 3665W        W19849  15.194   4.614   0.770  0.0658  0.0028 -0.2629
 3666W        W19850   2.167  11.712   1.967  0.0599  0.2056  0.0777
 3667W        W19851   1.974  16.910   0.800  0.1252  0.2877 -0.0319
 3668W        W19852   2.211  12.563  15.208 -0.0896 -0.2040 -0.0041
 3669W        W19853  13.505   5.927  14.534  0.0956 -0.0497  0.2831
 3670W        W19854  14.461  13.607  12.648  0.2650  0.1670 -0.0983
 3671W        W19855   6.896   1.653   0.044  0.2250  0.0293  0.2245
 3672W        W19856   4.059  14.644  14.045 -0.0156 -0.0794 -0.2183
 3673W        W19857   8.860  12.117   2.126  0.3309 -0.2221  0.2053
 3674W        W19858   6.556  13.823   2.550  0.2984  0.0068  0.4595
 3675W        W19859  10.507  14.782  13.108 -0.1294  0.0005  0.1467
 3676W        W19860   2.898   5.876  13.949  0.1976 -0.1083  0.0365
 3677W        W19861  16.678  14.327  12.961 -0.0671 -0.0777  0.1501
 3678W        W19862  17.602  13.901   2.092 -0.0043  0.2003 -0.2666
 3679W        W19863  18.145  14.548   0.385 -0.0263  0.0221  0.1496
 3680W        W19864  17.691   8.634   3.941  0.1578 -0.1633 -0.2364
 3681W        W19865  10.336  11.084  14.902  0.0849 -0.1444 -0.2228
 3682W        W19866  15.494  15.436   2.121  0.0868 -0.2061 -0.0009
 3683W        W19867  10.166   9.100   2.514  0.2371 -0.0630  0.1988
 3684W        W19868  17.454  14.942  13.531  0.1906 -0.2498 -0.0890
 3685W        W19869   0.389  15.556  11.769  0.2174  0.2183 -0.2941
 3686W        W19870   7.527  17.375  11.320  0.0374 -0.2209 -0.4058
 3687W        W19871  17.839  17.539  13.962  0.3661 -0.1270 -0.2077
 3688W        W19872   5.299   9.723   4.047  0.0549 -0.2241  0.0671
 3689W        W19873  11.010  13.511   2.539  0.1178 -0.0244 -0.0465
 3690W        W19874  10.417   6.635   0.319 -0.0146  0.2960 -0.0533
 3691W        W19875  17.265   2.925   5.916 -0.1348  0.0428 -0.2767
 3692W        W19876   8.065   7.153   0.675 -0.3223 -0.3169 -0.1573
 3693W        W19877  11.106   0.072   0.541 -0.0708  0.2317 -0.0188
 3694W        W19878  12.627  18.044  13.923  0.0284 -0.2596  0.6348
 3695W        W19879   2.643  14.312  12.221 -0.3082 -0.0507 -0.5437
 3696W        W19880   4.222  18.559  12.930 -0.1058 -0.1826  0.1059
 3697W        W19881   1.440  15.769  10.941  0.2171  0.1178 -0.0397
 3698W        W19882  18.723  14.479  13.013  0.3824 -0.2325 -0.1257
 3699W        W19883   7.047  17.386   2.481  0.1484  0.0857 -0.1388
 3700W        W19884  18.515   8.893   2.337 -0.0157  0.0943  0.1977
 3701W        W19885   3.928  17.258  12.690 -0.2663  0.1464 -0.4790
 3702W        W19886  16.358   6.282  10.557  0.0423  0.0019  0.0215
 3703W        W19887   9.775  11.937  15.165  0.2019 -0.3346  0.1989
 3704W        W19888   1.812   3.588   3.912  0.2099  0.2660  0.2261
 3705W        W19889   3.710   3.464   4.212 -0.0655  0.1805 -0.1538
 3706W        W19890   9.170   0.821  13.470 -0.0019 -0.1600 -0.1132
 3707W        W19891  15.001  10.427  10.622 -0.1410 -0.1687  0.3709
 3708W        W19892   9.113  11.816   2.535  0.1327  0.0088 -0.0985
 3709W        W19893  12.724   6.160   0.614 -0.1827  0.1744 -0.0152
 3710W        W19894   3.965   9.287  13.369  0.0484  0.1067  0.3258
 3711W        W19895   9.459   1.091   2.720 -0.1208  0.1974 -0.0264
 3712W        W19896   5.709   5.760   3.749 -0.2070 -0.0100 -0.0791
 3713W        W19897  14.468   3.173   1.813  0.2847  0.0856 -0.1879
 3714W        W19898  15.001   4.999  12.541 -0.1866 -0.0403  0.3275
 3715W        W19899  18.687   0.915   1.747 -0.2159 -0.0466  0.0077
 3716W        W19900  10.074   0.973  14.268 -0.3364 -0.0576  0.2572
 3717W        W19901  10.270  11.454   4.415 -0.2778 -0.2245 -0.1233
 3718W        W19902   9.833   2.257  11.224 -0.0969  0.0280  0.1499
 3719W        W19903  18.219   1.912   3.598 -0.0968 -0.1483  0.0555
 3720W        W19904   9.783   0.871  11.134  0.3359 -0.4016 -0.0496
 3721W        W19905   7.793   4.094  13.127 -0.0337  0.1524 -0.1205
 3722W        W19906  10.192   0.760  11.400 -0.0551 -0.0688 -0.1996
 3723W        W19907   1.884   8.376   1.849 -0.1622  0.1827  0.2329
 3724W        W19908   2.835  16.406   3.173 -0.0645 -0.1283 -0.1250
 3725W        W19909  17.487  15.305  13.926 -0.0978  0.2765  0.3067
 3726W        W19910   6.653   5.828  13.320 -0.0799  0.1080  0.0024
 3727W        W19911   0.162  11.815  13.243 -0.1644 -0.1721  0.2013
 3728W        W19912  13.055   0.094  13.792 -0.0546 -0.2730  0.1453
 3729W        W19913  11.976  10.659   4.561 -0.0064 -0.0222 -0.0614
 3730W        W19914  13.591   7.162   1.579  0.1325 -0.1640  0.5066
 3731W        W19915  13.631   6.637   1.555  0.0236 -0.0055 -0.1089
 3732W        W19916   6.315  10.853  11.928 -0.1570 -0.3473 -0.0724
 3733W        W19917  12.954   3.634  12.569  0.0723  0.2755  0.0717
 3734W        W19918  14.837  10.235   2.557  0.1143  0.1190  0.0291
 3735W        W19919  16.513  14.680   3.396 -0.2063 -0.0397 -0.2391
 3736W        W19920  11.811   2.350  14.830  0.1715 -0.1425 -0.0365
 3737W        W19921   2.373   6.832  10.783 -0.0388 -0.0066  0.1407
 3738W        W19922   8.073   9.800  11.636  0.0584  0.0579  0.1265
 3739W        W19923   5.983   9.557   3.035 -0.0104  0.0294  0.0017
 3740W        W19924   7.905   9.581   1.556 -0.1574  0.2786 -0.4103
 3741W        W19925   7.570  11.449   0.013 -0.0385 -0.0180 -0.2027
 3742W        W19926   4.071  15.680  14.364 -0.0243 -0.0615 -0.1114
 3743W        W19927  14.898   0.694   3.673  0.0909 -0.0282  0.2564
 3744W        W19928  11.629  14.299   1.578 -0.1013 -0.1412  0.3179
 3745W        W19929  12.993   7.713   1.247  0.0990 -0.2718  0.0725
 3746W        W19930   9.482   5.077  15.039 -0.2287 -0.1698  0.0674
 3747W        W19931  10.007  12.260  11.142 -0.1765  0.2437 -0.4132
 3748W        W19932   4.503   7.457   5.303  0.0765  0.0963  0.0610
 3749W        W19933   0.139   9.302   0.234  0.2224 -0.0557 -0.2551
 3750W        W19934  15.526   6.310   2.797 -0.0137  0.2254 -0.5100
 3751W        W19935  18.941   2.733  10.644  0.0745 -0.2578  0.1170
 3752W        W19936  12.161  11.645  14.019  0.2003 -0.0748  0.0478
 3753W        W19937   9.850   2.529   4.038  0.0778 -0.0748 -0.0246
 3754W        W19938  17.733  12.509   3.788  0.1675  0.0941 -0.4339
 3755W        W19939  13.498   4.970   3.005 -0.2424  0.2379  0.1062
 3756W        W19940  12.516   3.681  12.862 -0.5286  0.3120  0.1370
 3757W        W19941  16.537   4.389   3.945  0.0004  0.0655  0.2557
 3758W        W19942  13.604   3.354  13.686 -0.2269 -0.0374  0.0967
 3759W        W19943  14.355   1.751   3.134 -0.3906 -0.1215  0.1421
 3760W        W19944  12.660   7.747   0.471  0.0849  0.3286  0.0546
 3761W        W19945  18.218  16.998  15.153 -0.0240  0.6108  0.3039
 3762W        W19946   2.091  12.590  12.014  0.0294  0.2023 -0.0397
 3763W        W19947  15.071  15.603   2.564  0.2708 -0.1320  0.1592
 3764W        W19948   6.985  10.204  15.374  0.3067 -0.3877  0.1133
 3765W        W19949  12.657   6.686  10.662 -0.3635  0.1681 -0.0537
 3766W        W19950   3.247   4.751   3.055  0.0486  0.6053 -0.0350
 3767W        W19951  15.188  18.285   0.171  0.1225 -0.1740  0.2806
 3768W        W19952  16.870  10.998   4.676  0.1992  0.0807 -0.2081
 3769W        W19953   6.114   9.819   1.643  0.2324 -0.0018 -0.2282
 3770W        W19954  18.023   3.131  15.034  0.0851  0.1822 -0.0411
 3771W        W19955  15.406   1.196  15.329  0.0769 -0.3011 -0.1328
 3772W        W19956   3.370  11.788  12.232 -0.0547 -0.0026  0.0996
 3773W        W19957  18.222   0.951   3.167  0.0358  0.1662  0.1767
 3774W        W19958  11.698  16.560   0.734 -0.1150  0.1177 -0.3086
 3775W        W19959  18.741   3.797   3.276 -0.2026 -0.4287 -0.0527
 3776W        W19960   0.569   9.446   3.999 -0.1439 -0.0195  0.1372
 3777W        W19961  18.657  17.991  14.588 -0.1045 -0.1023  0.3758
 3778W        W19962   7.223   2.984   2.940  0.0575 -0.0702 -0.1713
 3779W        W19963   7.589   4.855  11.163 -0.0165 -0.0209 -0.3692
 3780W        W19964   6.264  10.989  14.171 -0.3171 -0.1857 -0.0682
 3781W        W19965   2.199   5.797   0.248 -0.1334 -0.0333  0.0203
 3782W        W19966  10.926   6.827   1.069  0.1842 -0.1671 -0.0887
 3783W        W19967  14.964  17.792   1.640  0.2966 -0.1676 -0.1399
 3784W        W19968  11.443   9.713   3.288  0.0598 -0.1127 -0.0003
 3785W        W19969   8.282  12.011   4.147  0.0760 -0.0671  0.3032
 3786W        W19970   2.506  16.770  11.887  0.1089  0.1170 -0.0819
 3787W        W19971   2.305   2.772  10.080  0.3155 -0.2044 -0.2407
 3788W        W19972  15.441   2.750   2.967 -0.0513 -0.0123 -0.3235
 3789W        W19973   5.752  15.994   1.418  0.1015  0.3836 -0.2739
 3790W        W19974   7.384  15.166   1.629  0.0141 -0.0298 -0.2467
 3791W        W19975   3.874  12.925  14.461  0.2759  0.0415  0.0480
 3792W        W19976   6.049   2.007   1.558  0.1581  0.0940  0.1014
 3793W        W19977  13.624   1.719   4.151  0.3822 -0.2439 -0.1107
 3794W        W19978  15.473   8.848  14.914 -0.0599  0.0307  0.1594
 3795W        W19979   6.277   7.744  14.906 -0.1735 -0.0697  0.1687
 3796W        W19980   5.920   3.117  13.409 -0.1664 -0.2135 -0.2016
 3797W        W19981   8.573   6.252  10.949  0.0812  0.0814 -0.0428
 3798W        W19982  12.166  11.129   0.443 -0.2989 -0.0382 -0.2688
 3799W        W19983   1.704   1.151  11.827 -0.1236  0.0559 -0.1273
 3800W        W19984   6.586  18.029   9.940 -0.0527  0.2182 -0.0246
 3801W        W19985  15.834  10.928   2.140  0.0431  0.0837  0.1780
 3802W        W19986   8.106   5.594  11.677  0.3332  0.2687  0.2059
 3803W        W19987  17.615   0.705   4.513  0.0447 -0.0235  0.3473
 3804W        W19988  13.438   7.573   4.912 -0.1295  0.2172  0.0847
 3805W        W19989   0.499  16.453   3.838  0.0639  0.2326 -0.0680
 3806W        W19990   3.333  10.473  12.925 -0.0213  0.0571  0.2289
 3807W        W19991  14.876   3.138   5.547 -0.0726  0.1921 -0.0408
 3808W        W19992   7.261   7.382   5.507  0.0670  0.3721 -0.1459
 3809W        W19993   8.962   2.288  13.501  0.0728  0.2201 -0.0482
 3810W        W19994   9.548   8.183  12.331  0.1406 -0.1982  0.2106
 3811W        W19995   9.652   1.626   1.439  0.0123  0.3189 -0.2215
 3812W        W19996   1.657   0.655  11.693  0.4646  0.0973 -0.0362
 3813W        W19997   0.780   8.200   4.876 -0.0722 -0.1750 -0.0015
 3814W        W19998   6.533   7.661  13.648 -0.0142 -0.0073  0.2978
 3815W        W19999  13.062   4.278   0.906  0.2911  0.0166  0.1783
 3816W        W20000   5.048  10.483   2.803  0.0101 -0.0277 -0.1025
 3817W        W20001  13.049  10.543  13.974  0.1685 -0.6780  0.0823
 3818W        W20002   2.995   6.591  13.132  0.1126  0.1567 -0.0575
 3819W        W20003   2.146  18.310  13.386  0.3603  0.2344  0.3028
 3820W        W20004   4.651  15.226  11.440  0.0609  0.1459  0.0152
 3821W        W20005   9.276   5.949  15.309 -0.0366 -0.0619 -0.0392
 3822W        W20006   2.435   1.023  15.270 -0.1333  0.0733  0.0592
 3823W        W20007  10.618  18.206   5.229 -0.1798  0.3526  0.1352
 3824W        W20008   3.529   6.624   2.740 -0.2053  0.1032 -0.0695
 3825W        W20009  14.272  13.349  11.520 -0.0309  0.0474  0.3548
 3826W        W20010   9.902   1.792   2.088 -0.2890  0.0273  0.0588
 3827W        W20011   8.643   7.684   5.515 -0.1713 -0.1294 -0.0682
 3828W        W20012   1.218   2.368   0.500 -0.0157 -0.1115 -0.0002
 3829W        W20013   7.374   7.613  13.918 -0.0066 -0.0662  0.1401
 3830W        W20014   0.343  11.103   2.259  0.0946 -0.0909 -0.0034
 3831W        W20015  17.131   0.565  13.176  0.1866  0.4781 -0.0551
 3832W        W20016   9.816   3.242   4.892 -0.3685 -0.3260  0.0641
 3833W        W20017   4.807   0.152  14.449 -0.0418  0.0392  0.1283
 3834W        W20018   5.077   8.920   0.922 -0.1318  0.1697 -0.0055
 3835W        W20019   1.795  10.570   2.156  0.1061 -0.0194 -0.2110
 3836W        W20020   9.551  17.892   5.038 -0.0854  0.1041 -0.0101
 3837W        W20021   1.813  15.977   2.264 -0.0071  0.0367  0.1983
 3838W        W20022   9.756  15.252   4.852  0.3065 -0.2483 -0.0545
 3839W        W20023   8.711  15.550  12.217  0.1500  0.1821 -0.0966
 3840W        W20024  17.988  10.527   3.402  0.0234  0.3507 -0.1090
 3841W        W20025   8.753   1.742  13.456 -0.1554  0.1085  0.1461
 3842W        W20026  11.289  11.057  11.991  0.1535  0.0803  0.0514
 3843W        W20027   1.546   3.096  12.641 -0.2622  0.1231  0.0591
 3844W        W20028  18.234  13.849  11.548  0.0332  0.0597 -0.2077
 3845W        W20029  11.535   6.507   9.647  0.1743  0.1258 -0.0318
 3846W        W20030   4.621   6.220   3.243 -0.2502  0.2097 -0.0349
 3847W        W20031  17.284  16.497  11.115  0.1910 -0.0698 -0.0251
 3848W        W20032  12.906   4.822  12.073 -0.1835 -0.0187 -0.0043
 3849W        W20033  11.432  16.655  14.024  0.0009 -0.0253  0.0941
 3850W        W20034  12.906  18.835  12.102  0.2220  0.1080  0.1250
 3851W        W20035   2.661  17.727  13.802  0.3437  0.1473 -0.1295
 3852W        W20036   6.217   2.033  10.921 -0.0247 -0.0844  0.4192
 3853W        W20037   9.312  13.010   1.496 -0.1136  0.0299 -0.3118
 3854W        W20038  12.676  13.939   1.355  0.2132  0.2442  0.1627
 3855W        W20039   0.356   8.372   3.940 -0.0635 -0.0536  0.3080
 3856W        W20040  13.569   0.056   4.859  0.0892  0.0950  0.0405
 3857W        W20041  12.763  14.514  12.437 -0.1186 -0.1855  0.1694
 3858W        W20042  14.712   2.077  14.542  0.0567  0.2553  0.1445
 3859W        W20043   1.433   8.830  11.049 -0.0094  0.0739 -0.0420
 3860W        W20044   1.865   2.295  13.108 -0.1091 -0.0077 -0.0645
 3861W        W20045   5.734  11.532  15.319  0.2332  0.1285  0.1754
 3862W        W20046   2.814   7.319  12.410 -0.0605 -0.1417 -0.1339
 3863W        W20047   6.073  12.939  15.106  0.1909 -0.0049  0.1789
 3864W        W20048  11.152   3.060  13.766  0.0567  0.3630  0.0534
 3865W        W20049  10.827   7.835   9.853  0.2116  0.0435  0.1401
 3866W        W20050   7.705  12.279  14.442  0.0281  0.0946  0.1873
 3867W        W20051  13.690   1.594   0.986  0.0324 -0.0754  0.0662
 3868W        W20052   8.562   1.650   1.951 -0.0199  0.0367 -0.2026
 3869W        W20053  15.020  16.161   2.590 -0.1377  0.0256 -0.1501
 3870W        W20054  12.934  16.695  15.164 -0.4414 -0.2796  0.1495
 3871W        W20055  14.760  17.248  11.609 -0.3124  0.0982 -0.3017
 3872W        W20056   5.328   0.602   4.661  0.2157 -0.0806  0.0269
 3873W        W20057  15.901   0.620   1.690 -0.0936  0.0518 -0.3615
 3874W        W20058   7.567   7.894  13.575  0.4341  0.3894  0.2057
 3875W        W20059  10.756   6.870  10.845 -0.0141  0.1764 -0.0926
 3876W        W20060  16.817   7.665   0.179 -0.0953 -0.3515  0.2018
 3877W        W20061  14.233   6.174  13.733  0.4404  0.1377 -0.1300
 3878W        W20062  16.764   8.126   3.551 -0.1460  0.3979 -0.1806
 3879W        W20063   1.836  10.044   9.818  0.1548  0.0886  0.0281
 3880W        W20064   9.859  17.558   2.040 -0.0481 -0.2738 -0.1350
 3881W        W20065  10.853   8.752   1.536  0.2679  0.0934  0.0019
 3882W        W20066  10.499   4.134   1.923  0.0613 -0.1726 -0.4004
 3883W        W20067   7.043  13.193   3.699 -0.2565 -0.3718 -0.1835
 3884W        W20068  13.396   3.930   0.897  0.0374  0.0671  0.0077
 3885W        W20069  16.422   4.836  13.499  0.2079 -0.0551  0.1250
 3886W        W20070   9.505   9.064  13.785 -0.1042 -0.0767 -0.1615
 3887W        W20071  15.505  12.610   0.474 -0.1196 -0.0395  0.3367
 3888W        W20072  10.042   4.838   3.257 -0.0391  0.0505 -0.1417
 3889W        W20073   3.932  11.474   4.551 -0.1407 -0.4919 -0.0489
 3890W        W20074  14.773  10.698   1.575  0.2729  0.1744  0.1901
 3891W        W20075  10.688   5.768   3.532 -0.0259  0.1889 -0.0061
 3892W        W20076  12.813  13.786   2.948 -0.0892  0.0955 -0.2251
 3893W        W20077  12.398   2.459   2.945  0.2593  0.0370 -0.1841
 3894W        W20078   6.030   7.984   3.240  0.1512  0.1126 -0.1459
 3895W        W20079   2.886   0.615   4.941 -0.2042 -0.3715  0.2091
 3896W        W20080  17.324   3.132   2.450  0.1146  0.1948 -0.1852
 3897W        W20081  17.560  14.862  10.528  0.1540  0.1392 -0.0051
 3898W        W20082  18.041  18.092   5.169 -0.1145 -0.3266  0.0083
 3899W        W20083  12.202  16.411   2.807  0.1370  0.0990 -0.0577
 3900W        W20084   8.605  16.189   0.235 -0.0307  0.0253  0.2503
 3901W        W20085  14.700   1.741   1.085  0.1003  0.0719  0.2263
 3902W        W20086   8.061   1.551   2.002  0.0358 -0.1613 -0.0596
 3903W        W20087  18.388  13.268   5.178 -0.0222  0.0513  0.2455
 3904W        W20088  12.804   8.603  12.877 -0.2813  0.1782 -0.0429
 3905W        W20089  16.603  11.641  14.224  0.1028 -0.2130  0.2063
 3906W        W20090  11.914   3.588   2.202 -0.1246  0.0818 -0.1667
 3907W        W20091   1.706  16.125  10.682  0.0428  0.2030 -0.0968
 3908W        W20092  10.678  16.095   4.327  0.1739  0.0708 -0.3750
 3909W        W20093  17.026   0.799   0.859 -0.3259 -0.0634  0.2454
 3910W        W20094   8.111  18.656  10.922 -0.1659 -0.3988  0.4483
 3911W        W20095  10.549   2.929   3.371 -0.0998 -0.1867 -0.0375
 3912W        W20096   3.573  12.397   4.160 -0.1796  0.3775 -0.0672
 3913W        W20097  14.682  11.374   3.324 -0.2477  0.0546 -0.0329
 3914W        W20098  14.149   7.930   0.434 -0.0730 -0.0562 -0.1026
 3915W        W20099   6.791  16.850   2.783 -0.1598  0.2057  0.0656
 3916W        W20100   8.673  10.534  11.230  0.0560  0.3170  0.2126
 3917W        W20101   0.455   7.048  12.930 -0.0967 -0.0229  0.2169
 3918W        W20102  12.157  14.192   1.294  0.0332 -0.1493  0.2538
 3919W        W20103  17.209  12.139  13.426 -0.0423  0.0017  0.2295
 3920W        W20104   5.079  14.596   2.451 -0.0701 -0.0264  0.0400
 3921W        W20105   5.518   6.904  13.353  0.2199  0.2999 -0.3230
 3922W        W20106  13.872   9.889   4.518 -0.3085  0.0110  0.0896
 3923W        W20107  11.393  15.776   3.476 -0.0009 -0.0437 -0.1550
 3924W        W20108  18.790   1.145  11.459  0.4705 -0.0714  0.1577
 3925W        W20109  15.331   2.879   4.138  0.0866  0.1602  0.2530
 3926W        W20110  16.715  11.780   0.926  0.0179  0.1073 -0.2005
 3927W        W20111   0.434  18.001   3.613  0.0550  0.1266 -0.3503
 3928W        W20112  13.557  11.317  14.404 -0.1169 -0.0430  0.0101
 3929W        W20113   2.222  10.336   5.726 -0.0740 -0.0718 -0.0824
 3930W        W20114   6.650  13.885  12.719 -0.1224  0.0151 -0.2845
 3931W        W20115  12.260  16.115  12.326  0.0623  0.3518  0.0490
 3932W        W20116   8.252  12.724   5.408  0.2417  0.2039  0.0023
 3933W        W20117  10.019   3.627  13.990 -0.0698  0.2824 -0.0440
 3934W        W20118   2.623  11.214   5.305  0.1674  0.1294  0.1025
 3935W        W20119  17.772   9.300  13.198  0.3011  0.0087  0.1400
 3936W        W20120  11.220   5.230  14.651 -0.0867  0.5584  0.0986
 3937W        W20121  10.641  17.085  13.661 -0.0599 -0.4680 -0.4782
 3938W        W20122  17.603  14.483  10.928 -0.2028 -0.3187 -0.0425
 3939W        W20123   6.037   2.225   0.212 -0.1851 -0.1760 -0.0707
 3940W        W20124   2.725  17.399   3.676  0.1919 -0.2708 -0.1597
 3941W        W20125  16.729  12.658   1.148  0.3453 -0.0731 -0.0354
 3942W        W20126   2.707  12.684   0.766  0.0812  0.0647  0.0012
 3943W        W20127   9.967  15.762  13.798 -0.1987 -0.0725 -0.1819
 3944W        W20128   3.607   1.796  10.413 -0.1300  0.1980  0.2579
 3945W        W20129   6.942  15.741   0.541 -0.2938 -0.2735 -0.1770
 3946W        W20130   0.871  10.282   0.960  0.0156 -0.0489 -0.0412
 3947W        W20131  15.250   8.087  11.426  0.1375 -0.0469 -0.2446
 3948W        W20132  17.976  12.121  11.542 -0.4233  0.0348 -0.0015
 3949W        W20133  16.210  13.484   0.304 -0.0466 -0.0245 -0.0519
 3950W        W20134  17.559  10.308   2.061 -0.0574 -0.1550 -0.1815
 3951W        W20135   1.959   1.584   3.955  0.1880  0.2738  0.3544
 3952W        W20136   6.382  17.315   2.850 -0.0382  0.7005 -0.1556
 3953W        W20137  18.544  18.024   0.523 -0.0331  0.0139  0.2038
 3954W        W20138   4.675  10.250   4.414  0.5389 -0.0800 -0.0248
 3955W        W20139   7.247   2.678  12.977  0.0973  0.1755  0.1798
 3956W        W20140   2.871  18.414  12.916  0.1821  0.1170 -0.1826
 3957W        W20141   6.443   0.498   2.049  0.1870 -0.0819 -0.2024
 3958W        W20142  18.692  12.296  12.095 -0.4467  0.3336 -0.0963
 3959W        W20143   9.177  11.559  14.556  0.1106 -0.2305 -0.0116
 3960W        W20144   1.282   6.435   2.371 -0.0448 -0.2976  0.2377
 3961W        W20145   9.436   0.663   3.046  0.0169 -0.2429  0.0441
 3962W        W20146  16.792  12.637   5.166  0.0977  0.1774  0.1121
 3963W        W20147   0.407   5.216  12.138  0.0899  0.2534 -0.2805
 3964W        W20148   8.182   6.274   0.917 -0.0590  0.0816  0.1150
 3965W        W20149  17.335  18.545  10.173 -0.1497 -0.1282 -0.1278
 3966W        W20150  11.935  10.526   0.544  0.0523 -0.1008 -0.1333
 3967W        W20151   4.486   9.373  12.039 -0.2130 -0.2149 -0.3339
 3968W        W20152   5.216  16.748   0.065 -0.1711 -0.1116 -0.0449
 3969W        W20153   3.728   9.866   4.401 -0.1653  0.1068 -0.1000
 3970W        W20154  10.156   9.123   4.498  0.0848 -0.1790  0.0722
 3971W        W20155   6.704  13.096   3.220 -0.0745  0.0473 -0.2468
 3972W        W20156   1.993   6.935   3.819  0.2134  0.2261 -0.2762
 3973W        W20157  16.354  15.258   0.866  0.3102 -0.1155 -0.0141
 3974W        W20158  17.549  16.380  10.685 -0.0897 -0.0447  0.3703
 3975W        W20159   9.189   9.870   0.942 -0.0577 -0.0891 -0.4670
 3976W        W20160  15.030  15.940   5.232  0.1243 -0.0533  0.3512
 3977W        W20161  17.103   3.067   3.352  0.0882  0.0658 -0.3281
 3978W        W20162   3.420  11.465  11.829 -0.3052  0.4095 -0.2582
 3979W        W20163   9.858   6.018   1.359  0.1729  0.2089  0.0380
 3980W        W20164  17.868  17.018  14.037  0.2439  0.1090 -0.2039
 3981W        W20165   3.824  13.499  11.682  0.1574  0.1140 -0.1049
 3982W        W20166   8.220   3.787  14.127 -0.2370  0.1047 -0.1028
 3983W        W20167  14.320   5.297  12.706  0.2654  0.1335 -0.0031
 3984W        W20168   1.674   6.944   6.053  0.2327 -0.4125  0.1172
 3985W        W20169  16.465   0.672   4.454  0.0129  0.1320 -0.0858
 3986W        W20170  11.849  15.550  12.892 -0.0774 -0.1026  0.0857
 3987W        W20171  12.331  10.294  12.200  0.1769  0.2470  0.0837
 3988W        W20172   8.887   6.766  14.696 -0.3630 -0.0725  0.1270
 3989W        W20173  14.566  13.751  13.590 -0.2214 -0.1479  0.1729
 3990W        W20174   2.054  17.006  10.921 -0.2274  0.1423  0.3141
 3991W        W20175   0.196  10.944   4.650 -0.0470 -0.0419 -0.0502
 3992W        W20176  12.753   6.074   3.431  0.1840  0.0491  0.1528
 3993W        W20177   8.736  14.843   0.158  0.0587  0.0866  0.0277
 3994W        W20178   4.764   5.724  12.768 -0.1522 -0.2565  0.0357
 3995W        W20179  17.783   2.684  13.836  0.6646  0.0914 -0.0987
 3996W        W20180   0.885   0.185   2.856 -0.0506 -0.0129 -0.1424
 3997W        W20181  18.008  16.056   0.883  0.1449 -0.0417 -0.0452
 3998W        W20182   5.631   1.155  12.479 -0.1200  0.0167  0.3368
 3999W        W20183  12.327   6.919  12.677  0.1115  0.3577 -0.2321
 4000W        W20184  18.778   6.871   2.058 -0.1024  0.1839  0.0465
 4001W        W20185  16.788   4.762   2.615  0.1854 -0.0184 -0.0411
 4002W        W20186  17.619  16.356   0.108 -0.1387 -0.1379  0.0426
 4003W        W20187  17.838   4.184   2.814  0.1073 -0.1305  0.0622
 4004W        W20188   3.442   5.179   3.276  0.1498 -0.1925 -0.1536
 4005W        W20189  13.861  18.282   3.764 -0.0565 -0.2163  0.2446
 4006W        W20190  11.889  16.550  12.384 -0.0255  0.1709  0.2624
 4007W        W20191   7.864  16.949  14.230 -0.1137  0.2394 -0.0721
 4008W        W20192  13.606   8.320  11.499  0.3174 -0.0721 -0.0696
 4009W        W20193  15.101  12.344  14.861  0.0074 -0.2664 -0.1256
 4010W        W20194  11.142  17.307   3.307 -0.2390 -0.2393 -0.0041
 4011W        W20195  14.564   5.451  14.474 -0.0980  0.2539  0.0387
 4012W        W20196  12.909  11.570  12.556 -0.1085 -0.0136 -0.1131
 4013W        W20197  14.612   1.086  11.332  0.0219 -0.3581 -0.0301
 4014W        W20198  10.293  12.427   4.267 -0.1146 -0.1675 -0.3468
 4015W        W20199   9.626   3.851  11.280  0.0768 -0.1249  0.1475
 4016W        W20200  14.934  16.706   0.837  0.1407 -0.1776 -0.2552
 4017W        W20201   3.801  10.591   5.092 -0.0178 -0.1852  0.5656
 4018W        W20202  16.772  10.623  11.112 -0.1385 -0.2052 -0.0229
 4019W        W20203   8.141  10.754   9.925  0.0623 -0.0919  0.1732
 4020W        W20204  16.998  14.814   3.596 -0.1434 -0.0776  0.3103
 4021W        W20205  18.887   4.586   1.649 -0.0655  0.1027 -0.0855
 4022W        W20206   8.518   0.578  11.599  0.1932 -0.3048 -0.0775
 4023W        W20207  16.742  13.117   3.157 -0.1057 -0.2869  0.2345
 4024W        W20208   6.378  15.345   4.794  0.0604 -0.2679  0.1812
 4025W        W20209   3.131   9.075   1.300 -0.0518 -0.0014 -0.2847
 4026W        W20210   8.142   1.942  11.167  0.1005  0.2328  0.0454
 4027W        W20211   3.874   3.374  11.503 -0.2485  0.0153 -0.0125
 4028W        W20212   2.159  15.513   4.207 -0.0858  0.0014 -0.1222
 4029W        W20213  11.289   6.904  11.046  0.0888 -0.0314  0.1009
 4030W        W20214   4.242   6.239   3.885  0.3036  0.0256 -0.0649
 4031W        W20215   8.335  11.503  12.429  0.0989  0.1264  0.1715
 4032W        W20216  13.603   4.706   1.809  0.0493 -0.0794 -0.2045
 4033W        W20217   3.660  14.878  14.299 -0.1266 -0.2806 -0.0763
 4034W        W20218  16.459   1.442   5.628 -0.3327 -0.1150  0.3318
 4035W        W20219   5.093   6.088  12.580 -0.0405  0.4510 -0.0552
 4036W        W20220  12.994  11.433  10.898 -0.0585  0.0368  0.0513
 4037W        W20221   3.499  10.276   0.914  0.0563  0.0355  0.1473
 4038W        W20222  13.232   5.505  14.299  0.2039  0.0002  0.3148
 4039W        W20223  17.396   5.235   0.418  0.0371 -0.1312 -0.3168
 4040W        W20224  12.959  18.989   2.132  0.2787  0.1776  0.1671
 4041W        W20225  16.027  13.618   3.401  0.1726 -0.0068 -0.1793
 4042W        W20226  13.906  16.488   2.545  0.2872 -0.2099 -0.0428
 4043W        W20227  16.761   6.179   0.716 -0.0416  0.0719 -0.0326
 4044W        W20228  10.045  17.862   2.844  0.0125 -0.1504 -0.3141
 4045W        W20229   3.531   7.175   4.305  0.0924 -0.3735  0.0220
 4046W        W20230   1.861  15.908   2.763 -0.2208 -0.0562 -0.1330
 4047W        W20231   7.172  13.451  11.342  0.0356 -0.1681 -0.1487
 4048W        W20232   6.808   2.937  10.940 -0.0023 -0.2194  0.1547
 4049W        W20233  13.825   6.107   5.346 -0.1103 -0.1109 -0.0623
 4050W        W20234  11.171  16.590  11.213  0.4009 -0.2264 -0.4322
 4051W        W20235  11.190  17.245   0.937 -0.4354 -0.0719 -0.0755
 4052W        W20236   7.073   8.456   1.975 -0.1293  0.1091  0.1033
 4053W        W20237  15.241  15.246  12.027  0.1031  0.0294  0.1554
 4054W        W20238   1.157   3.937  12.335  0.0245  0.2165 -0.0470
 4055W        W20239  10.741   1.900   0.968  0.0649  0.1645 -0.1524
 4056W        W20240  18.663  18.294   3.998  0.0968  0.0496  0.0251
 4057W        W20241   9.688  12.943  12.688 -0.1460 -0.2224  0.1573
 4058W        W20242   8.440  17.701  12.832  0.1779  0.1551 -0.0186
 4059W        W20243   2.359   1.488  12.234 -0.0006  0.1198 -0.5268
 4060W        W20244   5.968  16.173   4.550 -0.0163  0.1050  0.2892
 4061W        W20245  17.396  13.340  12.104 -0.1525  0.2484 -0.1325
 4062W        W20246   4.260  10.280   3.197 -0.0880 -0.0870  0.0260
 4063W        W20247   2.749   6.234  11.360  0.2919 -0.1869 -0.0312
 4064W        W20248   7.994   2.872   0.124  0.1615 -0.0412  0.0305
 4065W        W20249  16.205  15.024  10.963 -0.1445  0.1417 -0.1097
 4066W        W20250  10.243  18.762   9.824  0.0887  0.2391 -0.0280
 4067W        W20251   1.542  14.602  10.648 -0.2133  0.0843  0.3225
 4068W        W20252   4.251   2.238   4.754  0.0136 -0.0654 -0.0978
 4069W        W20253   2.602  17.012  13.991  0.2431 -0.0138  0.0181
 4070W        W20254  10.412  18.654  10.684 -0.1218 -0.1361  0.2740
 4071W        W20255  17.227  11.462   0.236 -0.2838  0.0474 -0.0815
 4072W        W20256   1.664   5.401  13.963  0.0747  0.0307 -0.0050
 4073W        W20257   5.378  18.311   0.996  0.0928 -0.0431  0.1543
 4074W        W20258  10.606   4.135   1.043 -0.0785 -0.3476 -0.0255
 4075W        W20259   1.823   5.696  12.568 -0.1411  0.0218 -0.2406
 4076W        W20260   5.650  16.346   1.788 -0.2098 -0.0526  0.0475
 4077W        W20261  17.121   9.321   5.391  0.0615 -0.2114 -0.2232
 4078W        W20262   2.906  16.514   1.747  0.0543 -0.1846  0.1656
 4079W        W20263   4.862  16.637   4.200  0.0663  0.4911 -0.2587
 4080W        W20264  10.415  11.535  14.635 -0.1597 -0.1516 -0.0747
 4081W        W20265  16.225   8.188  13.646 -0.0320 -0.1552  0.0826
 4082W        W20266  15.855  18.413   4.755 -0.0523  0.1540  0.0751
 4083W        W20267   0.140   9.712   4.019 -0.1719  0.2665  0.2702
 4084W        W20268  12.374   0.247  13.215  0.1956  0.0002  0.1924
 4085W        W20269   3.436   3.250   1.710 -0.2094  0.1912 -0.1430
 4086W        W20270   8.119   7.442   4.768 -0.0052 -0.1012  0.0071
 4087W        W20271  10.637  14.354  11.457  0.0805  0.2508 -0.4589
 4088W        W20272  11.712   4.334   4.896  0.1007 -0.0966  0.2768
 4089W        W20273  18.908  16.185   4.721  0.3336 -0.0392 -0.2005
 4090W        W20274   7.704   2.241   4.807 -0.1106  0.0556 -0.1704
 4091W        W20275  11.067   7.828   3.450  0.0116  0.0747 -0.0556
 4092W        W20276   9.069   1.238   2.047 -0.2205 -0.1456  0.0720
 4093W        W20277   1.343   1.576   4.492  0.1318  0.3036 -0.0937
 4094W        W20278   9.957  18.838   4.859  0.0057 -0.1802 -0.3852
 4095W        W20279   7.871   2.310   1.538 -0.1219 -0.0134  0.1489
 4096W        W20280  15.236   0.691  14.928  0.2552  0.2018 -0.3142
 4097W        W20281  15.643   4.806   0.666 -0.1862  0.2741 -0.2414
 4098W        W20282  17.901   3.777   4.643  0.2377  0.0425  0.2699
 4099W        W20283  16.745  14.789   2.020 -0.2877 -0.3631 -0.5519
 4100W        W20284  11.758   8.033   3.429 -0.0249 -0.3088  0.1457
 4101W        W20285   8.983   4.041   2.878  0.1303  0.2413 -0.0580
 4102W        W20286  16.651   3.675   1.270 -0.3912 -0.1761  0.1236
 4103W        W20287  15.469   9.590   3.232 -0.0489  0.0128  0.5844
 4104W        W20288  14.519   3.519  12.791  0.0468  0.4503  0.0753
 4105W        W20289  14.298   3.764   3.871  0.0667 -0.0897 -0.0630
 4106W        W20290  13.048   4.645   3.010  0.0032  0.1157 -0.1996
 4107W        W20291   6.828  11.602   1.665 -0.3367  0.1642 -0.2949
 4108W        W20292   7.051  10.757  10.701  0.0675 -0.0493 -0.2453
 4109W        W20293   5.002   6.257   2.486  0.4029  0.2878 -0.1118
 4110W        W20294   5.425   9.846   1.083  0.0990  0.0169  0.0155
 4111W        W20295   6.257   5.403  11.698 -0.0009  0.1038  0.1772
 4112W        W20296   2.900  10.167   0.902  0.3970 -0.0941  0.1748
 4113W        W20297   6.111   8.442  15.002 -0.0637 -0.0328 -0.0464
 4114W        W20298   3.128   1.588   2.564 -0.2911  0.4599 -0.2205
 4115W        W20299  17.103   5.793   1.078 -0.1772 -0.2252  0.3527
 4116W        W20300   5.490  13.115   2.689 -0.1892  0.1270  0.2104
 4117W        W20301  11.749  18.493  14.738  0.0607  0.3889 -0.1778
 4118W        W20302  10.776  11.940  15.319  0.0600 -0.0915 -0.3021
 4119W        W20303  16.983   3.754   4.293 -0.1548  0.2834 -0.2110
 4120W        W20304  12.994  13.937   0.819 -0.0191  0.0729  0.0961
 4121W        W20305  10.527   0.669   5.410  0.1727  0.0097  0.2347
 4122W        W20306  12.968   9.740   0.082  0.1588 -0.2933  0.1129
 4123W        W20307   2.438  10.568   4.158  0.0614 -0.0071 -0.1377
 4124W        W20308   8.337   2.498   2.435 -0.0249 -0.1567  0.0084
 4125W        W20309  17.392   3.522   3.360 -0.0155 -0.0682 -0.1992
 4126W        W20310   8.944   4.017  12.912 -0.0862  0.0343  0.1848
 4127W        W20311  10.399   4.361  13.695  0.2407 -0.2758  0.4611
 4128W        W20312  15.652   2.546  11.319  0.0243 -0.1608  0.1508
 4129W        W20313   2.641  16.041   0.361 -0.0613 -0.1617 -0.0657
 4130W        W20314   5.745  13.407  13.347  0.0159 -0.1248  0.0180
 4131W        W20315   9.127   6.663   1.591  0.0517 -0.1657  0.1352
 4132W        W20316  11.241   5.915  10.943  0.0328 -0.2144  0.3959
 4133W        W20317   1.010   6.856   2.350 -0.0634 -0.0806 -0.2632
 4134W        W20318  14.053  13.545  14.641 -0.1281  0.0313 -0.0747
 4135W        W20319  13.062   6.968   2.887 -0.3047 -0.0544  0.0095
 4136W        W20320  13.407  11.652   5.240  0.3556  0.0498  0.0335
 4137W        W20321  12.501  16.381  13.463  0.0084  0.1956 -0.0798
 4138W        W20322   6.717  12.624   2.992  0.2445 -0.0881  0.0466
 4139W        W20323   8.936   2.078   3.560 -0.0211 -0.0295  0.0238
 4140W        W20324  10.321  15.262  11.876 -0.0440  0.3273  0.0616
 4141W        W20325   5.318  11.792   1.438  0.2559  0.0628  0.1223
 4142W        W20326   1.642   1.282   3.584  0.0786  0.0797  0.3228
 4143W        W20327   0.492  18.311   2.429  0.0623  0.1965  0.1491
 4144W        W20328   2.198  17.041  12.706  0.0583  0.3164  0.0713
 4145W        W20329  17.520   2.912  13.343  0.1123 -0.0025 -0.2408
 4146W        W20330   9.805   1.680  11.829  0.1846 -0.0194  0.1418
 4147W        W20331   9.837  13.584  15.357  0.0736 -0.2993  0.1581
 4148W        W20332  17.306   2.191  11.188  0.0629  0.0177  0.2026
 4149W        W20333  11.260  14.605   0.917 -0.0462  0.3238  0.3973
 4150W        W20334   0.929  12.757  12.736  0.1837  0.1631 -0.0898
 4151W        W20335   5.374   1.550  13.851  0.3508  0.2471 -0.2638
 4152W        W20336   8.003   3.283   1.989  0.3424  0.3620 -0.0457
 4153W        W20337   5.350   1.710   2.696  0.1464  0.0578 -0.3359
 4154W        W20338  18.135   2.126  14.584  0.1928 -0.1172 -0.0672
 4155W        W20339   9.096  15.608  11.730  0.0801  0.1571  0.0347
 4156W        W20340  11.737  13.467   0.612 -0.0188 -0.0570 -0.2805
 4157W        W20341   1.394   2.185   2.825 -0.0762  0.1931  0.1061
 4158W        W20342  12.333   1.085   0.200 -0.0885 -0.0528  0.1834
 4159W        W20343   8.828  18.856  11.902 -0.0985 -0.1898 -0.4234
 4160W        W20344  16.647  12.814   2.113 -0.1138 -0.0558 -0.0124
 4161W        W20345  12.563  13.563   1.718 -0.1460 -0.2890 -0.0284
 4162W        W20346   3.260  10.903  13.995 -0.1781  0.1828  0.1282
 4163W        W20347   1.692   9.871  13.580  0.0251 -0.0750 -0.0973
 4164W        W20348   8.295  11.292   4.510  0.0822 -0.2072 -0.1725
 4165W        W20349  13.351  14.909  10.322 -0.0216  0.1132  0.1175
 4166W        W20350  10.205  17.170   0.330 -0.1958  0.2544  0.0717
 4167W        W20351  11.532   5.609  14.974 -0.0687 -0.1327 -0.4499
 4168W        W20352  18.091  10.352   2.910 -0.2548  0.0274  0.4488
 4169W        W20353  15.598   5.475   2.298 -0.2661  0.2439  0.1722
 4170W        W20354   7.429   5.722  12.237  0.0803  0.0552  0.3539
 4171W        W20355  15.390  16.537   4.521 -0.2826 -0.0730  0.1389
 4172W        W20356  16.638   0.513   1.049  0.2796 -0.0143  0.2800
 4173W        W20357   3.784  18.832   5.394 -0.1071  0.0833  0.0673
 4174W        W20358   7.332  13.579   1.217  0.4881  0.4341 -0.0317
 4175W        W20359  11.026   4.178   0.623 -0.1118 -0.2055 -0.2406
 4176W        W20360  14.666  16.326   3.833  0.0950  0.0687  0.0641
 4177W        W20361   3.217   5.060  14.106 -0.0251  0.2245  0.0614
 4178W        W20362  17.456   0.697   4.991 -0.4101  0.1403  0.0099
 4179W        W20363  11.798  13.471  11.048  0.1255 -0.1291  0.2885
 4180W        W20364   2.567   9.382   3.814  0.1697 -0.0846  0.0739
 4181W        W20365   9.110   8.668   2.599  0.1362 -0.1428  0.0175
 4182W        W20366   5.856  14.935   5.734  0.1218  0.0047 -0.1837
 4183W        W20367  10.018  11.349   2.947  0.1445  0.2821  0.3041
 4184W        W20368  15.105   0.007   0.613 -0.2389  0.0959 -0.3496
 4185W        W20369   2.031   7.019  12.915  0.2558  0.2617 -0.1436
 4186W        W20370  11.286  18.090  14.002 -0.1147  0.1912  0.1526
 4187W        W20371  16.102   9.254   5.333 -0.0063  0.0443 -0.2043
 4188W        W20372   9.577   3.904  13.671 -0.2631 -0.0000  0.1845
 4189W        W20373   2.782   2.798  13.989  0.1587  0.0909  0.3007
 4190W        W20374   7.213  11.016  14.658 -0.0999 -0.0560 -0.3192
 4191W        W20375   5.881  16.018   2.095 -0.1447  0.1499  0.0972
 4192W        W20376  15.046   0.285   0.056 -0.2617  0.1354  0.2657
 4193W        W20377  12.722   8.581  13.952 -0.0546 -0.1295 -0.1318
 4194W        W20378  15.869  14.072   4.566 -0.0034 -0.2182 -0.1041
 4195W        W20379   4.943   8.705  13.313 -0.1278  0.0059 -0.1046
 4196W        W20380   7.545   4.693  15.332  0.1443  0.0170 -0.2305
 4197W        W20381   3.451  17.757   4.379  0.3646  0.0628  0.0110
 4198W        W20382  16.651  18.564  12.641  0.1852  0.3166  0.0562
 4199W        W20383  11.150  12.822  10.534 -0.0176  0.2223  0.2750
 4200W        W20384  11.934  13.312   1.404  0.2522  0.0116 -0.0111
 4201W        W20385   4.664  11.573  14.379  0.3536 -0.1145 -0.3251
 4202W        W20386  13.746   3.681   1.678  0.0078  0.1727  0.2947
 4203W        W20387  15.339  11.218  12.376  0.2053 -0.2252 -0.1296
 4204W        W20388   6.902   6.514   1.051 -0.0433 -0.0109 -0.0167
 4205W        W20389   9.764   2.485  14.477 -0.3480  0.0357  0.2297
 4206W        W20390   9.539  12.496   1.518  0.1896 -0.1027 -0.0119
 4207W        W20391  15.315   2.748   1.473  0.0707  0.2807  0.1736
 4208W        W20392   1.252  12.767   0.351  0.1275  0.2302 -0.1497
 4209W        W20393   4.461  14.011  11.457 -0.0086 -0.0899 -0.0891
 4210W        W20394   4.702   6.489   3.670 -0.0310 -0.1861 -0.1583
 4211W        W20395  12.378  12.779  11.985  0.1387 -0.0450  0.0293
 4212W        W20396   5.067  14.286   1.817 -0.2118  0.5043  0.0598
 4213W        W20397  15.765  15.923  10.528  0.0094  0.2244  0.0780
 4214W        W20398  11.896  14.105   1.992 -0.3547  0.4908 -0.0774
 4215W        W20399   4.838   9.103   3.454  0.0353 -0.0546  0.2859
 4216W        W20400  17.897  10.546  14.960 -0.1688  0.2517 -0.0886
 4217W        W20401  13.432  12.252  12.039  0.1463  0.0104 -0.1537
 4218W        W20402   1.112  14.500   1.849 -0.1517  0.1181  0.0082
 4219W        W20403  13.427  18.097   0.045 -0.0319 -0.1506 -0.1703
 4220W        W20404   1.705  11.189   0.220  0.1022 -0.0463  0.1526
 4221W        W20405  13.265  18.121  11.592  0.1260  0.1296  0.4276
 4222W        W20406  15.071  18.693   4.494  0.0999 -0.1103 -0.0814
 4223W        W20407   9.465  12.095   2.699 -0.1584 -0.1339 -0.3801
 4224W        W20408  16.706   2.778   2.741  0.2521 -0.2746 -0.2443
 4225W        W20409  11.597  11.951   4.031 -0.0525 -0.1739 -0.0219
 4226W        W20410   3.741  18.218   1.584  0.2385  0.3184 -0.2235
 4227W        W20411  13.643  11.673   3.077  0.2022 -0.1402 -0.0613
 4228W        W20412   3.955  13.710   9.773  0.0350 -0.1663  0.0805
 4229W        W20413  17.102  16.250   0.237  0.1282 -0.4290 -0.0504
 4230W        W20414  10.712   5.524  14.009 -0.1199 -0.1571 -0.1121
 4231W        W20415  13.213   8.482   0.198 -0.0657 -0.2486 -0.0362
 4232W        W20416   0.554   5.261  10.651  0.1958  0.0072 -0.0914
 4233W        W20417   3.395   0.919   1.542  0.0497 -0.0992 -0.0069
 4234W        W20418   4.725   0.509  11.493  0.2291  0.1748  0.1799
 4235W        W20419   0.422   7.014  13.498  0.0387  0.4302  0.1137
 4236W        W20420   1.833   6.671   3.400 -0.1086  0.1773  0.0640
 4237W        W20421   0.024  13.514  15.023  0.1376 -0.0605 -0.1672
 4238W        W20422   7.589  17.596  13.515 -0.1325 -0.1593  0.0748
 4239W        W20423   9.447  14.160  14.101 -0.1864 -0.0204 -0.0199
 4240W        W20424   5.524  15.012   2.494 -0.1317  0.2211  0.2019
 4241W        W20425   8.610   7.179  15.328  0.0687  0.0583  0.1472
 4242W        W20426  17.347  12.869   0.343  0.1817  0.0631 -0.1337
 4243W        W20427  10.428   5.338  15.183  0.2680 -0.2752 -0.0527
 4244W        W20428   5.259   3.081   5.296 -0.2235 -0.3274 -0.4731
 4245W        W20429  11.276  14.513   3.518 -0.1955  0.2599 -0.0879
 4246W        W20430  17.330   3.554  12.478  0.1638 -0.1229 -0.0048
 4247W        W20431   5.056   2.836   4.906  0.2272 -0.5677  0.3139
 4248W        W20432   5.837  15.409   2.622 -0.2671  0.0978  0.0083
 4249W        W20433   2.012   9.055  12.209 -0.0806  0.0657  0.0415
 4250W        W20434   1.335   3.840   2.104 -0.2295  0.4288  0.2607
 4251W        W20435   4.711   1.711   3.461  0.1320 -0.3835 -0.0182
 4252W        W20436   3.969   6.971  14.428 -0.2851  0.1006 -0.3027
 4253W        W20437   7.217  14.666   5.118  0.0267 -0.1063 -0.3196
 4254W        W20438   4.008   4.429   3.202 -0.0331  0.0010  0.1388
 4255W        W20439   9.814  18.615  10.097  0.0644  0.1215  0.3044
 4256W        W20440  13.538   4.409   2.952 -0.1000 -0.0668  0.3754
 4257W        W20441   7.930   8.220   1.327  0.0120 -0.4140 -0.0121
 4258W        W20442  17.732   3.330  13.632  0.1573  0.0789 -0.3162
 4259W        W20443  10.888  11.610  14.083  0.0190  0.2994 -0.3050
 4260W        W20444  15.272  11.915  13.815  0.0570  0.3500  0.1143
 4261W        W20445   7.851  16.590   2.726  0.1855  0.0968 -0.1500
 4262W        W20446  10.424   2.494   3.554 -0.0938  0.1137 -0.0448
 4263W        W20447  12.758   5.659   3.153  0.0343 -0.0326  0.0535
 4264W        W20448   0.942   7.628  11.172 -0.0109  0.0099 -0.1382
 4265W        W20449   2.711  11.143  12.903 -0.1604 -0.2128 -0.2500
 4266W        W20450   4.745   8.279  12.932  0.2728 -0.2779  0.2436
 4267W        W20451  11.088   9.166   2.569  0.1838  0.2340  0.0496
 4268W        W20452  15.536   4.066  12.884 -0.2048  0.1700 -0.1576
 4269W        W20453  12.903  17.934   4.202 -0.1196 -0.1275 -0.0898
 4270W        W20454  12.515  12.428   0.780  0.0598  0.0854 -0.1024
 4271W        W20455  16.453   6.545   3.257  0.1760 -0.0030 -0.4018
 4272W        W20456  10.491  11.969   2.586 -0.1625 -0.0358 -0.2550
 4273W        W20457   2.336  14.481  11.858 -0.1009 -0.1748 -0.0388
 4274W        W20458   2.719  14.599  14.317 -0.0367  0.0565 -0.1202
 4275W        W20459   2.621   4.957  11.460  0.2838 -0.2665 -0.4823
 4276W        W20460   2.023   6.713   1.832 -0.0243 -0.1264 -0.0403
 4277W        W20461  11.250   5.082   4.735  0.0307 -0.1822 -0.2100
 4278W        W20462   5.113  18.358   0.021 -0.0153  0.2235  0.3316
 4279W        W20463   0.433   3.691  15.068  0.1830 -0.0052  0.0768
 4280W        W20464  11.235  16.107  11.986 -0.4112 -0.0138  0.1337
 4281W        W20465   6.098   0.720   3.323  0.1860  0.2220 -0.0864
 4282W        W20466   4.294   5.658  15.172 -0.0134 -0.2266 -0.6037
 4283W        W20467   3.699   5.647  15.097 -0.2718  0.3300  0.2365
 4284W        W20468  18.295  16.406  12.219 -0.1269  0.2341 -0.0178
 4285W        W20469   0.510   0.455   4.079  0.0496  0.0030  0.1729
 4286W        W20470  14.738   5.212  15.103 -0.0959 -0.0301  0.2706
 4287W        W20471   7.730  14.491  14.155 -0.1676 -0.0029 -0.0298
 4288W        W20472  16.820   4.166  14.854  0.3627 -0.2967 -0.2707
 4289W        W20473  11.582  15.554  13.398  0.1471  0.0729 -0.1249
 4290W        W20474  14.833  11.494  14.445 -0.1616 -0.1595 -0.2516
 4291W        W20475  18.969   1.743  10.750 -0.1177  0.0996  0.0580
 4292W        W20476  10.361   5.270  14.697 -0.0348 -0.1456  0.0917
 4293W        W20477   5.089  15.548   4.905 -0.1215 -0.1485  0.1491
 4294W        W20478   1.612   7.982   3.576  0.1725 -0.2713  0.0706
 4295W        W20479   8.117  13.732  13.609 -0.0094  0.1775  0.2337
 4296W        W20480   7.989  11.548   4.147 -0.0647 -0.2164  0.0847
 4297W        W20481  18.881  13.262   0.023  0.3374  0.1449  0.1525
 4298W        W20482   2.638   8.933  12.480 -0.1510  0.1214 -0.6357
 4299W        W20483  14.558   6.804   1.422  0.0546  0.1121  0.1198
 4300W        W20484  15.171   8.412   1.445 -0.0175 -0.2252  0.1144
 4301W        W20485   3.421   1.436   5.830  0.1974 -0.0191  0.0390
 4302W        W20486   9.372  10.476  12.491 -0.2440  0.1446 -0.2326
 4303W        W20487   7.394   3.865  14.111  0.1621 -0.0452 -0.0170
 4304W        W20488   2.465   0.872   4.302  0.1443 -0.0755  0.2144
 4305W        W20489   2.985   1.370   9.849  0.2770 -0.2305  0.2988
 4306W        W20490   1.326   0.333  11.548 -0.0137  0.0109  0.1834
 4307W        W20491   4.629  14.867   3.120 -0.1084 -0.0679 -0.1524
 4308W        W20492  12.398  14.210  14.178 -0.0078 -0.1621 -0.0624
 4309W        W20493  13.518  16.786   0.660  0.1936 -0.2279  0.1840
 4310W        W20494   9.729   0.038  13.083 -0.0562 -0.0474 -0.0637
 4311W        W20495   3.012   9.796  12.379 -0.0691 -0.3754  0.0294
 4312W        W20496   5.781   1.475   3.078 -0.1785  0.1817  0.1567
 4313W        W20497  10.171   7.388  11.652  0.2493  0.0829 -0.1556
 4314W        W20498  15.284  18.864   4.059 -0.2351 -0.2600  0.2966
 4315W        W20499  10.145   8.399  13.247 -0.0425 -0.1214 -0.0302
 4316W        W20500  16.940  11.106   3.332  0.0315  0.2185  0.1082
 4317W        W20501  12.912  11.804  11.346 -0.0482 -0.0494 -0.0882
 4318W        W20502   1.101  12.252   5.212 -0.0220 -0.1980 -0.0527
 4319W        W20503   2.931  15.494   3.442  0.0159 -0.1242  0.0488
 4320W        W20504  10.704  14.574  13.945  0.0484 -0.1742 -0.2826
 4321W        W20505  12.245   4.024   0.474  0.4027 -0.2506  0.4029
 4322W        W20506  17.547   3.810  14.504 -0.0878  0.0704  0.3609
 4323W        W20507  10.265   8.187  14.570 -0.1911  0.0155  0.0077
 4324W        W20508  13.936   0.017  10.888  0.1743 -0.1280 -0.0909
 4325W        W20509  13.671  14.506  12.877  0.1758 -0.6646  0.2001
 4326W        W20510  15.357   2.467  15.345 -0.0350 -0.1332  0.0390
 4327W        W20511  14.698   0.044   1.290  0.5385 -0.1965 -0.1924
 4328W        W20512   2.325   0.477  13.961  0.0017  0.1242 -0.0645
 4329W        W20513   1.791  14.948   1.239 -0.0840  0.4220  0.1176
 4330W        W20514   5.016  10.820   1.084 -0.1680 -0.0149 -0.1141
 4331W        W20515  14.472  16.465  11.963  0.2029 -0.0486 -0.0404
 4332W        W20516   1.612  11.783   0.362 -0.0025 -0.4324  0.0238
 4333W        W20517   1.865   0.405   3.164 -0.1162 -0.1948 -0.1588
 4334W        W20518  18.254  15.922  14.906 -0.3620  0.0779  0.0721
 4335W        W20519  15.155   8.516  14.622 -0.0499 -0.3060 -0.0623
 4336W        W20520   3.879  17.594   4.394 -0.1243  0.0879 -0.0273
 4337W        W20521  15.030  10.253  12.281 -0.1597  0.2424  0.3950
 4338W        W20522   9.526   2.031   1.676 -0.0050 -0.0117 -0.2520
 4339W        W20523   2.717   0.775   2.080 -0.1625 -0.1966  0.0292
 4340W        W20524  12.980   6.852   4.454  0.2770 -0.1075 -0.1690
 4341W        W20525   6.939  11.101   1.547 -0.0252  0.0810 -0.1415
 4342W        W20526   5.117   2.185   1.235  0.0400  0.0724 -0.2118
 4343W        W20527   2.993   3.654  11.631  0.3608 -0.2870  0.0066
 4344W        W20528   6.949  14.616   1.644  0.1682 -0.3271  0.0814
 4345W        W20529   9.821   9.455   5.195  0.0171 -0.1918  0.0861
 4346W        W20530  16.878   8.343   0.715  0.1484  0.0999 -0.1701
 4347W        W20531   9.688   4.423  12.559  0.2447 -0.0832  0.1053
 4348W        W20532  11.240   6.658   4.337  0.0981 -0.0551  0.0317
 4349W        W20533  13.491   3.389   3.243  0.3759  0.1723  0.2103
 4350W        W20534  15.629  15.125  10.926 -0.0759 -0.0068  0.1702
 4351W        W20535  18.669   5.369  15.363  0.2759  0.0765  0.1068
 4352W        W20536  11.071  17.400  13.271  0.0535 -0.2125  0.1223
 4353W        W20537   4.163  10.690   2.168  0.5519 -0.0348  0.2208
 4354W        W20538  13.635   6.306  13.097 -0.0595  0.0005 -0.3020
 4355W        W20539  12.809   0.702   1.495 -0.1496  0.0751 -0.0678
 4356W        W20540   6.090  17.678   2.095 -0.0194  0.5313 -0.0855
 4357W        W20541   2.797  13.278   5.662 -0.0568 -0.0223 -0.0222
 4358W        W20542   6.174   0.892   3.807 -0.1026  0.0357 -0.2038
 4359W        W20543   9.851   4.707   4.385  0.3348  0.1101  0.2137
 4360W        W20544  13.473  14.447   4.450 -0.0798 -0.2498 -0.1790
 4361W        W20545   1.746  17.479  12.901  0.4151 -0.0356 -0.0124
 4362W        W20546   4.271   2.752   2.887 -0.1149  0.0046  0.1172
 4363W        W20547  16.436   3.148   0.721 -0.0374  0.4901 -0.1375
 4364W        W20548   0.562   9.470  13.464 -0.0143 -0.0926 -0.0933
 4365W        W20549   2.166   3.250  15.227 -0.4454 -0.0983  0.0467
 4366W        W20550   7.710   7.737  13.092 -0.1680 -0.5234 -0.0782
 4367W        W20551   1.492   0.479  13.072 -0.0584  0.0353 -0.0485
 4368W        W20552  16.651  14.572   5.426  0.0414  0.1553 -0.1948
 4369W        W20553   5.232  16.427   2.034 -0.0667 -0.0536  0.0405
 4370W        W20554  11.565   2.875   4.298  0.2531  0.2608 -0.0105
 4371W        W20555  13.069   7.851   5.140  0.1473 -0.0164 -0.0817
 4372W        W20556   3.770  13.066   0.441 -0.3495 -0.3554 -0.1106
 4373W        W20557  14.790   5.911   5.955  0.2521  0.2751  0.0509
 4374W        W20558   0.763   3.594  14.300 -0.0683 -0.3119  0.0292
 4375W        W20559   1.098  12.294   3.806  0.0186 -0.2702  0.0456
 4376W        W20560   1.759   9.601  14.432  0.0750 -0.0363 -0.1653
 4377W        W20561   0.314   2.963   2.893 -0.0574 -0.0553  0.1940
 4378W        W20562  11.917   6.431  13.890 -0.0675  0.1475 -0.1392
 4379W        W20563   2.904  13.571   3.855 -0.0114  0.2008 -0.2150
 4380W        W20564   8.846   4.281  12.145 -0.0765 -0.2194 -0.0151
 4381W        W20565   7.400   3.607   3.288 -0.1718  0.0863  0.2350
 4382W        W20566   7.828  11.177   4.408 -0.1993 -0.3937 -0.3301
 4383W        W20567  11.917   7.656  13.293 -0.2691  0.1007  0.2111
 4384W        W20568   3.154  10.449  14.626 -0.0675  0.0318 -0.1013
 4385W        W20569  16.848   4.370  10.859  0.1783 -0.0152 -0.0165
 4386W        W20570  12.563   8.087   3.004 -0.3179 -0.4191  0.2401
 4387W        W20571   4.771   2.702  15.032  0.0779  0.1445 -0.0208
 4388W        W20572  11.551   3.178  14.342  0.2124 -0.0171  0.0488
 4389W        W20573  12.965   5.993   3.966  0.1159  0.0529  0.2211
 4390W        W20574   9.345   2.417   3.645 -0.1216  0.4090  0.0351
 4391W        W20575  12.079  13.485  11.441 -0.1099  0.1453  0.0157
 4392W        W20576   1.402  18.765  10.969 -0.0516  0.3847  0.2682
 4393W        W20577  12.489  10.269  11.325 -0.0666 -0.1397  0.1827
 4394W        W20578   4.048   3.407  13.356 -0.1170  0.0198  0.1553
 4395W        W20579   0.370  16.558  14.283 -0.0259  0.0654  0.0291
 4396W        W20580   9.346   3.101   2.087  0.1339 -0.0973 -0.0183
 4397W        W20581   5.687   2.188  13.129 -0.0521  0.3246  0.0073
 4398W        W20582   6.617   3.835   1.512  0.0927  0.1139  0.0554
 4399W        W20583  15.720   4.577  13.077 -0.0766 -0.0489 -0.1576
 4400W        W20584  15.090   3.786   3.954 -0.2085  0.0440  0.1191
 4401W        W20585  14.555   9.646  11.731 -0.0526  0.2623 -0.1032
 4402W        W20586  18.222  18.428   1.758 -0.1813  0.1663  0.1465
 4403W        W20587  10.538   2.649  13.117  0.2031  0.1112  0.2018
 4404W        W20588  17.141   4.186   1.640  0.3808 -0.0553 -0.0980
 4405W        W20589  14.437   3.709  10.777 -0.0255 -0.4227 -0.3225
 4406W        W20590   1.649  15.821  13.229  0.1417 -0.1207  0.2437
 4407W        W20591  10.653   8.298  10.821  0.1872 -0.0707  0.1093
 4408W        W20592   3.249  14.897   1.721 -0.3890 -0.3260  0.3298
 4409W        W20593  14.878   2.569   3.529 -0.0032  0.0065  0.2228
 4410W        W20594  14.541  11.111  15.181 -0.4613  0.3840 -0.2498
 4411W        W20595  14.876  15.090   3.536  0.0153 -0.2704  0.0345
 4412W        W20596  10.398  16.225  12.032  0.0068 -0.1110  0.1390
 4413W        W20597  16.210  11.800   0.165 -0.0440 -0.0771  0.0922
 4414W        W20598  11.704  16.121  12.204  0.0248 -0.1227  0.1223
 4415W        W20599   9.542   0.190   3.446  0.2529  0.2526  0.0421
 4416W        W20600  18.164   8.485   0.355 -0.1204  0.0315 -0.1569
 4417W        W20601   6.253   4.823   0.534 -0.0751 -0.0444 -0.0601
 4418W        W20602  12.944  11.031  12.390  0.1057  0.2414  0.0150
 4419W        W20603   4.144  10.038  12.092 -0.2050 -0.1883 -0.2775
 4420W        W20604  17.853   6.626  15.315  0.1887 -0.0374  0.2173
 4421W        W20605   2.671   2.700   2.684  0.1308 -0.1682 -0.0374
 4422W        W20606   3.591  17.243   1.755  0.1213  0.5463  0.3813
 4423W        W20607   6.318   9.007  12.763  0.0913  0.1436 -0.0400
 4424W        W20608   5.100  14.164  13.680  0.3433 -0.2105  0.0194
 4425W        W20609   2.595   4.042  13.969 -0.2393  0.2311  0.0835
 4426W        W20610   4.232   8.936   5.254 -0.2346  0.0181 -0.0213
 4427W        W20611   5.333  17.224   5.523  0.1390  0.1433 -0.0512
 4428W        W20612   8.430   1.817  13.046  0.0771  0.2132  0.2749
 4429W        W20613   3.533  15.966  15.117  0.1354 -0.0062  0.0168
 4430W        W20614   7.781   1.499  11.142 -0.0332 -0.3382 -0.0209
 4431W        W20615   6.682   3.707   3.770  0.0165  0.1170  0.1242
 4432W        W20616  12.549  10.940   1.186  0.1869  0.4389 -0.0536
 4433W        W20617  14.088   1.939   4.358  0.0337  0.0331 -0.2052
 4434W        W20618   3.640   4.252   4.687 -0.1768  0.3429 -0.0552
 4435W        W20619  15.143  15.707  12.663  0.2343 -0.0393 -0.1896
 4436W        W20620   7.545  14.799   0.470 -0.0689  0.1610 -0.2363
 4437W        W20621   6.519   3.364  15.192  0.0019  0.2457  0.0176
 4438W        W20622  14.676  13.007   0.186  0.0591  0.2322 -0.2694
 4439W        W20623  15.273  11.582  13.425 -0.2381 -0.4087 -0.0399
 4440W        W20624   0.465  15.848  15.052  0.2332 -0.0386 -0.0317
 4441W        W20625   1.920   3.489  12.404 -0.0759 -0.2171 -0.0954
 4442W        W20626   2.625   6.233  13.092  0.2488  0.0614 -0.0033
 4443W        W20627   6.878  17.633  12.040 -0.0374 -0.0686 -0.0123
 4444W        W20628   3.710  11.070   0.873  0.1281 -0.0492 -0.2375
 4445W        W20629  10.563  16.914   2.456  0.2741 -0.3396 -0.0828
 4446W        W20630  13.923   7.371  12.554 -0.3115 -0.2118 -0.2273
 4447W        W20631   1.391  17.599   0.188 -0.1050 -0.0105 -0.0223
 4448W        W20632   5.512   5.676   3.179  0.0856 -0.0134  0.1989
 4449W        W20633  12.871  11.493   4.158 -0.2532  0.0763 -0.0651
 4450W        W20634  18.281   0.686  12.591  0.1766  0.1418  0.1523
 4451W        W20635   0.341  12.329  13.080 -0.1357 -0.2502 -0.0406
 4452W        W20636   3.137   7.008   3.532  0.1566 -0.0090 -0.0185
 4453W        W20637   8.398  10.237   3.077 -0.2288 -0.2207 -0.0575
 4454W        W20638   4.801   1.742  12.776  0.2254  0.2122  0.3660
 4455W        W20639  14.008   8.861  10.837 -0.1437 -0.0383  0.1483
 4456W        W20640  17.997  13.134  13.651 -0.3786 -0.1420  0.1331
 4457W        W20641  10.303  11.032  14.271  0.5088 -0.1033 -0.2968
 4458W        W20642   1.100  17.835  14.560  0.1591  0.0408 -0.1351
 4459W        W20643   6.380  10.426   5.788 -0.2361  0.0595  0.0213
 4460W        W20644   1.716   0.275   0.200 -0.0826  0.2088 -0.1010
 4461W        W20645  18.167   4.991  12.460  0.0343  0.1846 -0.0044
 4462W        W20646   5.577  10.253   2.858  0.0939 -0.1719 -0.1427
 4463W        W20647  18.852   8.941  14.641  0.0772  0.1583  0.3342
 4464W        W20648   0.005  14.094  12.773  0.1890 -0.1626 -0.0220
 4465W        W20649   6.591  12.973   4.597 -0.1935  0.1917 -0.1865
 4466W        W20650   0.029   2.060   1.272 -0.2098 -0.0573 -0.3070
 4467W        W20651  10.573  13.918   3.141  0.0076  0.0024  0.1190
 4468W        W20652  15.508  18.067  12.892 -0.2975  0.0749  0.2472
 4469W        W20653  12.251   9.143   2.622  0.1157 -0.2505  0.0725
 4470W        W20654   7.770  16.115   0.709  0.0438  0.1180 -0.0961
 4471W        W20655  18.679  11.953  13.516 -0.0857 -0.0268 -0.0140
 4472W        W20656   2.058   2.343   4.868  0.3005 -0.0373 -0.0303
 4473W        W20657   2.857   3.485   1.603  0.1825  0.0087 -0.0048
 4474W        W20658   5.144   6.643   0.499 -0.0260  0.4911  0.0298
 4475W        W20659  10.302  12.111  11.732  0.0403  0.0458 -0.3131
 4476W        W20660  17.782  10.018   0.289 -0.0694 -0.1803 -0.0109
 4477W        W20661  11.033  14.973   2.651  0.1125 -0.0438  0.0857
 4478W        W20662  14.708   5.700  15.321  0.3159  0.0383 -0.1444
 4479W        W20663  10.532   9.754   1.385 -0.1060 -0.1883 -0.1547
 4480W        W20664  15.325   6.206   5.346  0.0132 -0.0584 -0.6005
 4481W        W20665   5.777   5.261  14.702  0.2438  0.0808  0.1072
 4482W        W20666   9.061  10.859  11.294  0.3440  0.3785  0.3631
 4483W        W20667  14.385   5.581   3.299  0.0067 -0.0551  0.3509
 4484W        W20668  13.334  12.799  10.808 -0.0512 -0.0662  0.0230
 4485W        W20669   6.472  10.544   2.200  0.2894 -0.0950 -0.3736
 4486W        W20670   8.009   3.782  13.613 -0.3629  0.1102 -0.1988
 4487W        W20671   0.793  10.746   1.596  0.0449  0.0263  0.2129
 4488W        W20672  14.066  16.783  13.506 -0.0042  0.0575  0.0943
 4489W        W20673   1.343   9.922  11.845 -0.1715  0.0096  0.1907
 4490W        W20674   5.038   0.265  12.836  0.1766  0.2386 -0.0756
 4491W        W20675  11.757  11.168  13.772 -0.0356  0.2659 -0.2240
 4492W        W20676  18.789   9.742   2.644 -0.3407 -0.0951  0.3418
 4493W        W20677  16.099  17.163   4.100 -0.0152 -0.0687  0.2620
 4494W        W20678   0.075   5.421   3.196  0.2588 -0.2345 -0.0848
 4495W        W20679   5.808  14.950   2.895  0.0385  0.2229 -0.1194
 4496W        W20680   9.748   1.887   2.529 -0.0087  0.1978 -0.0054
 4497W        W20681  17.114  14.393   4.704  0.0314 -0.0105  0.1973
 4498W        W20682   2.929  12.550  11.700 -0.1024  0.0639 -0.0140
 4499W        W20683   8.009  15.255  14.543  0.0432 -0.3901  0.0114
 4500W        W20684   1.157   1.253  13.696 -0.5429  0.0871 -0.0734
 4501W        W20685  10.562  17.541  12.063  0.0974  0.3037  0.3441
 4502W        W20686   4.273   8.646  12.894  0.3405  0.2251  0.0801
 4503W        W20687  16.767   4.902  11.070 -0.1891 -0.1379  0.0668
 4504W        W20688   9.229   6.821  15.152  0.0959  0.1575  0.2163
 4505W        W20689   5.892   6.491  13.936  0.0306  0.2432 -0.0379
 4506W        W20690  14.090  12.730   3.019  0.2135 -0.2680  0.1468
 4507W        W20691  10.940   0.455   2.527 -0.1853  0.2309 -0.0905
 4508W        W20692  12.101   8.373  15.248 -0.0278 -0.0422 -0.0286
 4509W        W20693  10.691  15.860  15.262  0.1133  0.1301  0.1143
 4510W        W20694  10.153   6.426   4.643  0.0582 -0.4640  0.4057
 4511W        W20695   4.933   3.147   3.965  0.4424  0.3112 -0.3160
 4512W        W20696  15.124  18.780   0.069 -0.0112 -0.1964 -0.1848
 4513W        W20697   7.911  11.314   5.520  0.0001  0.0187 -0.1336
 4514W        W20698  13.945   6.552   0.703  0.0980 -0.3013 -0.0151
 4515W        W20699  10.165   4.615  12.212 -0.3780 -0.1650 -0.1776
 4516W        W20700  17.041  14.433  14.192 -0.1455  0.0787 -0.2737
 4517W        W20701  18.511  16.506  14.998  0.1310 -0.2760 -0.0768
 4518W        W20702   9.220   6.458  11.688 -0.0608 -0.1470 -0.0502
 4519W        W20703  18.135   0.483  13.559  0.1134  0.0030 -0.1449
 4520W        W20704  14.434  14.883  13.860  0.0096 -0.0800  0.0029
 4521W        W20705   3.524   9.820   1.776 -0.1651  0.3063  0.0345
 4522W        W20706  16.631  18.698  13.568 -0.1976 -0.0247  0.0636
 4523W        W20707   0.212   2.766   0.687 -0.2417 -0.2332 -0.2423
 4524W        W20708  18.569   4.515   4.498 -0.2616 -0.0745  0.1768
 4525W        W20709   6.275  11.684   5.385 -0.0819  0.1960  0.1041
 4526W        W20710   1.435  11.106  14.294  0.0217 -0.2119 -0.2990
 4527W        W20711   4.036  11.252  15.045 -0.2539 -0.0083  0.1837
 4528W        W20712   6.733  11.415   4.150 -0.1146 -0.0367 -0.2521
 4529W        W20713  17.692  15.146  12.079  0.1327 -0.0841 -0.0519
 4530W        W20714   2.002  14.422   2.058 -0.0999 -0.1090  0.3780
 4531W        W20715   0.710   0.613   0.868 -0.1148  0.1972 -0.1040
 4532W        W20716  16.206   8.313   0.631 -0.2357  0.1912  0.0667
 4533W        W20717  11.776  16.042  14.084  0.2397  0.1556  0.1110
 4534W        W20718  18.957   2.286   3.263 -0.1933 -0.1874  0.0556
 4535W        W20719  17.045  17.827   0.218 -0.3632  0.1979  0.2448
 4536W        W20720  16.186   4.359  14.869 -0.3001  0.2138  0.1859
 4537W        W20721  17.315   3.814   4.656 -0.5947 -0.0265  0.2939
 4538W        W20722  18.983  12.232   1.395  0.2549 -0.0822 -0.0621
 4539W        W20723   2.350  15.410  13.509 -0.1889  0.3166 -0.5063
 4540W        W20724   7.804   3.621  13.159  0.0348  0.5120 -0.2378
 4541W        W20725   4.690   3.233   1.899  0.1642 -0.1085 -0.3314
 4542W        W20726   2.412   0.793   0.350  0.1546  0.3995 -0.3807
 4543W        W20727  12.624   9.626  11.064 -0.1258  0.0048  0.0679
 4544W        W20728  16.121   3.207   3.311 -0.2510  0.1311 -0.0513
 4545W        W20729   2.208   2.599  11.042  0.1718  0.2403 -0.1094
 4546W        W20730  18.829   4.085   4.580 -0.0038  0.5824  0.1739
 4547W        W20731   5.936   7.030  10.918 -0.1863  0.0368  0.1193
 4548W        W20732  14.805  18.261   4.682  0.0140 -0.3439  0.0269
 4549W        W20733   4.027  12.504  13.628 -0.0218 -0.1322 -0.2052
 4550W        W20734   8.953  16.752   3.325 -0.3943 -0.0373  0.0849
 4551W        W20735  13.618  14.291   2.974  0.0913  0.2910  0.1219
 4552W        W20736   9.501  11.918  11.947  0.0555  0.4509  0.1951
 4553W        W20737  17.784  18.319   4.216 -0.0879 -0.0626  0.0139
 4554W        W20738  10.339  15.251  13.266 -0.0418  0.1310 -0.1233
 4555W        W20739   5.877   5.718  14.593  0.2793 -0.1103 -0.3282
 4556W        W20740   9.863  11.050  11.476  0.0401  0.3367 -0.1808
 4557W        W20741   0.923  14.455  10.985  0.0180  0.0383 -0.0560
 4558W        W20742   3.626  11.274  12.372  0.2568 -0.1560 -0.0828
 4559W        W20743  16.668  12.242   4.345 -0.0470  0.0175 -0.1506
 4560W        W20744  17.355  13.380   5.146 -0.2651 -0.1121 -0.0587
 4561W        W20745   0.855  17.891  15.299 -0.0380 -0.1613  0.2472
 4562W        W20746   2.100   7.513   5.066 -0.2643 -0.0652  0.1268
 4563W        W20747   1.931   9.725   0.861  0.0799 -0.0141  0.0873
 4564W        W20748   7.758   7.117   5.499 -0.1293  0.0184  0.0491
 4565W        W20749   5.705  13.131  15.267  0.0484 -0.2334 -0.2832
 4566W        W20750   3.669   6.719  10.143 -0.0921  0.1158  0.0336
 4567W        W20751   5.464   5.883   4.831  0.1156 -0.1096  0.1244
 4568W        W20752  15.624   9.627  12.406 -0.1123 -0.1439 -0.2526
 4569W        W20753   9.582   8.328   2.169 -0.0365  0.1222  0.0572
 4570W        W20754   5.589   7.402  13.731  0.3960 -0.3279 -0.0107
 4571W        W20755   4.716   6.414   4.648  0.2578 -0.0993  0.1776
 4572W        W20756   6.418  14.386   3.521  0.0786 -0.1302 -0.1052
 4573W        W20757  10.220   3.173  11.844  0.0498  0.0268 -0.1357
 4574W        W20758  17.995   5.885   2.442 -0.1576  0.0855  0.1757
 4575W        W20759   0.994   3.386   3.406  0.2898 -0.0913 -0.1933
 4576W        W20760   8.876  18.433  10.232  0.0656  0.2146 -0.0250
 4577W        W20761   7.855  16.221  13.104 -0.4890  0.0169  0.0604
 4578W        W20762   1.514  14.830  11.867  0.0458 -0.2648  0.0279
 4579W        W20763  11.988   9.405  11.048 -0.1236  0.2688 -0.0002
 4580W        W20764   4.466   1.917   0.537  0.0025 -0.0123  0.0193
 4581W        W20765  18.267   0.032   2.682  0.2614 -0.2323  0.0159
 4582W        W20766  15.652   2.925  14.031  0.1211 -0.0156  0.1529
 4583W        W20767   6.289  10.346   2.827 -0.1341 -0.2392 -0.0730
 4584W        W20768   7.712   7.947   0.132 -0.4092  0.2154 -0.2479
 4585W        W20769   5.020   4.751   3.515 -0.1211  0.2424 -0.2342
 4586W        W20770  13.074  11.890   1.942 -0.0703 -0.1498  0.0673
 4587W        W20771  14.579   6.414  11.050  0.2313 -0.0393  0.2528
 4588W        W20772   6.775   8.083   1.036  0.0629  0.0493 -0.1496
 4589W        W20773   6.510   2.328  10.293  0.0652  0.1103  0.3328
 4590W        W20774   8.770   0.292   1.160 -0.0596  0.0427 -0.0512
 4591W        W20775  17.793  15.963   3.948 -0.4387  0.1846  0.1394
 4592W        W20776  12.879   1.343   4.033 -0.1757  0.0254 -0.3652
 4593W        W20777   5.154  17.803  12.147 -0.6419  0.1424  0.1016
 4594W        W20778   6.633   8.072  12.310 -0.2665 -0.0858  0.0163
 4595W        W20779   2.046  18.644   1.788  0.1401 -0.2597  0.1083
 4596W        W20780  18.609  10.695   2.050 -0.2026  0.2521  0.1483
 4597W        W20781   3.934  13.922   3.203 -0.1360 -0.0147  0.0763
 4598W        W20782  15.556  12.574   0.972  0.0050 -0.0482 -0.0846
 4599W        W20783  12.143  14.395   0.848 -0.0633 -0.0988 -0.0952
 4600W        W20784   4.828   3.191  12.978 -0.2011  0.1822 -0.2248
 4601W        W20785  16.156   1.299  11.495 -0.0846  0.1861  0.1502
 4602W        W20786   7.135   0.926   3.798  0.1336 -0.2561 -0.3846
 4603W        W20787   1.193  15.396  11.225 -0.2907 -0.0780 -0.0999
 4604W        W20788  15.082   3.563  14.274 -0.0747 -0.2612 -0.0149
 4605W        W20789   2.861  11.661   5.155  0.1746 -0.1319  0.0676
 4606W        W20790   0.837   4.151   2.703  0.1647 -0.0117  0.3527
 4607W        W20791  16.911  11.590  12.197  0.0734 -0.2148  0.0195
 4608W        W20792   5.370   1.153   1.189 -0.4811  0.1704 -0.0976
 4609W        W20793   3.383   2.081   4.160 -0.5861 -0.2353  0.0129
 4610W        W20794  15.684  16.472   0.538  0.1271  0.0449  0.1961
 4611W        W20795   0.601  14.686  13.141  0.0265  0.1036 -0.0616
 4612W        W20796  18.777  15.040  13.826 -0.0047 -0.1485 -0.2346
 4613W        W20797   1.745   6.544   2.610  0.0562  0.0536 -0.3738
 4614W        W20798   9.076  16.971  14.899  0.1532 -0.1178 -0.0850
 4615W        W20799   1.303   9.128   0.911 -0.0172 -0.1163  0.1211
 4616W        W20800   9.390   7.619  11.976 -0.2147  0.1771  0.0342
 4617W        W20801   8.841   9.027  11.067  0.1198  0.1628  0.1587
 4618W        W20802   5.811   7.966  15.236  0.2080 -0.0962  0.2191
 4619W        W20803  16.912  13.474   2.041  0.0123 -0.0430  0.0633
 4620W        W20804  10.064   0.536   5.416 -0.0928 -0.3054  0.0777
 4621W        W20805   8.594   1.124  12.586  0.0315 -0.0794 -0.4132
 4622W        W20806   8.394   2.505   0.910 -0.1851  0.2392 -0.0249
 4623W        W20807  13.630   7.479   3.005 -0.1435 -0.1340  0.0925
 4624W        W20808  14.789   1.718  11.823 -0.1246 -0.0199 -0.0415
 4625W        W20809   2.868   0.163   1.791 -0.0372 -0.2553  0.1084
 4626W        W20810  16.988  15.324   4.775 -0.1154  0.0212 -0.1867
 4627W        W20811   5.589  10.914   1.055 -0.0436 -0.0472 -0.1943
 4628W        W20812  15.070   4.427  13.281  0.0453 -0.2169  0.2198
 4629W        W20813  11.786  16.582   3.000 -0.1014  0.2527  0.0221
 4630W        W20814  10.998  10.500  11.793 -0.5032 -0.0109  0.1166
 4631W        W20815  12.395   0.709   3.241  0.2895  0.2199 -0.0186
 4632W        W20816   7.950  17.496   0.025  0.2174 -0.0367 -0.2088
 4633W        W20817   1.648   9.202   2.990 -0.0290  0.0771 -0.0326
 4634W        W20818  10.787  11.051   0.774 -0.2690  0.1001  0.3148
 4635W        W20819   2.536  14.832  13.019 -0.0403  0.0408  0.0188
 4636W        W20820   2.165  18.011   4.281  0.1859  0.3347 -0.1456
 4637W        W20821   4.580   7.566   1.339  0.0323  0.0712  0.1088
 4638W        W20822   3.613  10.320  11.760 -0.1413  0.0854  0.0492
 4639W        W20823  14.074   5.134  14.647 -0.1714 -0.0151 -0.0003
 4640W        W20824  14.483  17.836  12.536 -0.1950  0.1758 -0.2179
 4641W        W20825  14.568  14.046   0.174 -0.0090 -0.2635 -0.2632
 4642W        W20826   2.922   7.899   4.749 -0.1955 -0.0258  0.1546
 4643W        W20827   0.158  13.478   3.019 -0.0583  0.3966  0.0872
 4644W        W20828  17.681  11.775   0.203  0.0973  0.0261  0.2066
 4645W        W20829  11.062  10.505   1.490  0.0841  0.1331 -0.1055
 4646W        W20830   9.206   0.639   2.554  0.0447 -0.1532 -0.0896
 4647W        W20831  12.108   0.722  14.610 -0.3457  0.2581  0.2078
 4648W        W20832   2.772   7.679  12.010 -0.1563  0.1853  0.0243
 4649W        W20833   0.131   4.836   5.203  0.1821 -0.1710 -0.1718
 4650W        W20834   4.532   7.310   0.580 -0.3571 -0.0532  0.0440
 4651W        W20835   7.467   4.722   0.934 -0.0571 -0.1717 -0.0682
 4652W        W20836   4.436  10.837  14.213 -0.0087 -0.3806 -0.0128
 4653W        W20837   0.414  18.276  14.077  0.0008 -0.4431  0.4703
 4654W        W20838  15.403   9.131   0.750  0.1181  0.4526  0.2368
 4655W        W20839   1.457  10.501  12.828 -0.0022  0.0415  0.1342
 4656W        W20840  18.370  11.418   2.353  0.2973  0.2843 -0.3064
 4657W        W20841   8.457   8.416   3.114 -0.0972  0.1262 -0.1724
 4658W        W20842   1.726   1.304  14.883  0.0302  0.1797 -0.3820
 4659W        W20843  10.997  18.309  13.041 -0.2310 -0.0667  0.0185
 4660W        W20844  18.388   6.713  13.352 -0.1728  0.2546 -0.2715
 4661W        W20845   0.472  18.710   5.072 -0.0228  0.1129  0.0245
 4662W        W20846   6.589   2.708   4.131  0.0259  0.1879 -0.2871
 4663W        W20847   9.714  14.736  12.600 -0.2652  0.0205 -0.1171
 4664W        W20848  10.176  13.970   3.547 -0.2463 -0.2280 -0.1030
 4665W        W20849   1.573   8.006   4.838  0.0664  0.1543 -0.1838
 4666W        W20850  14.906  11.423   2.891  0.0114 -0.2928 -0.4020
 4667W        W20851  10.967  14.462  14.617  0.1960  0.1261 -0.3299
 4668W        W20852  13.180   8.130  11.729 -0.2473  0.0804 -0.4058
 4669W        W20853   8.198   6.049  15.271  0.2812  0.0459  0.3260
 4670W        W20854   6.221   1.855  12.535  0.0043  0.3213  0.3105
 4671W        W20855   8.159   3.259  14.560  0.4594  0.0847  0.0590
 4672W        W20856  14.159   1.429  11.000 -0.1130  0.0861 -0.2345
 4673W        W20857  10.213   7.670  14.730  0.0475 -0.3683 -0.3343
 4674W        W20858   0.136  18.422   3.917  0.0708 -0.0919  0.1679
 4675W        W20859  11.962  10.231   1.426 -0.0825 -0.1877 -0.3149
 4676W        W20860  18.264  13.078  13.189 -0.0163 -0.1407  0.2576
 4677W        W20861   8.251   2.536   1.895 -0.0134 -0.4053  0.1569
 4678W        W20862  18.549  10.530   1.502  0.0168 -0.0270  0.1775
 4679W        W20863  17.845   0.153  11.396 -0.1003 -0.1136 -0.0267
 4680W        W20864   7.250   3.235   1.015  0.0559  0.3035  0.2355
 4681W        W20865  12.253   7.829   2.660 -0.0090 -0.1354  0.0103
 4682W        W20866   2.553  11.872  12.125  0.1197  0.0753 -0.0172
 4683W        W20867   1.982  17.485  12.475  0.1399 -0.0895 -0.2846
 4684W        W20868  14.792   4.091  14.929  0.2431 -0.0217  0.2315
 4685W        W20869   8.978   0.532  13.819 -0.1982  0.1299 -0.0055
 4686W        W20870   4.258  14.358   0.591 -0.2041  0.2123 -0.0077
 4687W        W20871  11.497  17.853  12.697  0.0812  0.0532  0.1110
 4688W        W20872   8.632  11.608   0.880 -0.0385  0.2444  0.2424
 4689W        W20873  13.441   8.246   1.487 -0.0180 -0.1498  0.0003
 4690W        W20874   5.358   6.061  12.101 -0.1533  0.0005  0.1958
 4691W        W20875  11.821   5.297  12.196  0.0322 -0.0738 -0.0459
 4692W        W20876   9.872   9.596  11.715 -0.1249 -0.5619 -0.1785
 4693W        W20877  10.694  16.516   0.672  0.2313  0.0514 -0.0224
 4694W        W20878   4.498  13.504  13.400  0.1342  0.0182  0.1314
 4695W        W20879   8.947   3.985   1.047  0.0064  0.2595 -0.0544
 4696W        W20880  10.804   5.953   1.300  0.3530 -0.0356  0.2939
 4697W        W20881  15.700   6.369  11.125 -0.3279  0.1607  0.2702
 4698W        W20882   3.808  11.548   3.167  0.0908  0.0609  0.2695
 4699W        W20883   8.178  16.996  14.808 -0.0763 -0.2307 -0.0950
 4700W        W20884  17.616   6.642   5.107 -0.0313 -0.0964  0.0377
 4701W        W20885  13.035  12.481   2.844  0.1246 -0.0886 -0.1325
 4702W        W20886   2.078   8.544  13.624 -0.1662 -0.0666 -0.0330
 4703W        W20887   9.413  18.124   1.139  0.0522  0.0151 -0.0995
 4704W        W20888  10.637  18.241   0.490 -0.0181  0.1088  0.1285
 4705W        W20889   8.117   0.064   4.742  0.0343 -0.2837  0.1164
 4706W        W20890   1.691  16.686   4.747 -0.0093  0.0374 -0.1022
 4707W        W20891   0.436   4.497   5.082  0.2097 -0.1083 -0.1476
 4708W        W20892   0.015   0.185   4.024 -0.1438  0.1003  0.0831
 4709W        W20893   5.466  15.495  14.889 -0.2198 -0.1196 -0.1506
 4710W        W20894   2.402   6.044  14.795  0.0780  0.3706  0.0082
 4711W        W20895  17.607  14.439   1.966 -0.1793  0.0870  0.3099
 4712W        W20896  11.679  12.461  11.618  0.3011  0.0613 -0.1182
 4713W        W20897   8.148   6.024  13.996  0.0189  0.1046 -0.1546
 4714W        W20898   0.364   5.132  13.190  0.1156 -0.1466  0.0754
 4715W        W20899   8.120   9.253   4.299 -0.0267 -0.1736  0.3874
 4716W        W20900   1.173   4.458   3.007 -0.1932 -0.2293 -0.0247
 4717W        W20901   8.287   1.163   1.814  0.0785 -0.1607 -0.0201
 4718W        W20902  14.571   1.232   3.868  0.0355 -0.0943 -0.0229
 4719W        W20903  10.155  12.684  15.169  0.1832 -0.0645  0.1326
 4720W        W20904  10.456  16.411  15.131  0.0317  0.0564 -0.3546
 4721W        W20905   4.693  15.969   3.690 -0.2336  0.3736 -0.1416
 4722W        W20906  18.828  14.972   4.491 -0.3013 -0.0582 -0.0466
 4723W        W20907   2.494   3.427   4.492 -0.3425  0.0617 -0.0303
 4724W        W20908   3.664   2.737  11.776 -0.2601 -0.0280 -0.3127
 4725W        W20909  16.329  18.200   2.877 -0.0492  0.2338  0.2747
 4726W        W20910  14.174  15.148   4.670 -0.3524  0.1127 -0.0212
 4727W        W20911   2.828  14.353   3.758  0.0224  0.0324  0.2207
 4728W        W20912  17.080   2.691  10.592  0.1166  0.0843  0.2930
 4729W        W20913  14.043  11.096  11.338 -0.1152 -0.1338 -0.0004
 4730W        W20914  15.402   4.909   5.169 -0.1522 -0.3123 -0.0207
 4731W        W20915   2.592   8.757  13.184  0.1026 -0.2359  0.1322
 4732W        W20916  13.267   5.437  14.796  0.1707 -0.1064 -0.2197
 4733W        W20917  15.238   4.739   4.398 -0.1449  0.0393  0.0857
 4734W        W20918  12.685   3.947  10.520 -0.1531 -0.0400  0.1645
 4735W        W20919   6.578  15.808   3.820  0.1581 -0.1410  0.1234
 4736W        W20920  14.774   1.382   2.338 -0.1636 -0.0435 -0.1787
 4737W        W20921   8.710  10.595   2.314  0.1666 -0.0708 -0.1880
 4738W        W20922  18.466  18.276   0.975  0.1797 -0.0528 -0.0149
 4739W        W20923  11.615   4.935  14.721  0.0714 -0.3779  0.3432
 4740W        W20924  11.129   4.122  14.652  0.2181 -0.3463 -0.3512
 4741W        W20925  12.400  15.508  14.615  0.0109  0.1974 -0.0168
 4742W        W20926   8.798   6.662  10.727 -0.2272  0.0734 -0.1808
 4743W        W20927  16.426  17.707   2.516 -0.2193  0.1752  0.1198
 4744W        W20928  13.092   8.373  14.246 -0.0600  0.1306 -0.2115
 4745W        W20929   0.876  10.427  12.324 -0.0444 -0.2993  0.1854
 4746W        W20930   9.091  11.288   0.647 -0.0728  0.2625  0.1563
 4747W        W20931   8.739   0.306  12.873  0.4033  0.2580 -0.0541
 4748W        W20932  17.342   1.767   1.979  0.0276 -0.0046  0.2258
 4749W        W20933  14.888  15.206  13.553 -0.1185 -0.0425 -0.2951
 4750W        W20934  11.052   0.020   9.595  0.0698 -0.0906 -0.2386
 4751W        W20935  15.407  10.034   3.425 -0.0226 -0.0966  0.3876
 4752W        W20936  10.493  11.667  12.100  0.0240 -0.1167 -0.1698
 4753W        W20937   2.820   0.988   4.597 -0.3559 -0.1180 -0.1684
 4754W        W20938   0.733   5.622  13.876 -0.2169 -0.2433 -0.2457
 4755W        W20939   4.284   6.635  13.620 -0.0973 -0.2731  0.0669
 4756W        W20940   6.675   9.365  15.234 -0.2578  0.0259  0.0574
 4757W        W20941   1.737  16.621  11.442 -0.3419  0.1137  0.1855
 4758W        W20942  17.222  14.935   0.748 -0.1500 -0.0258  0.0052
 4759W        W20943  16.409   8.913   5.077 -0.0517  0.0867  0.0761
 4760W        W20944   6.098  18.281  14.760  0.0492 -0.0707 -0.4272
 4761W        W20945   9.213   3.168  10.248  0.3802  0.1172  0.2473
 4762W        W20946   4.182   4.219   4.520 -0.0703  0.2739 -0.0521
 4763W        W20947   1.792   9.351   1.645 -0.2859 -0.1810  0.2208
 4764W        W20948   5.474   2.092   3.743 -0.0654 -0.3260  0.2383
 4765W        W20949  11.345  16.499  13.083 -0.1516  0.0359 -0.0789
 4766W        W20950  15.621  10.488   3.383 -0.1823 -0.2676  0.1754
 4767W        W20951  15.222   5.480  12.478 -0.0205 -0.3215  0.0031
 4768W        W20952   7.124  17.954   1.698 -0.0671  0.0542 -0.2805
 4769W        W20953   6.704   1.017   4.562  0.1532 -0.0103 -0.1395
 4770W        W20954   0.378  16.418  11.172  0.1142  0.0861 -0.2065
 4771W        W20955   3.861   3.888  11.699  0.1823 -0.1422  0.0683
 4772W        W20956  10.102  18.038  12.474  0.2335 -0.2206 -0.0010
 4773W        W20957   0.877   1.164   3.205  0.0952 -0.2321  0.3926
 4774W        W20958  13.598  14.772  12.081  0.0258  0.3798  0.0854
 4775W        W20959  13.962  18.230   1.778  0.2448  0.0637 -0.0798
 4776W        W20960  12.722   5.575  13.052  0.1296 -0.0659  0.2508
 4777W        W20961  11.221   2.654   1.185  0.1058  0.2030 -0.3953
 4778W        W20962   2.036   3.745  13.549  0.1983 -0.1597 -0.1643
 4779W        W20963  16.359  12.081  12.456 -0.1501  0.1375  0.1902
 4780W        W20964  15.012   2.964   1.200 -0.3500 -0.0971  0.1978
 4781W        W20965  16.992  17.598  11.859  0.0138  0.0784 -0.1224
 4782W        W20966   5.775   4.786  14.447 -0.3281  0.0232 -0.0864
 4783W        W20967  13.755   8.790   3.218 -0.0265  0.4468 -0.0345
 4784W        W20968   9.899  13.298  11.861 -0.1004  0.2030 -0.1969
 4785W        W20969   3.541   5.634   4.400 -0.1429  0.1287 -0.0530
 4786W        W20970   0.000   8.350  13.316  0.0026 -0.0702  0.0811
 4787W        W20971  12.661   7.789  12.512 -0.0547  0.1569 -0.0839
 4788W        W20972   1.573   5.756   3.662  0.1205  0.0761 -0.1490
 4789W        W20973   1.925   5.948   1.533  0.1413  0.2803  0.0498
 4790W        W20974   5.136   6.543   4.417 -0.1123  0.0978  0.2272
 4791W        W20975  18.810  15.203  13.045 -0.3137 -0.0242 -0.0501
 4792W        W20976   2.268  16.407   5.498  0.2514  0.0793  0.1547
 4793W        W20977   1.177  13.969   4.658 -0.1121 -0.0325  0.0666
 4794W        W20978  18.362  16.098  10.393  0.0567 -0.2113  0.1310
 4795W        W20979   4.340  17.984  15.186 -0.0285  0.0801 -0.1251
 4796W        W20980  11.953   2.984  13.479  0.2756 -0.0872  0.0130
 4797W        W20981   1.187   1.350   0.750  0.2663 -0.2716  0.4779
 4798W        W20982  13.208  18.034  12.449  0.0647 -0.2175 -0.0995
 4799W        W20983   8.973  16.321   1.199 -0.1031 -0.2873  0.2703
 4800W        W20984   8.655  14.624  11.786  0.0514  0.4060  0.0808
 4801W        W20985   0.201   5.908   3.129 -0.0166 -0.2249  0.0034
 4802W        W20986   3.466  16.710   1.883  0.0618  0.4796  0.1981
 4803W        W20987  15.300   3.400  13.478  0.1084  0.3217  0.2268
 4804W        W20988   7.993  16.821  11.812  0.1293 -0.1839  0.0427
 4805W        W20989  17.753   6.134   3.595 -0.0808  0.0987  0.0053
 4806W        W20990   5.818  15.821   0.786 -0.1320 -0.0468 -0.1482
 4807W        W20991  13.215   0.010   9.505 -0.0163 -0.1798  0.0553
 4808W        W20992  11.289   1.831   2.661  0.0199 -0.1683 -0.0665
 4809W        W20993   9.563   7.265  11.116  0.1892  0.0711  0.4536
 4810W        W20994   9.552   3.417  13.853  0.2952 -0.0826  0.1051
 4811W        W20995   4.646   4.712  13.549  0.3059 -0.2800  0.1560
 4812W        W20996  16.245   8.086   2.124 -0.0304 -0.0374  0.2828
 4813W        W20997   4.977   9.932  13.937 -0.4975 -0.0875 -0.0025
 4814W        W20998   8.690   6.519   5.269  0.1941 -0.0131  0.0156
 4815W        W20999  17.114  16.193  13.060  0.0934 -0.1156  0.0713
 4816W        W21000   7.293   5.554  13.320 -0.0473 -0.4079  0.0501
 4817W        W21001  16.559   8.273   2.575  0.0518  0.0348  0.5203
 4818W        W21002  14.089  13.556   2.487  0.0992  0.2992  0.1170
 4819W        W21003   4.570   1.613   2.943  0.3840 -0.0231  0.1679
 4820W        W21004  10.484  11.340   9.718  0.0409 -0.0677  0.3944
 4821W        W21005   3.658  17.376  14.811 -0.0466 -0.0682  0.3953
 4822W        W21006   2.729  15.926  14.762 -0.0824 -0.2090 -0.2892
 4823W        W21007   5.354  11.037   0.552  0.1949 -0.1168 -0.0466
 4824W        W21008   0.712  17.231   2.386  0.3384  0.2464 -0.2050
 4825W        W21009   3.920   2.198   4.321  0.0651 -0.0692 -0.0466
 4826W        W21010   0.643  18.914  12.759 -0.1292 -0.0925 -0.1273
 4827W        W21011  17.963   9.508   2.385  0.0547 -0.0213 -0.1500
 4828W        W21012  16.101  13.008   1.887  0.2215  0.0964  0.0383
 4829W        W21013   1.981  12.620   3.134  0.0572  0.1456  0.2610
 4830W        W21014   1.947   0.121  14.006 -0.0328 -0.0597  0.0885
 4831W        W21015   5.424  15.837   3.043  0.2126  0.0034  0.0173
 4832W        W21016  14.927   6.965  14.601 -0.3870 -0.1849 -0.2919
 4833W        W21017   0.787   7.660  13.068 -0.3708  0.3206  0.2379
 4834W        W21018   9.654  11.532  12.159 -0.1293  0.1464  0.0555
 4835W        W21019   7.287   9.447   0.823  0.2367  0.2918  0.0377
 4836W        W21020   6.369   2.685  11.645 -0.1892 -0.0380 -0.0999
 4837W        W21021  14.063  10.254  11.129 -0.0676 -0.1775 -0.1869
 4838W        W21022   7.029  10.479   0.786  0.0969  0.3639  0.1613
 4839W        W21023   5.724   7.919   0.321  0.4494 -0.0488 -0.1770
 4840W        W21024  13.612  10.173   3.217 -0.5237  0.0355  0.2541
 4841W        W21025   2.111   1.110   1.267 -0.0275 -0.2543 -0.1719
 4842W        W21026   7.447  15.473  12.411 -0.3047 -0.0349 -0.3028
 4843W        W21027  11.362   9.597  14.708 -0.2832 -0.1230 -0.0030
 4844W        W21028  14.828   3.835  12.559 -0.0724  0.0681 -0.2227
 4845W        W21029   8.161   0.489  10.937 -0.1506 -0.1415 -0.1417
 4846W        W21030   8.908  10.355  12.533 -0.1220  0.4302  0.2144
 4847W        W21031   2.660  10.370   2.227 -0.0291 -0.2223 -0.1760
 4848W        W21032  16.717   2.126  15.175 -0.0451  0.3719 -0.1655
 4849W        W21033   7.781  17.986  10.978  0.1821  0.3684  0.0443
 4850W        W21034  16.859   7.426   2.959 -0.0279 -0.3819  0.0438
 4851W        W21035  18.794   5.391   4.023 -0.0818 -0.0802 -0.0673
 4852W        W21036   5.736  13.668   3.941 -0.2554 -0.1864  0.1195
 4853W        W21037   2.340   8.199   3.175 -0.0712  0.3028 -0.0133
 4854W        W21038  10.183  12.840  14.360 -0.0663 -0.0179 -0.0143
 4855W        W21039  16.841  12.144  12.548  0.0822 -0.2008 -0.2664
 4856W        W21040  10.128  16.466   1.134  0.0885  0.0084  0.0022
 4857W        W21041  15.583   4.819  14.673 -0.1419  0.2690  0.1624
 4858W        W21042   4.689  13.341   2.662  0.1303 -0.0445  0.0866
 4859W        W21043   7.830   7.743  12.016  0.5193 -0.0042  0.0341
 4860W        W21044  17.129   7.067  14.939  0.0687  0.0831 -0.0172
 4861W        W21045  15.867  13.230  14.286  0.0276  0.0955  0.2350
 4862W        W21046  15.958  16.870  15.028  0.0195  0.0562 -0.1199
 4863W        W21047   0.964  14.768   0.634 -0.0172  0.0968  0.1148
 4864W        W21048   9.511  13.321   3.799 -0.1295  0.0367 -0.1686
 4865W        W21049  12.214   3.745  11.817  0.1117  0.1391 -0.3267
 4866W        W21050   4.480  13.898   0.452  0.0071  0.1965 -0.2360
 4867W        W21051   1.931   3.363  10.821  0.1084  0.0851 -0.1381
 4868W        W21052  10.894   5.663  11.409  0.2187 -0.0083 -0.1038
 4869W        W21053  13.044  10.977   1.523 -0.2710 -0.0829 -0.4140
 4870W        W21054  13.002  13.250  11.602 -0.0865  0.0656  0.1310
 4871W        W21055  13.519  13.400  12.887  0.0196 -0.0874  0.2758
 4872W        W21056   3.268   0.572   0.039  0.1918 -0.4365 -0.2947
 4873W        W21057  13.020  15.708  11.851 -0.0571  0.0521 -0.0552
 4874W        W21058   4.628   7.972  11.240  0.0258 -0.0626  0.1562
 4875W        W21059  10.584  17.870  12.389 -0.0539 -0.3038  0.1103
 4876W        W21060  14.195   6.284   3.611 -0.0886  0.1157  0.1363
 4877W        W21061   8.419   7.199   1.913  0.2800  0.1530 -0.0685
 4878W        W21062   7.211   1.281   3.433  0.0667 -0.1188 -0.0892
 4879W        W21063  18.034  16.441   0.446  0.1470  0.2220 -0.2391
 4880W        W21064   1.369  18.197  13.723 -0.0022 -0.3221  0.0990
 4881W        W21065   3.482   7.227  15.289  0.2255  0.1623 -0.1986
 4882W        W21066  16.070  16.144  12.402 -0.4088  0.1499  0.2556
 4883W        W21067  14.478   8.629   3.706 -0.1061 -0.0456 -0.0674
 4884W        W21068  13.189  11.641  15.372 -0.2696  0.0334  0.3239
 4885W        W21069   0.515   2.492  14.632  0.0105 -0.0818  0.0339
 4886W        W21070  11.616   5.142  10.841 -0.0068 -0.2142  0.1036
 4887W        W21071   4.232  17.908  12.024 -0.1893  0.0903  0.2649
 4888W        W21072  18.722  12.629   2.707 -0.2739  0.1414  0.1232
 4889W        W21073  14.954  11.893   0.761  0.2766 -0.1523 -0.0770
 4890W        W21074  14.673   3.784  14.065  0.0824 -0.1800 -0.0317
 4891W        W21075   5.878  13.059  10.882 -0.1291  0.1890  0.0761
 4892W        W21076  15.831  13.647   0.079  0.0925 -0.0662  0.6856
 4893W        W21077   6.023  13.276   0.784  0.0505 -0.0472  0.0979
 4894W        W21078  14.921   0.913   2.320  0.0173  0.2192 -0.0873
 4895W        W21079  15.133   1.259  11.399 -0.2930  0.2295  0.1674
 4896W        W21080   9.927  13.952   0.634 -0.1638 -0.0240  0.0132
 4897W        W21081   7.237   5.931   3.167 -0.0887 -0.1546  0.1837
 4898W        W21082   6.783   0.844  13.595  0.1137  0.2788  0.1025
 4899W        W21083   9.143  11.901  10.877  0.2732 -0.3833  0.2323
 4900W        W21084  17.628   7.916  15.362 -0.1809 -0.0740  0.1055
 4901W        W21085  17.405   7.518   1.931  0.2253 -0.0638 -0.0862
 4902W        W21086   5.009   3.636   3.765 -0.0377  0.0237  0.1130
 4903W        W21087  18.514  15.325  13.498 -0.1918  0.1414 -0.0223
 4904W        W21088   6.638  15.290  11.769 -0.1688  0.0536 -0.1926
 4905W        W21089   5.446   9.110   1.397  0.0928 -0.1107 -0.4596
 4906W        W21090   7.347   6.392   3.890  0.0205 -0.2573  0.0589
 4907W        W21091  17.993   1.415  12.956 -0.4006  0.1057 -0.1458
 4908W        W21092  15.599   4.036  12.366 -0.0590  0.3184  0.1347
 4909W        W21093  11.787   4.910   2.445 -0.1253 -0.1101  0.0418
 4910W        W21094   4.803   9.430  13.730 -0.1461  0.0786  0.1347
 4911W        W21095   7.228  11.351  13.031  0.3360 -0.1510  0.1251
 4912W        W21096  11.560   2.518  11.857 -0.3326 -0.0752  0.1304
 4913W        W21097   4.043  14.732  14.637  0.0466 -0.0748  0.0221
 4914W        W21098  16.837  14.646   4.053 -0.1061 -0.1298 -0.1480
 4915W        W21099   4.049  16.810   2.916 -0.3997 -0.2581 -0.0608
 4916W        W21100   3.796  12.754   0.820 -0.1916 -0.0181  0.0004
 4917W        W21101  10.213  11.558   2.333 -0.1944  0.2619 -0.1423
 4918W        W21102   2.101   0.240   2.757  0.1738  0.1536  0.1335
 4919W        W21103  18.617   2.060   2.679 -0.2764 -0.1593  0.2550
 4920W        W21104   6.532  12.880  13.568  0.3218  0.1216  0.0689
 4921W        W21105   3.881  16.060   2.383  0.2276  0.0392 -0.1638
 4922W        W21106  13.003   2.735  10.884 -0.0128 -0.1118 -0.1584
 4923W        W21107  11.873   2.885  14.635  0.2101 -0.2847 -0.0226
 4924W        W21108   0.415   6.971   0.672 -0.2526 -0.0991  0.0440
 4925W        W21109  16.248   7.491  11.689  0.1073 -0.4086  0.1240
 4926W        W21110   4.460  13.598   3.931  0.1818 -0.1248  0.0324
 4927W        W21111   9.700   8.590  14.553 -0.3088 -0.1766  0.2348
 4928W        W21112   8.530  18.793   5.066 -0.0242 -0.1445 -0.0982
 4929W        W21113   1.586   7.486   2.070 -0.0091  0.0114 -0.0997
 4930W        W21114   4.645   5.836   2.578 -0.0304  0.1510  0.2256
 4931W        W21115   2.803   3.819   0.453  0.2927  0.0848  0.0753
 4932W        W21116  17.616   6.849   4.084 -0.4928 -0.3447 -0.0797
 4933W        W21117  11.158   3.674   2.950 -0.2368 -0.2813  0.4149
 4934W        W21118   2.987   2.350   2.072  0.2373 -0.0059  0.0699
 4935W        W21119  12.581  13.989   4.928  0.1580  0.1581  0.1273
 4936W        W21120  16.151  15.064  13.369  0.0354 -0.1938  0.0771
 4937W        W21121  11.082   0.312   4.437 -0.0778 -0.0302  0.0015
 4938W        W21122   1.542   8.321  11.745 -0.0679  0.0983  0.1297
 4939W        W21123  15.303   5.728   4.555  0.0409  0.0337  0.0031
 4940W        W21124   1.403   4.416   0.956 -0.3066 -0.1363 -0.0747
 4941W        W21125   7.145   7.247   0.695  0.2665 -0.1674 -0.0169
 4942W        W21126   2.144  17.146  13.956  0.1086  0.2291 -0.0023
 4943W        W21127   9.799   7.081  13.319 -0.1742  0.4582  0.3894
 4944W        W21128   7.446   3.552  10.850 -0.1631 -0.3190  0.0481
 4945W        W21129  11.601  16.335   1.211 -0.1246  0.2411 -0.1510
 4946W        W21130   3.391  10.693   6.180  0.1962 -0.1026 -0.0176
 4947W        W21131  13.373  11.099  13.169 -0.1327  0.4471  0.0422
 4948W        W21132  17.617   0.259   5.081  0.1526  0.2203 -0.3045
 4949W        W21133  14.047  15.601   4.894 -0.0688 -0.2379 -0.0240
 4950W        W21134   0.200   9.298   1.767 -0.1107 -0.0989 -0.1131
 4951W        W21135   3.163  12.247  13.421  0.0664  0.2949  0.0354
 4952W        W21136   6.506  11.397  11.979  0.2243  0.0136  0.3886
 4953W        W21137  10.046   8.900   3.433  0.1035 -0.2266 -0.2412
 4954W        W21138   6.228   8.867   3.659  0.0004 -0.0342 -0.0210
 4955W        W21139   2.904  10.209  11.729  0.0915 -0.3288  0.0381
 4956W        W21140   2.370  10.670   1.624  0.1650  0.0630  0.1469
 4957W        W21141   5.788   1.593  14.150 -0.3531 -0.3036 -0.2380
 4958W        W21142  16.646   6.057  12.965 -0.2501 -0.1393 -0.3447
 4959W        W21143   1.716  18.016   2.862  0.0904  0.3903  0.0244
 4960W        W21144  13.157   5.993   0.365  0.4140 -0.1026  0.1416
 4961W        W21145   8.264  14.030  11.050  0.1299 -0.5356 -0.0415
 4962W        W21146  18.467   2.674  11.767 -0.1056  0.0397 -0.1428
 4963W        W21147   0.500   3.431   3.056 -0.1215  0.0790  0.0686
 4964W        W21148   3.986  11.979  12.888  0.0697 -0.3314  0.1478
 4965W        W21149  12.660  11.846   4.568  0.2351  0.4790  0.1101
 4966W        W21150   3.775   5.093  11.216 -0.1008 -0.2603 -0.0867
 4967W        W21151   8.953  10.678  12.144  0.0249  0.0247  0.1193
 4968W        W21152  15.302  13.989   4.463  0.0286  0.0347  0.1970
 4969W        W21153   8.689  12.901  13.124  0.0958  0.2009 -0.0590
 4970W        W21154  12.447   6.963   1.061  0.1069  0.2239  0.2718
 4971W        W21155  14.996  10.112  14.560  0.0558  0.0390  0.0153
 4972W        W21156  13.639  16.946   1.099  0.1223  0.2035  0.0124
 4973W        W21157   3.393   1.750  13.296  0.0218  0.2442 -0.1885
 4974W        W21158   7.574   0.157  11.475  0.2110 -0.1857  0.4920
 4975W        W21159  11.278  13.974   5.401 -0.2161 -0.2724  0.0111
 4976W        W21160  16.089   2.041  11.632 -0.0730 -0.1937 -0.2460
 4977W        W21161  13.952  17.980   4.171 -0.0136 -0.3397  0.2460
 4978W        W21162   0.147   7.857  10.567  0.0811  0.0887 -0.0013
 4979W        W21163  15.034  18.416   5.067 -0.1567 -0.0994  0.1212
 4980W        W21164   9.368  13.818  12.976  0.0059 -0.0638  0.0698
 4981W        W21165  10.017   4.170  11.254 -0.1870  0.1321  0.1799
 4982W        W21166  10.426   8.241   0.374 -0.0905 -0.0078  0.0249
 4983W        W21167  12.263   2.173   0.309  0.1081  0.2008  0.0233
 4984W        W21168  15.454  16.203   4.937  0.3059 -0.0107  0.0676
 4985W        W21169   9.311   4.492   4.559  0.0661 -0.1639  0.0968
 4986W        W21170   2.570  17.154   4.577  0.0206 -0.0130  0.1209
 4987W        W21171  10.541   6.465  15.089  0.1637 -0.1717 -0.2082
 4988W        W21172   2.443   8.607   4.151 -0.0335  0.2113 -0.0030
 4989W        W21173  14.322  17.213   2.248  0.0850 -0.0820  0.1254
 4990W        W21174  12.557   6.656   4.697 -0.2851  0.3047 -0.0609
 4991W        W21175   6.829   0.218  13.583 -0.4344 -0.0857  0.6754
 4992W        W21176  12.747  17.367  12.363  0.0789  0.2016  0.2426
 4993W        W21177   7.146  10.889  14.182  0.3106  0.1776 -0.2740
 4994W        W21178   9.253   9.030   1.752 -0.0138  0.1847 -0.1416
 4995W        W21179  15.292   4.170   3.099 -0.0869 -0.3219 -0.2961
 4996W        W21180   6.260   0.105   3.328  0.2311  0.1698  0.2647
 4997W        W21181   2.973   9.717  13.359  0.1131  0.0426 -0.0782
 4998W        W21182  15.855  16.332   2.960 -0.0176 -0.2213 -0.0574
 4999W        W21183   4.569   4.403   2.105  0.1976  0.0009 -0.0023
 5000W        W21184   1.885  18.817   4.509 -0.1197  0.0353 -0.1060
 5001W        W21185   1.800  14.615   4.143  0.2598  0.2162  0.0131
 5002W        W21186  13.284   7.311   1.180  0.1536 -0.1760 -0.2281
 5003W        W21187  10.927   4.462   2.003 -0.1291  0.4038  0.5091
 5004W        W21188  16.159  13.458   1.560  0.0676 -0.1589  0.3099
 5005W        W21189   6.281  13.420  15.283  0.4870  0.2023 -0.0237
 5006W        W21190  11.789   1.865  10.469 -0.2854 -0.1064 -0.1521
 5007W        W21191  17.096   5.569   9.893  0.0703  0.2645 -0.0069
 5008W        W21192   3.110  18.017   0.017  0.0436  0.1143  0.0195
 5009W        W21193   2.226  15.760  14.304  0.1808 -0.1381 -0.1640
 5010W        W21194  17.477   8.779   0.334  0.3522  0.0719 -0.4192
 5011W        W21195   9.886  10.222   3.156 -0.0986  0.0485  0.0687
 5012W        W21196   5.699   6.380   2.118 -0.1003  0.1105  0.0808
 5013W        W21197  14.706  16.004  12.094 -0.2774 -0.0265 -0.0011
 5014W        W21198  13.946  17.078   0.740 -0.0258  0.1421 -0.2187
 5015W        W21199   3.128  16.855   3.144  0.1052  0.3068 -0.1430
 5016W        W21200   7.319   6.621  13.167  0.1917  0.0235 -0.1601
 5017W        W21201   0.085   5.759   5.198  0.1428 -0.2940  0.0148
 5018W        W21202   0.237  10.400   2.844  0.3047 -0.0671  0.0857
 5019W        W21203  16.499   3.729  14.135 -0.1730 -0.0855  0.3740
 5020W        W21204  13.303   6.676  10.719  0.0647  0.2446  0.2265
 5021W        W21205   2.718   5.188   2.394  0.1547 -0.0424  0.1478
 5022W        W21206   9.780  17.652   4.236  0.0570  0.0167 -0.1700
 5023W        W21207   7.676   5.229   4.801 -0.1075 -0.0847 -0.1298
 5024W        W21208  11.620   3.813  11.070  0.1919 -0.1569 -0.0691
 5025W        W21209  14.588  16.770  10.485 -0.0098  0.0214  0.3675
 5026W        W21210   1.779  13.833  12.876 -0.0230  0.2050  0.1022
 5027W        W21211   9.291   2.241  13.142 -0.1492  0.0939 -0.0528
 5028W        W21212  17.996   3.732   2.846  0.0774  0.1184 -0.1581
 5029W        W21213   0.349   6.951   1.422 -0.0448 -0.0934 -0.0553
 5030W        W21214  14.989  15.360   4.682  0.0318 -0.1068 -0.2115
 5031W        W21215   6.597  12.283   2.268 -0.0605  0.2978 -0.4727
 5032W        W21216   4.608   2.419   0.211  0.0351  0.5461 -0.0360
 5033W        W21217   5.252   5.330  13.325 -0.1216 -0.0988 -0.1825
 5034W        W21218   7.292   7.181  12.379 -0.1726  0.4692  0.1276
 5035W        W21219  13.873  14.541   3.876  0.1115  0.0401 -0.2229
 5036W        W21220  13.418  14.780  13.907  0.4123 -0.0040  0.0913
 5037W        W21221  16.780   0.306   3.186  0.2549  0.1445  0.0840
 5038W        W21222  14.597  13.764  11.385 -0.2117  0.0199 -0.0665
 5039W        W21223  16.284   9.589  11.217 -0.2714  0.0290 -0.0252
 5040W        W21224  17.338  18.435   2.516  0.0325 -0.0333 -0.3606
 5041W        W21225  10.602   3.831   4.592 -0.0470  0.0345  0.0427
 5042W        W21226  16.164   7.013   1.397  0.1267 -0.0206 -0.2328
 5043W        W21227  12.206  17.271  13.625 -0.0214 -0.0851 -0.0180
 5044W        W21228  15.989   8.829   5.644  0.2348  0.0573  0.2520
 5045W        W21229  12.928   9.015  13.655  0.0341  0.2599 -0.0399
 5046W        W21230   6.979   5.054   1.644 -0.1491 -0.3584 -0.1059
 5047W        W21231   0.045   0.214  13.846  0.0245  0.0876 -0.4936
 5048W        W21232  15.224   0.257  14.688 -0.0844 -0.0942  0.0621
 5049W        W21233  17.651   0.126  15.364  0.3052  0.2510 -0.2216
 5050W        W21234  10.900   0.040   2.280  0.2205 -0.1812 -0.1176
 5051W        W21235   5.700  13.735   2.416  0.0202  0.0333 -0.2127
 5052W        W21236  12.948   3.888   1.189 -0.3085 -0.4290  0.0543
 5053W        W21237   6.966   4.049   2.016 -0.0241 -0.0134  0.1035
 5054W        W21238   0.188   0.766   0.828  0.1672  0.1170  0.1538
 5055W        W21239   8.355   7.758  11.994  0.0701 -0.0148 -0.4308
 5056W        W21240  14.992   8.551  14.044 -0.1960 -0.0309 -0.0162
 5057W        W21241   4.018   6.649   2.920  0.0598  0.3305  0.0774
 5058W        W21242   6.402  11.345  12.499  0.2285  0.0892  0.1935
 5059W        W21243   3.160   3.226   2.122 -0.4386 -0.4324  0.2311
 5060W        W21244   9.697  15.241  15.171  0.0683  0.0190 -0.0289
 5061W        W21245   3.686  12.938   3.766  0.0420 -0.2050  0.1283
 5062W        W21246  10.117   9.015  12.321  0.1450  0.1727  0.0472
 5063W        W21247  14.144  14.614   3.445  0.1077 -0.0589 -0.1650
 5064W        W21248  14.091   5.776  11.854 -0.1410  0.0773  0.1154
 5065W        W21249  13.200   2.555  12.751 -0.1439 -0.0080 -0.1073
 5066W        W21250   7.793  17.885  12.787 -0.1521  0.1737 -0.1113
 5067W        W21251  11.294   1.161  14.500  0.1288  0.0227 -0.2680
 5068W        W21252   0.894   8.914  12.925  0.1126 -0.1138 -0.3430
 5069W        W21253   1.584  11.575  10.628  0.0032 -0.0555  0.0741
 5070W        W21254   9.739  17.506   4.711 -0.0575  0.2382 -0.1620
 5071W        W21255  18.639  14.779   4.928  0.1693 -0.3562  0.2387
 5072W        W21256  18.343   1.743  14.284 -0.1869 -0.2570 -0.4508
 5073W        W21257  13.128  17.479   4.503  0.1210 -0.2604 -0.1923
 5074W        W21258   1.966   3.908  12.086  0.1046  0.0072 -0.2360
 5075W        W21259  17.247  10.109  13.401 -0.1206  0.0858  0.1523
 5076W        W21260   1.114  18.682   2.880  0.1214  0.2291 -0.2085
 5077W        W21261   9.470  18.098   4.326  0.1443  0.1032  0.3289
 5078W        W21262   3.014   7.064   5.542  0.2616 -0.3978  0.0757
 5079W        W21263  14.487   6.650  11.458  0.1053  0.0403 -0.0437
 5080W        W21264  11.440   2.448  12.328 -0.1996 -0.0763  0.0715
 5081W        W21265  18.050   6.948  14.616 -0.1652  0.2826  0.0868
 5082W        W21266  17.137   0.313  14.703 -0.2778 -0.1584 -0.0376
 5083W        W21267   0.054  15.719   4.800  0.3393 -0.0621  0.2043
 5084W        W21268   3.500   7.074  13.583 -0.1720  0.2851  0.1055
 5085W        W21269   3.306   4.731  12.438  0.1120 -0.0295  0.0171
 5086W        W21270   4.712   4.852  12.683 -0.0737 -0.0198 -0.3769
 5087W        W21271  14.980   8.613   0.617  0.1476  0.1740  0.1151
 5088W        W21272  16.012  13.856   0.597 -0.3355  0.1793 -0.4582
 5089W        W21273  12.083  14.812   1.120 -0.0235  0.0519  0.2023
 5090W        W21274  12.145  17.493   0.890 -0.1914  0.1101  0.1645
 5091W        W21275   8.906  18.085   2.231  0.3192  0.0698  0.1153
 5092W        W21276   6.378   1.118  13.715 -0.2864  0.3603  0.4098
 5093W        W21277   7.179   8.776   2.534 -0.0706 -0.0469 -0.0053
 5094W        W21278   9.006  14.894  13.580 -0.0389 -0.2081  0.0381
 5095W        W21279   7.983  16.020   9.210  0.4666 -0.0811  0.3215
 5096W        W21280   9.086  11.819   5.008  0.0656 -0.7347  0.2797
 5097W        W21281   5.199  11.785  14.180  0.0278  0.0097 -0.0050
 5098W        W21282  16.292   8.604  11.596  0.0383 -0.2402  0.0923
 5099W        W21283  16.267   1.546   0.489 -0.2410 -0.1852  0.1955
 5100W        W21284   4.713   4.088  14.882  0.0019 -0.0015 -0.0889
 5101W        W21285  15.793  17.022  13.605  0.1504  0.2215  0.1682
 5102W        W21286   1.262  16.329  15.364 -0.0280  0.1314  0.1355
 5103W        W21287  18.888   0.794   3.252 -0.5770  0.1094  0.2225
 5104W        W21288   5.686   8.030   1.399 -0.0488 -0.4649 -0.2283
 5105W        W21289   1.447  17.639  13.646  0.1235 -0.0780  0.0639
 5106W        W21290   9.506  18.076   0.373 -0.0891 -0.0569 -0.1622
 5107W        W21291   6.836   9.775   2.579  0.1431 -0.2298 -0.1187
 5108W        W21292   3.738  13.127  12.158 -0.1454  0.4360 -0.1925
 5109W        W21293  16.824  15.087  14.590  0.0460 -0.1503 -0.2723
 5110W        W21294   0.861   1.949  14.204 -0.1729  0.1477 -0.0239
 5111W        W21295  12.890  14.341  15.206 -0.2201  0.0961  0.2313
 5112W        W21296   0.822  15.097  14.752  0.2132  0.1557  0.2393
 5113W        W21297   3.074   7.449   0.350 -0.1755  0.5099 -0.2665
 5114W        W21298   2.218  11.368   2.859  0.1940  0.0247 -0.2960
 5115W        W21299   6.875  16.549   1.148 -0.2741 -0.1836 -0.0143
 5116W        W21300  13.322  12.922   2.788  0.0474  0.2044  0.1964
 5117W        W21301  16.511   2.061   0.598 -0.0186 -0.2675 -0.0476
 5118W        W21302  17.897  15.164  10.946  0.1799  0.0331 -0.0198
 5119W        W21303   5.465   0.304   1.726  0.0464 -0.0678 -0.1429
 5120W        W21304  14.865  15.706  13.888  0.3133  0.2369  0.2613
 5121W        W21305  14.466  10.569  10.540  0.2932 -0.3401  0.1588
 5122W        W21306   0.757   4.021   5.088  0.0297 -0.3243 -0.5777
 5123W        W21307   1.888  10.433   4.579 -0.1905 -0.1068 -0.1009
 5124W        W21308   3.811   7.764  12.541 -0.1394  0.1109 -0.3270
 5125W        W21309  13.925   1.203   0.098  0.1256 -0.2121 -0.0574
 5126W        W21310  15.175  14.395  14.880 -0.2395 -0.2629 -0.3376
 5127W        W21311   4.217  13.468   4.391 -0.1404  0.2611  0.0525
 5128W        W21312   7.174   6.892   4.098  0.0580  0.0467 -0.1991
 5129W        W21313  11.594   6.010  11.277 -0.2638 -0.3066 -0.1792
 5130W        W21314   2.165  16.362   2.013  0.0571  0.0374  0.0618
 5131W        W21315   2.070  17.923  12.956  0.2022 -0.1199 -0.1969
 5132W        W21316  15.485  16.138  14.653 -0.1315  0.0768 -0.0111
 5133W        W21317   4.073   1.244   0.860 -0.0999  0.1127 -0.2400
 5134W        W21318  16.191  16.679   4.018  0.1927  0.1747 -0.1429
 5135W        W21319  12.502   0.666   0.086 -0.0686  0.1536 -0.1210
 5136W        W21320  12.256  13.147   1.756 -0.0491 -0.1305 -0.0584
 5137W        W21321   5.484  15.268   0.001  0.4673 -0.1654 -0.2602
 5138W        W21322  17.432  10.346   0.274  0.3103  0.2640 -0.1226
 5139W        W21323   8.857   5.065  12.858  0.4749 -0.1057 -0.0882
 5140W        W21324   3.073  10.087   3.665 -0.2505  0.0993 -0.0651
 5141W        W21325   3.677   5.848   2.182 -0.1883 -0.1647  0.2353
 5142W        W21326   6.328   0.752   4.325 -0.0131 -0.0926  0.2065
 5143W        W21327  18.213  10.881  12.440  0.3567  0.1532 -0.1943
 5144W        W21328   9.652   2.532   1.762 -0.1112  0.1315 -0.0771
 5145W        W21329   7.883   7.783  14.006 -0.0671  0.0230 -0.1635
 5146W        W21330   0.170  15.458  12.823 -0.2643 -0.0142 -0.0195
 5147W        W21331   1.202   9.017  12.448 -0.2953 -0.3035 -0.1560
 5148W        W21332  14.147  10.748  14.964  0.0719 -0.4411  0.1579
 5149W        W21333   5.535   9.177   4.161 -0.2593 -0.0804 -0.2515
 5150W        W21334  16.131   6.898  12.830  0.0039 -0.0536 -0.1218
 5151W        W21335  16.781  13.167  14.435 -0.2372 -0.1024 -0.0504
 5152W        W21336  12.552  11.171   5.133  0.0701  0.1407  0.2476
 5153W        W21337   9.837  15.588   4.445  0.0656 -0.1051 -0.0271
 5154W        W21338   5.026   0.854  11.926  0.0841  0.0888 -0.1906
 5155W        W21339   4.424  16.672   2.648 -0.0029 -0.3579 -0.0140
 5156W        W21340  12.417  18.310   4.558 -0.4503 -0.1480 -0.1135
 5157W        W21341   7.352  12.939   0.702 -0.0504 -0.1248  0.0664
 5158W        W21342  18.594   5.330  14.331  0.0400  0.3972  0.2754
 5159W        W21343   2.260  11.890  11.404  0.1973 -0.1922 -0.3545
 5160W        W21344  13.086  10.574  14.892 -0.0038  0.2675 -0.1912
 5161W        W21345  11.492   4.390   2.675 -0.0258 -0.1400 -0.3418
 5162W        W21346   5.564   6.724   0.968 -0.1635  0.1839 -0.2266
 5163W        W21347   2.637   1.201   3.643  0.1016 -0.1399  0.1042
 5164W        W21348  10.533   6.487  11.673  0.2930 -0.0630  0.1557
 5165W        W21349  15.529   6.494   0.583  0.0274  0.2434 -0.0337
 5166W        W21350  12.596   3.814   2.812 -0.0105  0.0115 -0.0819
 5167W        W21351  10.488   2.948  10.666 -0.1420 -0.1249 -0.3136
 5168W        W21352   2.598  12.258  12.682 -0.4571 -0.1143  0.0525
 5169W        W21353  15.461  15.034  11.587  0.1962 -0.1495  0.0828
 5170W        W21354  11.374  15.519   2.614 -0.0749 -0.0876  0.1860
 5171W        W21355   7.906  10.186  13.079 -0.1249 -0.0642  0.1643
 5172W        W21356  16.374   2.909   4.918 -0.0560 -0.0920 -0.0493
 5173W        W21357   4.991   4.398   1.872 -0.0688  0.0974  0.3244
 5174W        W21358  14.734   6.465   0.636 -0.1954  0.0427 -0.0264
 5175W        W21359   2.025  18.932   3.151 -0.2016 -0.2323  0.0705
 5176W        W21360   3.740   0.824  12.413 -0.0129  0.3014  0.0140
 5177W        W21361   0.410   9.489  13.967 -0.1232  0.1901 -0.1945
 5178W        W21362   2.722  10.172   4.041 -0.1875  0.0082  0.1135
 5179W        W21363  13.940   1.993  11.458  0.0815 -0.0386  0.0551
 5180W        W21364  15.398   3.022  11.281  0.1227  0.1673 -0.0987
 5181W        W21365  18.089  13.771  12.036 -0.2596  0.2317  0.1723
 5182W        W21366   1.276   8.267  14.158 -0.2028  0.1914  0.2577
 5183W        W21367  18.162   7.979  15.339  0.1346  0.1187  0.0345
 5184W        W21368  17.592  10.211   4.442  0.0643  0.3231  0.1529
 5185W        W21369   1.258  18.289  11.180  0.0132  0.0031  0.1005
 5186W        W21370   6.846   9.685  14.464 -0.1700  0.2232 -0.1135
 5187W        W21371  11.561  12.745  13.572  0.0100 -0.2383 -0.3079
 5188W        W21372  12.096   8.446   3.019 -0.0216 -0.0932 -0.1613
 5189W        W21373  16.874   1.960  11.234 -0.3629 -0.1444  0.0718
 5190W        W21374  17.974   3.303  11.576  0.4098 -0.1523 -0.2495
 5191W        W21375   8.243  12.375   3.417 -0.1102 -0.1322 -0.3890
 5192W        W21376   2.041  10.975   4.655  0.0708 -0.2746  0.1104
 5193W        W21377  17.164   0.500  15.188 -0.1135  0.0538  0.1300
 5194W        W21378  14.373  17.910  12.036  0.0305 -0.2144  0.0955
 5195W        W21379  17.050   9.118  11.514 -0.3041  0.0807  0.2389
 5196W        W21380   2.962  10.613  15.154  0.0879  0.1590  0.2682
 5197W        W21381  18.722   1.354   1.935  0.0659 -0.0634 -0.1407
 5198W        W21382   7.992  10.178   4.597  0.0077  0.0857 -0.2127
 5199W        W21383  11.219  12.504   5.071  0.0524 -0.1066  0.0408
 5200W        W21384  18.661  13.569  11.483  0.1676  0.3634 -0.1052
 5201W        W21385   1.638   2.699   0.580 -0.0238  0.1142  0.1338
 5202W        W21386   6.661   6.468  12.372  0.2396  0.1419 -0.0393
 5203W        W21387   6.036  12.865  11.729 -0.0805  0.1230 -0.2219
 5204W        W21388  13.345   8.717   2.371 -0.0032  0.2735 -0.1795
 5205W        W21389   1.721  14.992  14.574  0.0843  0.0916  0.0123
 5206W        W21390  15.165  10.156  13.247 -0.3122 -0.2197  0.3994
 5207W        W21391   4.710   3.472  10.244 -0.3335  0.2373 -0.0332
 5208W        W21392  12.183   1.068  10.909 -0.1956  0.0118  0.1111
 5209W        W21393   0.310  16.944   5.245  0.0595  0.1587  0.1190
 5210W        W21394   7.147  18.846   1.157  0.1273 -0.3525  0.0596
 5211W        W21395   6.580  10.700   5.344  0.1148  0.4025 -0.0906
 5212W        W21396  18.926   3.425  15.111  0.1841 -0.0762  0.1955
 5213W        W21397   0.249  14.661  13.606 -0.3454  0.1678 -0.0244
 5214W        W21398   7.326   9.846  12.359  0.0283  0.0162  0.1466
 5215W        W21399   1.829   4.356  11.222 -0.0250 -0.0706 -0.0352
 5216W        W21400   1.623  11.992   5.869 -0.2293 -0.4041  0.1021
 5217W        W21401  13.863  14.995  12.996  0.2326 -0.2856  0.1499
 5218W        W21402   8.526   6.625  12.802  0.0778  0.0550  0.0022
 5219W        W21403  13.614  12.986   3.180  0.0039  0.3445 -0.1091
 5220W        W21404  14.817  17.616  10.511 -0.4605  0.3172 -0.1324
 5221W        W21405   3.341   6.893   2.266 -0.3953 -0.1228  0.1460
 5222W        W21406   8.826   9.376   1.039 -0.4213 -0.1123  0.1274
 5223W        W21407  18.878  17.209  13.076 -0.1118 -0.0157  0.1134
 5224W        W21408   0.520  13.667   5.087 -0.0539 -0.2684 -0.2112
 5225W        W21409  13.650  11.145   0.929  0.0039 -0.3077 -0.2918
 5226W        W21410   8.786   6.611  10.257  0.3045  0.2622  0.0649
 5227W        W21411   2.530  14.168   4.147 -0.2783  0.1804  0.0314
 5228W        W21412   0.788   7.137  13.765  0.0750 -0.1895  0.0258
 5229W        W21413   1.717   5.259   5.079 -0.0274  0.1050 -0.1864
 5230W        W21414  10.212   9.878   0.005 -0.0008  0.0927  0.1480
 5231W        W21415   1.877   9.163  14.636 -0.1824  0.0210  0.1521
 5232W        W21416  17.755   7.563   1.513  0.0782 -0.2258  0.2558
 5233W        W21417  14.019  10.841  10.236  0.0035 -0.2203 -0.0334
 5234W        W21418   7.755  11.212  10.277 -0.0241  0.1577  0.1518
 5235W        W21419  14.678   1.754   1.993 -0.1592  0.1461  0.0530
 5236W        W21420   5.217   9.372   1.722  0.2590  0.0054 -0.0230
 5237W        W21421   9.311  14.205   0.061  0.1903 -0.0520  0.0842
 5238W        W21422   1.915  15.022   2.213  0.1227 -0.3440 -0.2257
 5239W        W21423   3.716  13.054  14.951 -0.1031 -0.0439 -0.0019
 5240W        W21424  10.095   8.484  12.371  0.0108  0.5060 -0.2825
 5241W        W21425  11.342  10.287   2.953  0.0162  0.1385 -0.1368
 5242W        W21426  15.786   0.129   0.665 -0.0408 -0.1343 -0.3130
 5243W        W21427  16.847   1.428  15.313 -0.1194 -0.1355 -0.3182
 5244W        W21428   3.299   5.647  13.679 -0.1383 -0.0636  0.3548
 5245W        W21429  10.907  10.815  10.797 -0.0494 -0.0223 -0.1177
 5246W        W21430   5.146  15.653   1.474  0.0110  0.2347  0.0881
 5247W        W21431   2.149  12.231  11.054  0.0467  0.0936  0.1028
 5248W        W21432   0.429  14.452  11.124  0.1607  0.1825 -0.0342
 5249W        W21433   5.019  18.797   3.554 -0.1142 -0.2246  0.1433
 5250W        W21434  10.536   8.329  12.111  0.0991  0.1262 -0.2078
 5251W        W21435  10.977  14.109  11.968 -0.3161  0.0229 -0.1386
 5252W        W21436  11.764  11.117   9.361 -0.0181 -0.1147  0.0948
 5253W        W21437   9.680   9.834  14.395 -0.3106  0.1319  0.0028
 5254W        W21438  11.828  18.120  10.880  0.0137 -0.0943 -0.1287
 5255W        W21439  13.624  18.137  11.123 -0.1178  0.0110 -0.2511
 5256W        W21440   1.356   8.927   9.765  0.1304 -0.0941  0.0029
 5257W        W21441   1.688   4.757  10.073 -0.1005 -0.4580 -0.4749
 5258W        W21442  11.332   7.769  10.575 -0.0290  0.0682 -0.5167
 5259W        W21443   3.855   8.542   4.362  0.0127 -0.0922  0.1614
 5260W        W21444  17.651  18.477  11.109 -0.1588  0.3042  0.0340
 5261W        W21445  14.096   0.201  12.942 -0.0129  0.2635  0.1028
 5262W        W21446   4.972   1.844   1.594  0.1706  0.0153  0.1195
 5263W        W21447  14.669  18.383  12.463 -0.0930 -0.1934  0.2597
 5264W        W21448  14.294  16.016  10.200 -0.0609  0.4117  0.1961
 5265W        W21449   5.125  14.922   2.859 -0.1643  0.1678  0.0230
 5266W        W21450   9.010   6.666   3.989  0.4934  0.0731  0.1865
 5267W        W21451   7.343   6.930   0.357  0.1933 -0.3433  0.0360
 5268W        W21452  11.073   1.259   3.072 -0.0817 -0.3814 -0.1550
 5269W        W21453   9.075   2.239   2.361  0.0678 -0.4099  0.3403
 5270W        W21454  14.472   0.495   1.246  0.0359  0.2557  0.1729
 5271W        W21455  14.037   9.007   1.883  0.0454  0.3072  0.0508
 5272W        W21456   6.228   0.657   1.198 -0.0261 -0.2286 -0.1008
 5273W        W21457   0.855   5.996   9.501  0.0291 -0.1595 -0.0847
 5274W        W21458   0.499   7.877   2.304 -0.2145 -0.2575 -0.2046
 5275W        W21459   1.254   3.430  11.727  0.0553  0.1384  0.1300
 5276W        W21460   6.376   5.860   5.238 -0.3772  0.3595 -0.0570
 5277W        W21461   5.378   8.145  15.119 -0.0986  0.2908 -0.0445
 5278W        W21462   3.085   9.212   2.794  0.0238  0.0242  0.1984
 5279W        W21463  16.676   2.582  12.434 -0.1358  0.4424  0.0355
 5280W        W21464  12.161  18.487  10.784 -0.0202  0.0565 -0.3290
 5281W        W21465  17.136   3.253   2.879  0.2742 -0.2090 -0.0613
 5282W        W21466   8.788  10.813  15.293  0.2605  0.0317  0.0389
 5283W        W21467  13.894   6.833  15.032  0.1213 -0.0503  0.2221
 5284W        W21468   5.282   1.254  12.042  0.2181 -0.3353 -0.0864
 5285W        W21469   8.407  13.999   4.917 -0.0387 -0.1433 -0.0576
 5286W        W21470  11.988   6.376   0.122 -0.1207  0.0527 -0.0447
 5287W        W21471   5.948  14.108   0.145 -0.1438  0.1038 -0.1633
 5288W        W21472   7.344   6.427   0.426  0.2370 -0.1399 -0.0291
 5289W        W21473   3.677   0.672  15.103 -0.0351  0.2613  0.2733
 5290W        W21474  11.211  17.267   4.137  0.0731  0.0847  0.0750
 5291W        W21475   6.721   8.494   0.733 -0.1862  0.2704 -0.2134
 5292W        W21476  18.950  16.950  10.494 -0.0919 -0.1407  0.0143
 5293W        W21477  11.461  16.562  13.530  0.2630  0.0026 -0.0611
 5294W        W21478  13.543  18.822  11.298 -0.1309 -0.2444 -0.1586
 5295W        W21479   8.343  12.070   9.601 -0.3209 -0.1270  0.1235
 5296W        W21480   8.491  10.043  11.369 -0.0113 -0.3836 -0.1406
 5297W        W21481   1.427  13.287   0.955  0.0674 -0.1542 -0.0481
 5298W        W21482  15.513  12.801  10.364  0.3320 -0.0860  0.2205
 5299W        W21483  10.014   2.839  15.348 -0.1968  0.4335 -0.2784
 5300W        W21484  12.511  12.606   4.001 -0.0217  0.2717  0.0495
 5301W        W21485  15.097   9.523   4.266 -0.0703  0.2668  0.2782
 5302W        W21486  10.379   5.352   5.185  0.0094 -0.0079  0.0126
 5303W        W21487  10.878   2.332   4.188  0.1974  0.2329  0.2812
 5304W        W21488  12.251  12.911   3.278  0.3512  0.1158 -0.4206
 5305W        W21489   8.620   8.722  11.428  0.0692  0.0313  0.0210
 5306W        W21490   6.355  15.864  15.066 -0.0886 -0.2586  0.2831
 5307W        W21491   2.918  10.776  13.554  0.1237 -0.1300 -0.0515
 5308W        W21492   8.167   3.130   5.016 -0.3369  0.0132  0.1453
 5309W        W21493   5.056  15.130   1.167  0.1934  0.1742  0.1007
 5310W        W21494   2.695  15.773  13.385 -0.0127  0.2440  0.0482
 5311W        W21495   5.346   8.606   1.234  0.0519  0.2806 -0.0618
 5312W        W21496   4.919  14.114  14.121 -0.1891 -0.0621 -0.1368
 5313W        W21497   4.716   5.156   4.846  0.0520  0.2737  0.1159
 5314W        W21498   9.679   1.526   4.306  0.1532  0.3253  0.0669
 5315W        W21499  11.786  16.285   5.769  0.0008  0.2550  0.1111
 5316W        W21500   6.320   8.186   0.294  0.2341  0.1726  0.2088
 5317W        W21501   7.667  18.477  10.930  0.3040 -0.2618 -0.2419
 5318W        W21502   5.778  13.962   5.170  0.1326 -0.1265 -0.1640
 5319W        W21503   5.168  11.326  11.853 -0.0293 -0.0051  0.0968
 5320W        W21504   7.986   1.626   4.980 -0.1003  0.1108  0.3383
 5321W        W21505   7.821   7.435  11.548 -0.2103  0.1442 -0.1593
 5322W        W21506  10.149  17.704   0.288  0.1977 -0.1571  0.0496
 5323W        W21507  13.940   9.759  13.358  0.3060  0.0280  0.2762
 5324W        W21508   9.386   9.453  14.083 -0.1810  0.3435  0.0093
 5325W        W21509   2.701  18.966  12.307  0.0829 -0.1393 -0.1213
 5326W        W21510  18.655   0.806   2.688  0.0582 -0.1265  0.0535
 5327W        W21511   5.873  11.292   1.360  0.2661 -0.1501  0.1977
 5328W        W21512   0.191   8.435  12.698 -0.2070  0.1960  0.1089
 5329W        W21513   8.238   4.730   0.250  0.4360 -0.4546 -0.0220
 5330W        W21514  18.461   2.643  10.550  0.0728 -0.2118 -0.0201
 5331W        W21515   7.291   8.997   3.590  0.0537 -0.0548  0.0889
 5332W        W21516   8.771   9.016   5.330 -0.0712 -0.0040 -0.2166
 5333W        W21517  10.577   2.933  14.476 -0.0154 -0.0036 -0.2539
 5334W        W21518   8.828  12.201   1.179  0.0985  0.1470  0.2031
 5335W        W21519   6.345  16.521  12.964 -0.0456  0.2938 -0.3910
 5336W        W21520  14.288   9.862  13.051 -0.3551  0.2028 -0.0813
 5337W        W21521   7.131  16.199  11.743  0.3068 -0.0386  0.2495
 5338W        W21522  13.701   6.186   2.906  0.1929 -0.0936 -0.2364
 5339W        W21523   3.856   2.627   2.075 -0.1451 -0.0487  0.2203
 5340W        W21524   7.981   3.040   3.171  0.1846  0.0063 -0.0040
 5341W        W21525   8.383   2.962  12.676 -0.1077 -0.1457 -0.1787
 5342W        W21526  13.446  17.882  13.395  0.1377 -0.0054 -0.1654
 5343W        W21527  15.727   2.387  12.457  0.0133  0.0929 -0.0783
 5344W        W21528  11.302  13.853  11.648  0.1142 -0.0013  0.1754
 5345W        W21529   1.636   2.846   4.620 -0.1733  0.1509 -0.0670
 5346W        W21530  12.672  12.331  11.268  0.1841  0.2395 -0.2338
 5347W        W21531   4.244   8.203  12.503 -0.1390  0.0350  0.1308
 5348W        W21532   7.007  17.321  10.901 -0.3359 -0.0201 -0.0662
 5349W        W21533   8.873  12.589   4.141  0.1370  0.0028  0.0030
 5350W        W21534   7.987   2.534   5.177  0.0648  0.3768  0.3012
 5351W        W21535  12.171  12.864   2.208 -0.0700 -0.1529 -0.0854
 5352W        W21536   1.944  17.490  12.004  0.1441 -0.0241 -0.2994
 5353W        W21537   4.476   3.422   3.829 -0.1649  0.6129  0.1956
 5354W        W21538   4.736  12.672  11.602 -0.0529 -0.4098  0.0312
 5355W        W21539   4.162  12.384   5.298  0.0195 -0.2596  0.2326
 5356W        W21540   8.164   6.916  15.019 -0.0883 -0.5504 -0.3163
 5357W        W21541  16.860   8.182   1.578  0.1044  0.0927  0.1322
 5358W        W21542  15.497   1.511  14.921  0.0632 -0.1108 -0.0571
 5359W        W21543  12.261  11.022  13.702  0.0029 -0.0094 -0.0228
 5360W        W21544   3.728  10.992   2.524 -0.1518 -0.2020  0.5318
 5361W        W21545  18.470  12.695   5.057  0.0482 -0.2396 -0.2871
 5362W        W21546  17.304   3.069   0.854 -0.2012 -0.1468  0.0628
 5363W        W21547   2.490   1.902  11.909  0.2146 -0.1606  0.1478
 5364W        W21548   3.592   7.754   2.937 -0.2112  0.0260  0.3813
 5365W        W21549  12.879   0.270  15.103  0.1687 -0.2651 -0.0507
 5366W        W21550  14.428   7.713  11.054 -0.2280 -0.3022 -0.0401
 5367W        W21551  16.447   5.015  13.020  0.0387  0.2019  0.3967
 5368W        W21552  16.175   2.543  14.589  0.2007 -0.0506 -0.0341
 5369W        W21553   7.830   7.296   4.117  0.1896 -0.1633  0.1078
 5370W        W21554  11.144  12.624   3.536 -0.1191 -0.2234 -0.0197
 5371W        W21555  15.020   5.728   0.802 -0.0889  0.3815  0.0321
 5372W        W21556  13.167  12.325   1.107  0.1080  0.1564 -0.0391
 5373W        W21557  17.930  13.527   0.269 -0.3549  0.2699 -0.0397
 5374W        W21558  18.692   9.134  11.380 -0.0469  0.0559  0.0837
 5375W        W21559   8.515   0.346   2.639  0.1158 -0.0536  0.3127
 5376W        W21560   0.220  10.236   2.334  0.5225  0.1838 -0.2343
 5377W        W21561  18.903  16.756   3.998  0.1293 -0.0120 -0.0797
 5378W        W21562  16.986   2.297  11.630 -0.0037  0.1869  0.0160
 5379W        W21563   2.947  16.557  11.848 -0.1816 -0.0821  0.0859
 5380W        W21564  14.777   9.948  13.444 -0.2473 -0.1177  0.3297
 5381W        W21565  16.879  15.876   3.451  0.3147 -0.3729 -0.0288
 5382W        W21566   1.862  11.060   0.813 -0.2119 -0.0351  0.0787
 5383W        W21567   7.250   1.597  15.041 -0.0472  0.1392 -0.0297
 5384W        W21568   1.543  12.575  11.610  0.0598  0.0405  0.1357
 5385W        W21569  16.934  11.717  14.687 -0.0191  0.0474  0.1439
 5386W        W21570  18.669   4.755   2.241 -0.1319 -0.1982  0.1652
 5387W        W21571  14.134  18.625   3.005 -0.0873  0.1075  0.0477
 5388W        W21572  13.769   4.949  12.016  0.1314 -0.1435  0.0653
 5389W        W21573  13.821   7.630  13.945  0.0655  0.0625 -0.3022
 5390W        W21574  16.545   5.823   1.205  0.2630  0.3319  0.2357
 5391W        W21575  13.041  15.828  11.356 -0.0343  0.0747 -0.0482
 5392W        W21576   5.620   2.048   1.279  0.1067 -0.5688  0.0516
 5393W        W21577   0.557   6.744   4.670 -0.0497  0.1223  0.1210
 5394W        W21578  13.567  12.393  11.568  0.2098  0.1149 -0.2873
 5395W        W21579  16.521  13.396  11.678 -0.2230 -0.0905  0.1524
 5396W        W21580  12.649   1.284   5.034 -0.2605  0.2372  0.1002
 5397W        W21581   8.038   1.896  11.639 -0.1827 -0.0330 -0.0120
 5398W        W21582   3.788  15.882   0.181 -0.1220 -0.0385  0.1027
 5399W        W21583  14.867   4.923  11.512 -0.0037 -0.1217  0.0254
 5400W        W21584   0.486  18.520  13.642  0.2716 -0.1345 -0.4081
 5401W        W21585   9.465  11.538  15.072  0.0082 -0.0167 -0.1541
 5402W        W21586   7.513  12.823   3.128  0.1888 -0.0840 -0.0610
 5403W        W21587   3.707   3.971   3.544 -0.2837 -0.2344 -0.1469
 5404W        W21588   4.075  14.113   2.727 -0.0114 -0.1489  0.2666
 5405W        W21589  17.207   5.884  12.507  0.3215 -0.1972 -0.0817
 5406W        W21590   1.539   0.062  14.400  0.2318  0.0390 -0.2330
 5407W        W21591  15.974   5.417  12.486  0.1884  0.1330  0.1817
 5408W        W21592  13.038   3.535  15.373  0.2384 -0.1677 -0.0966
 5409W        W21593   0.277  12.388   1.931  0.1558  0.2611 -0.1292
 5410W        W21594   1.267  13.535  13.109  0.0577 -0.1830 -0.1292
 5411W        W21595   1.388   2.256  13.475  0.5012 -0.0455  0.2904
 5412W        W21596   8.718   1.247   0.923  0.2477  0.3477 -0.1314
 5413W        W21597   9.610  10.623   0.156 -0.3497 -0.2174  0.1170
 5414W        W21598   8.691  13.088   4.708  0.0708 -0.3035 -0.0692
 5415W        W21599   0.600   4.547  12.501 -0.0701  0.1263 -0.1208
 5416W        W21600   4.749  17.867   3.808  0.3291 -0.2372 -0.1892
 5417W        W21601   2.130  11.255  14.766  0.1112  0.1768  0.1003
 5418W        W21602  11.321   7.022  12.781 -0.3744 -0.3077 -0.3281
 5419W        W21603  15.674  17.019  11.325 -0.1108  0.0651  0.0059
 5420W        W21604   6.925   4.780  12.618  0.0386 -0.4658  0.2112
 5421W        W21605   2.765   2.522  15.281  0.1504  0.0387 -0.0384
 5422W        W21606  13.908   4.532  15.179  0.0206 -0.0594  0.1131
 5423W        W21607   2.839  12.368   3.599  0.1284  0.2770  0.1634
 5424W        W21608   7.555   0.939  11.771  0.0118 -0.0539  0.2046
 5425W        W21609   9.605   5.822   2.546  0.0440 -0.0738  0.2536
 5426W        W21610   7.534  12.118   3.878  0.1374 -0.5503 -0.2102
 5427W        W21611   1.137  10.828  14.636 -0.1593 -0.0403 -0.1156
 5428W        W21612   5.647  12.657  14.502 -0.1987 -0.1164  0.0253
 5429W        W21613  16.643  13.255  14.897  0.1315 -0.0979  0.0362
 5430W        W21614   9.053  17.484  14.711 -0.0354 -0.0870  0.0956
 5431W        W21615   3.818  18.877  12.914  0.1541  0.2273  0.4415
 5432W        W21616   6.996  14.031  15.367 -0.0829  0.0410  0.1349
 5433W        W21617  15.457  17.831   4.055  0.0973  0.0083  0.3764
 5434W        W21618   0.388  11.540  11.903  0.0126  0.0789  0.0934
 5435W        W21619  15.705  16.509  13.795  0.0143 -0.1737  0.2528
 5436W        W21620  10.109   4.972  13.202 -0.2452  0.0466 -0.1425
 5437W        W21621  11.386   4.179   5.284  0.1065 -0.2422 -0.1152
 5438W        W21622   9.270  13.518   9.258 -0.1559  0.3316  0.0099
 5439W        W21623  11.804  18.524   3.804 -0.2291 -0.0349 -0.2997
 5440W        W21624  15.697  10.559   4.462  0.1232  0.0565  0.1312
 5441W        W21625  16.723   0.923  13.242  0.0668  0.3511 -0.0702
 5442W        W21626   9.364   3.593  12.143  0.1481 -0.1127 -0.0671
 5443W        W21627   3.366   6.304  15.143 -0.0270  0.1126 -0.0559
 5444W        W21628   9.054   9.348   3.993 -0.4164 -0.1242  0.0230
 5445W        W21629  10.831   2.510   4.741  0.1922  0.1421 -0.1231
 5446W        W21630   3.763   4.896  13.358 -0.2839  0.1361 -0.0095
 5447W        W21631   4.130   2.555  11.839  0.0880 -0.4053  0.0775
 5448W        W21632  10.737  18.142   3.440 -0.3215  0.0444 -0.0363
 5449W        W21633   7.140   1.594  13.312 -0.2265 -0.2986  0.1806
 5450W        W21634   0.285   2.304   5.271  0.0653  0.1884 -0.0677
 5451W        W21635   5.086   9.720   2.053  0.0710  0.1185 -0.2278
 5452W        W21636   3.018  15.469   4.407  0.0408 -0.2550 -0.0427
 5453W        W21637   0.664   4.228   4.654  0.0886  0.0405 -0.1392
 5454W        W21638  11.160   6.564  13.107 -0.3295 -0.0328  0.0851
 5455W        W21639  18.150  17.821   5.555 -0.3945  0.2165  0.1359
 5456W        W21640   9.592   1.057  14.037 -0.2108 -0.0863 -0.1554
 5457W        W21641   2.748   1.107   5.216  0.0619  0.0327  0.1276
 5458W        W21642  10.471   4.759   3.466  0.0621  0.0064 -0.1831
 5459W        W21643  11.128   0.657   3.060 -0.2119  0.0418  0.0323
 5460W        W21644   1.375   5.670  14.867  0.2378 -0.1638  0.3359
 5461W        W21645  16.659   9.552   1.364 -0.0000 -0.0993 -0.1474
 5462W        W21646   7.154  10.886   4.925 -0.0355  0.2197 -0.0834
 5463W        W21647  17.796  11.343   1.090  0.2739 -0.0113 -0.1668
 5464W        W21648  14.769  18.822  10.420  0.1021  0.1007 -0.0481
 5465W        W21649   3.392   6.008  12.651 -0.1674  0.1068 -0.1193
 5466W        W21650  18.760   6.963  12.348  0.1448  0.2096 -0.2917
 5467W        W21651   8.982  18.870   4.676  0.3594 -0.5296 -0.1252
 5468W        W21652   7.517   9.964   3.883  0.0283 -0.1594 -0.2187
 5469W        W21653  17.955  10.419  11.493 -0.1776  0.0342 -0.0413
 5470W        W21654  17.921   6.119   5.485 -0.1504  0.2652 -0.2689
 5471W        W21655   2.123  17.236  14.826 -0.1693  0.0187  0.2526
 5472W        W21656   1.382   2.356   1.008  0.1086  0.4094  0.1839
 5473W        W21657   9.721  15.814   1.495 -0.0990 -0.3474 -0.2238
 5474W        W21658  14.788   2.421  10.528  0.1937 -0.0038  0.0559
 5475W        W21659  11.148  12.298   3.914 -0.1682  0.3840  0.2751
 5476W        W21660  11.479   0.722   4.686  0.1359 -0.0673 -0.2192
 5477W        W21661   2.370  13.815   0.711  0.0421 -0.2263  0.1474
 5478W        W21662  17.414   2.551  11.638 -0.0146  0.0117  0.2660
 5479W        W21663   5.519  12.222   4.922  0.0574 -0.1380 -0.1294
 5480W        W21664  14.259  14.460  14.115 -0.0677  0.1076  0.0147
 5481W        W21665  16.274   1.280  14.203  0.0127  0.0155  0.0324
 5482W        W21666   0.417  15.364  14.957 -0.2684  0.0594 -0.0065
 5483W        W21667   3.557  12.336  13.092  0.2115 -0.3002 -0.4959
 5484W        W21668  14.961  16.188   3.384 -0.0913  0.1186 -0.2849
 5485W        W21669  10.218   6.064   2.616 -0.0729  0.0949  0.0729
 5486W        W21670   4.342   3.389   1.080  0.0174  0.3490 -0.0140
 5487W        W21671  18.882  10.722  14.649  0.0925  0.1439  0.0872
 5488W        W21672   0.164  16.981  14.726  0.0047 -0.1826 -0.0564
 5489W        W21673   5.067   1.663  11.381 -0.1816 -0.2779  0.1116
 5490W        W21674  16.327  11.419  11.485 -0.0583  0.2678  0.1661
 5491W        W21675  14.383  13.109  10.812 -0.0617 -0.0755  0.0786
 5492W        W21676   2.611   6.812  13.310 -0.0936  0.2033  0.1730
 5493W        W21677  13.451   4.831  11.211  0.0040  0.1323 -0.2047
 5494W        W21678   1.670   8.854  12.488  0.1762 -0.1201 -0.1294
 5495W        W21679   7.352  18.875  12.948 -0.0351  0.2357  0.0134
 5496W        W21680  15.030  15.586  10.860 -0.1551 -0.0627 -0.2073
 5497W        W21681  15.294   7.970  12.345 -0.2046 -0.1928 -0.3232
 5498W        W21682  12.222  12.393   1.192 -0.1900  0.1236 -0.0240
 5499W        W21683   9.376  17.281   2.048 -0.3290 -0.1947 -0.0082
 5500W        W21684  18.708  16.255   3.808 -0.0854  0.0150  0.4233
 5501W        W21685  13.847  16.003   4.629 -0.1460  0.2670  0.0786
 5502W        W21686  17.366   5.458  12.252  0.1676  0.2108 -0.0211
 5503W        W21687   4.141  10.896   3.881 -0.3178 -0.2399  0.1369
 5504W        W21688   5.496  18.724   5.054 -0.2155 -0.4217  0.0794
 5505W        W21689  14.499   5.687   1.784 -0.3600  0.2082 -0.3294
 5506W        W21690   5.584   8.835   0.734 -0.0575 -0.2691  0.3775
 5507W        W21691   6.271   7.380   4.018  0.1089  0.0724 -0.1849
 5508W        W21692  17.425  12.638  11.354 -0.1051  0.0638  0.1588
 5509W        W21693   9.373   7.852   0.910  0.1704  0.2496 -0.0656
 5510W        W21694   1.990   1.826  12.160  0.0985 -0.1227 -0.3056
 5511W        W21695   8.677  18.774  13.096 -0.0119 -0.0919 -0.0553
 5512W        W21696   4.304  11.916  13.652 -0.0970 -0.1465 -0.0798
 5513W        W21697   5.096  11.577   0.598 -0.1829  0.1244  0.1020
 5514W        W21698  12.569   8.180  14.692  0.1678  0.3132 -0.1823
 5515W        W21699   7.966   0.213  15.095 -0.3657  0.0441 -0.1336
 5516W        W21700  11.611  16.030  13.579  0.0824  0.3365 -0.3765
 5517W        W21701   7.271  13.317  10.783 -0.1602  0.1550  0.0683
 5518W        W21702   8.065  14.922   2.419 -0.2643 -0.0661 -0.2027
 5519W        W21703   5.173  11.834   5.193 -0.2950 -0.1742 -0.0269
 5520W        W21704  12.997  10.263  13.386 -0.0752 -0.1182  0.0196
 5521W        W21705  15.614  14.272  14.119 -0.3540 -0.0949 -0.0695
 5522W        W21706   8.469  17.219  10.868  0.0805 -0.0293  0.0354
 5523W        W21707   8.892   6.242   3.741  0.1533  0.1349  0.2236
 5524W        W21708  15.434   7.470  12.131 -0.1299 -0.0458 -0.3021
 5525W        W21709   9.890   1.904  14.359  0.2881 -0.0638 -0.2208
 5526W        W21710   0.112  13.936   3.256  0.2238  0.0906  0.0593
 5527W        W21711  15.079  10.014   0.363  0.0638 -0.2918  0.2689
 5528W        W21712  14.136   7.013  11.469 -0.1274 -0.2594 -0.0392
 5529W        W21713  13.860  13.815   4.094 -0.1588  0.4289  0.0258
 5530W        W21714  18.978   7.747  12.623  0.0610  0.2754 -0.1509
 5531W        W21715  11.213   5.454  10.965  0.0086  0.0718 -0.1366
 5532W        W21716  16.485  16.322   1.581  0.0338 -0.1780  0.0272
 5533W        W21717   8.705  17.659   4.465  0.1350  0.0210 -0.2188
 5534W        W21718   4.136   9.914  11.507  0.5007  0.1234 -0.0872
 5535W        W21719   1.707   3.900  12.563 -0.1153  0.0123 -0.1300
 5536W        W21720  10.229   1.675   1.383 -0.2850  0.0874  0.0047
 5537W        W21721   9.832  16.799   4.015  0.1344  0.1954  0.2627
 5538W        W21722  13.802   4.605  11.446  0.3218  0.0500  0.0722
 5539W        W21723   6.009   5.679   2.412 -0.1638 -0.1105  0.0356
 5540W        W21724   7.905   0.796  13.900 -0.2301 -0.2112  0.2565
 5541W        W21725   6.933   9.077  11.765  0.1646  0.1006  0.4838
 5542W        W21726   1.174  12.854   1.861 -0.1770  0.2194  0.1052
 5543W        W21727  10.032  12.585   0.783  0.0178  0.0540 -0.0884
 5544W        W21728   1.081   6.490  10.755 -0.0024 -0.0590 -0.1932
 5545W        W21729   7.021   1.610  13.804 -0.4382 -0.1852 -0.1264
 5546W        W21730   0.563  10.667   2.372 -0.1386 -0.4106 -0.2352
 5547W        W21731   2.964   6.141   3.689  0.1425  0.0344  0.1686
 5548W        W21732  17.024  15.636   5.149 -0.2910  0.1812  0.0008
 5549W        W21733   9.378   3.867  14.687  0.2209  0.3523 -0.1364
 5550W        W21734   9.387   1.748  13.442  0.2425 -0.0546  0.0179
 5551W        W21735  12.732   7.555   1.842  0.4744 -0.2804 -0.1281
 5552W        W21736   1.319   7.977   0.455 -0.1478 -0.0380 -0.0495
 5553W        W21737  16.625  10.308   4.454 -0.3907  0.0231 -0.0812
 5554W        W21738  14.288  13.527  13.912  0.0073  0.0015 -0.0666
 5555W        W21739   3.338  15.228  11.152 -0.1653  0.0237 -0.0158
 5556W        W21740   8.461  15.057   1.077 -0.2131 -0.0211  0.0358
 5557W        W21741   0.238   5.521   1.133  0.0548  0.1084 -0.1011
 5558W        W21742  16.941  11.659  12.832  0.0823  0.2148  0.0536
 5559W        W21743  13.331   7.889   2.915  0.2380 -0.2460 -0.3167
 5560W        W21744  15.292  17.321  13.507  0.0785  0.0763  0.3542
 5561W        W21745  13.058  14.280   4.280  0.3204  0.2866 -0.1646
 5562W        W21746   1.141   7.751  14.085  0.0245  0.0942 -0.1684
 5563W        W21747  12.113   4.951  11.242 -0.3234  0.3106 -0.0742
 5564W        W21748   3.293  18.293  12.783  0.2049  0.4794 -0.1961
 5565W        W21749   2.189  15.856   1.956 -0.2813 -0.1310  0.1624
 5566W        W21750   9.487   2.090  14.191  0.1344 -0.1460 -0.0412
 5567W        W21751  15.730   3.372   2.396 -0.2119 -0.2158 -0.2139
 5568W        W21752   4.948  18.063  12.510 -0.2200  0.2525 -0.3296
 5569W        W21753   7.235  18.133   5.213  0.0296  0.1150  0.2838
 5570W        W21754  13.829  12.145   5.942  0.0892  0.0330 -0.1186
 5571W        W21755   1.222   1.573   3.289 -0.0573  0.0996  0.2839
 5572W        W21756   3.826   3.157   2.093  0.0838  0.0014  0.0863
 5573W        W21757  11.348   8.704  13.043 -0.3278 -0.1072 -0.5027
 5574W        W21758   3.258  15.107  12.388 -0.1900  0.2251 -0.2591
 5575W        W21759  17.746   1.995  10.374 -0.0828 -0.1294 -0.0386
 5576W        W21760  17.362   9.196   0.087 -0.0815 -0.1104 -0.2407
 5577W        W21761   0.928  11.824   5.194 -0.1528  0.2854  0.0160
 5578W        W21762   0.766  16.643   0.934 -0.0180  0.2346 -0.2919
 5579W        W21763  18.577   0.280   0.587 -0.0140  0.2240  0.1639
 5580W        W21764  10.490  18.541  13.111 -0.0177 -0.0335 -0.1237
 5581W        W21765   9.494  16.833   1.363 -0.1243  0.1247 -0.1195
 5582W        W21766   5.497   7.836   6.076 -0.0940  0.0130  0.2012
 5583W        W21767   2.114  14.807  15.278  0.1431  0.0793 -0.2073
 5584W        W21768   7.819  13.011  13.854  0.0834 -0.3290 -0.1918
 5585W        W21769   4.094   4.019   2.004  0.2225 -0.0526  0.0857
 5586W        W21770  12.583   8.958   3.129 -0.1164  0.1214  0.1014
 5587W        W21771   6.426  18.594   4.684  0.0214  0.2188 -0.1453
 5588W        W21772  14.235  13.348  12.135  0.1645 -0.0551  0.0041
 5589W        W21773  17.039   5.664  13.028  0.1622  0.0914  0.1421
 5590W        W21774   7.544  12.241   1.236 -0.0329  0.1395  0.1997
 5591W        W21775   5.127  13.948  11.780  0.0628  0.0840 -0.0814
 5592W        W21776  16.079   3.111  14.451 -0.0591 -0.0417  0.1898
 5593W        W21777  18.055  17.101  11.407  0.1460  0.1917  0.0040
 5594W        W21778   5.739   1.565   4.999  0.0320 -0.0403 -0.1102
 5595W        W21779  12.713   8.012   0.924 -0.0867  0.0925  0.1296
 5596W        W21780  12.634   4.355   0.616  0.0715  0.0666 -0.1687
 5597W        W21781  17.952  13.809  11.057 -0.4364  0.4054 -0.3777
 5598W        W21782  16.092   9.640   4.542 -0.1965 -0.2307  0.0053
 5599W        W21783   0.499   3.030   0.224  0.0593  0.1379 -0.1832
 5600W        W21784   0.193   1.758  13.071 -0.2005 -0.3457 -0.2101
 5601W        W21785  12.651  18.890  11.660 -0.1113 -0.3438  0.2576
 5602W        W21786   9.489  16.055  12.963 -0.1524 -0.2310 -0.1297
 5603W        W21787   7.961   5.425  12.107  0.1203 -0.2777 -0.0936
 5604W        W21788   7.244   0.272   2.532  0.1846 -0.2148 -0.1252
 5605W        W21789   2.617   6.341  12.070 -0.1774 -0.1459  0.0808
 5606W        W21790  10.361   2.360  14.651 -0.2412  0.2670  0.0681
 5607W        W21791   8.716  12.855   9.830 -0.3791 -0.1263 -0.1134
 5608W        W21792   9.603  10.743  14.661 -0.0007 -0.1109 -0.1827
 5609W        W21793   1.784   8.402   2.445 -0.0988 -0.2271  0.3180
 5610W        W21794   6.996  14.115   4.369 -0.1268 -0.2861 -0.0992
 5611W        W21795   8.150   5.239   4.492 -0.0264  0.2470  0.2370
 5612W        W21796   2.003   9.477  11.431  0.0194 -0.1800  0.0885
 5613W        W21797   2.600   3.615  13.662  0.1141 -0.2674 -0.0021
 5614W        W21798   8.885  16.730   4.183 -0.2444 -0.1125 -0.1958
 5615W        W21799  18.755   0.660  10.872  0.0312 -0.2896 -0.2862
 5616W        W21800   5.493  16.158  11.550 -0.1576  0.1844  0.1263
 5617W        W21801   6.101  12.609  13.454 -0.1711 -0.3377  0.2471
 5618W        W21802   2.225  10.285  11.865 -0.2194 -0.1842  0.3072
 5619W        W21803  17.479   2.476  13.500 -0.1709 -0.2916 -0.1735
 5620W        W21804  12.402   2.057  14.183 -0.0093  0.1286  0.2361
 5621W        W21805   6.242   9.309  13.230  0.0796  0.0763  0.0295
 5622W        W21806   2.096  11.570  12.735  0.1023  0.1827 -0.3840
 5623W        W21807  10.718  14.862  14.485 -0.1237 -0.0393  0.0793
 5624W        W21808  12.115  16.886   0.766  0.0535 -0.0558 -0.1371
 5625W        W21809   9.905   0.872   2.244 -0.1641 -0.0183 -0.0926
 5626W        W21810  12.611   9.083  14.879  0.1263 -0.2190  0.1370
 5627W        W21811  11.176   4.671   2.992  0.0458 -0.1504  0.0681
 5628W        W21812  18.117   2.205  11.776 -0.1263 -0.0868 -0.2579
 5629W        W21813   1.444  14.715   5.259  0.0991 -0.0581  0.0975
 5630W        W21814   1.159  13.189  12.743  0.2077 -0.0432 -0.1169
 5631W        W21815   2.677   2.532  14.455 -0.2921  0.0712  0.2546
 5632W        W21816   5.097  12.055   4.684  0.0806  0.2068 -0.0901
 5633W        W21817  14.215   6.553  12.842  0.4637 -0.0398 -0.0872
 5634W        W21818  16.331  10.586  11.957  0.1509 -0.2717 -0.2245
 5635W        W21819   0.039   1.196   1.545 -0.0225  0.3254 -0.4110
 5636W        W21820   5.548  13.499   1.770 -0.2410  0.0720  0.2040
 5637W        W21821  17.817  14.022  11.717 -0.1916  0.1265 -0.0195
 5638W        W21822   3.672   1.840  12.302 -0.1016 -0.3845 -0.4273
 5639W        W21823  11.164  11.156  11.100  0.0962 -0.1118  0.1378
 5640W        W21824  10.295  15.381  13.749  0.3121 -0.0459 -0.0946
 5641W        W21825   5.842   5.013   4.592 -0.1395 -0.0051  0.0279
 5642W        W21826  10.410   2.889  13.545  0.3668 -0.3060 -0.1301
 5643W        W21827  11.458   2.671  14.750  0.2169 -0.0817  0.2116
 5644W        W21828   9.581  15.955   0.598 -0.1464 -0.0342  0.2104
 5645W        W21829  15.599   5.368  12.102  0.0785 -0.1479 -0.0465
 5646W        W21830   9.923  17.431   2.534 -0.1755 -0.2102  0.0532
 5647W        W21831  15.274  15.945  11.754 -0.1602  0.2942  0.0479
 5648W        W21832  13.478   3.944  10.817  0.1418 -0.0818 -0.1712
 5649W        W21833  16.864   5.838  15.056 -0.2480 -0.1666  0.0411
 5650W        W21834   1.775   8.522  14.998 -0.3194 -0.4599 -0.2082
 5651W        W21835   2.229   8.741   2.348  0.0873  0.0608  0.0525
 5652W        W21836   9.257   1.555  15.384  0.3299  0.1551  0.2584
 5653W        W21837   0.723   2.080   5.380  0.1590 -0.1780  0.3979
 5654W        W21838  13.746  15.763  12.111  0.0583  0.1865 -0.0944
 5655W        W21839  12.635  10.944  15.011 -0.0513 -0.4920 -0.0972
 5656W        W21840  18.073  15.936  11.340 -0.1175  0.2170  0.0048
 5657W        W21841  18.109   0.199  14.737 -0.1021 -0.1680 -0.2305
 5658W        W21842  16.227  15.984   4.870 -0.4852 -0.0306  0.2105
 5659W        W21843  17.410   6.517   3.654 -0.1224  0.1561  0.1200
 5660W        W21844  11.922  10.581   4.016  0.1107 -0.0157  0.0010
 5661W        W21845  18.364  10.893   9.600 -0.0301 -0.1061 -0.1510
 5662W        W21846  12.964  13.551  12.055  0.1374 -0.2655 -0.0228
 5663W        W21847   6.873  14.045   2.936 -0.1272  0.1764 -0.0857
 5664W        W21848   6.388   7.504   4.994 -0.0257 -0.2476  0.4097
 5665W        W21849  12.198  14.689  14.103  0.1298  0.1120  0.1495
 5666W        W21850   5.094   7.553  13.825 -0.0699  0.0632  0.0644
 5667W        W21851  12.420  12.062   0.077 -0.4850  0.0954  0.2583
 5668W        W21852   5.899   7.098   4.951  0.1189 -0.0095  0.1038
 5669W        W21853   8.859  14.368   0.022  0.1638  0.1756 -0.4053
 5670W        W21854  14.786  18.049   1.296  0.0370 -0.2899  0.3096
 5671W        W21855  11.146   2.272  10.516 -0.2758  0.2325 -0.0309
 5672W        W21856   3.298   5.106  11.421 -0.0338 -0.3308  0.0488
 5673W        W21857   0.736  15.396   5.105 -0.0993 -0.2509  0.1620
 5674W        W21858   4.784  11.852   4.357 -0.3350  0.2703  0.0570
 5675W        W21859  11.236  18.040  11.795 -0.2442 -0.1924  0.3247
 5676W        W21860   7.749   7.722   4.332  0.0112 -0.0602  0.2004
 5677W        W21861   8.485  13.153   2.777 -0.3401  0.1267  0.1909
 5678W        W21862   2.558   0.604   5.296 -0.1224  0.2248  0.1583
 5679W        W21863  15.085  17.123  13.061 -0.5485 -0.2688  0.1664
 5680W        W21864  16.774  17.884  10.906 -0.3494 -0.0461 -0.2191
 5681W        W21865  13.721  17.365   2.397 -0.1040  0.0315  0.0884
 5682W        W21866  13.499   0.896   2.143  0.2601 -0.2475 -0.2545
 5683W        W21867   3.551   5.662   3.595  0.2159 -0.2930 -0.1581
 5684W        W21868   3.928   7.809  13.050 -0.2390 -0.2324  0.0478
 5685W        W21869  16.038  15.584   1.771 -0.1298  0.0687  0.1850
 5686W        W21870  16.000  13.203   0.748  0.1941 -0.0440  0.0646
 5687W        W21871   9.261  15.222  14.477 -0.0941 -0.3142 -0.0632
 5688W        W21872  15.772  15.758  12.722 -0.4695 -0.1058 -0.2299
 5689W        W21873  14.835  12.115  14.519 -0.1653  0.1842  0.3141
 5690W        W21874  18.051   7.506  14.615  0.1374  0.1313 -0.2741
 5691W        W21875   0.158   1.371   5.258  0.1642  0.0478 -0.0016
 5692W        W21876  18.541   5.333   2.286  0.3762  0.1391  0.0466
 5693W        W21877  18.197  13.023  14.174  0.0796 -0.4717  0.0598
 5694W        W21878   5.700  18.509  11.328  0.0894  0.1192 -0.0135
 5695W        W21879   1.417   5.473  12.383 -0.2053 -0.1115  0.0546
 5696W        W21880   5.079   0.978   3.907  0.0844  0.0285  0.0837
 5697W        W21881  10.190   3.725  14.930 -0.1052 -0.4142 -0.3007
 5698W        W21882   9.939   8.287  10.696  0.0855  0.0200  0.3240
 5699W        W21883   3.597  16.790  14.594  0.2122 -0.0799  0.1017
 5700W        W21884   3.495  15.875  11.793  0.0172 -0.3167 -0.0469
 5701W        W21885  13.804  14.923   1.657  0.4249 -0.1299 -0.1174
 5702W        W21886   2.924   6.671   3.803  0.0257 -0.1130 -0.3300
 5703W        W21887  17.851  13.611  13.453 -0.4627  0.1281  0.1288
 5704W        W21888   2.525   1.128  14.133  0.1207 -0.2490 -0.1772
 5705W        W21889  10.709  13.157   2.328  0.1072 -0.1996  0.0254
 5706W        W21890   9.438   1.197   4.583 -0.2060 -0.0133 -0.0192
 5707W        W21891  10.320   0.513   0.599 -0.2385 -0.1047  0.1323
 5708W        W21892   8.903   7.577  14.100  0.2465 -0.0471 -0.1065
 5709W        W21893  14.384   6.485   1.000  0.0465 -0.2699  0.0071
 5710W        W21894   7.898   9.306  11.617 -0.0662  0.1629 -0.2067
 5711W        W21895   8.736  12.197  13.056 -0.2095 -0.1108 -0.1746
 5712W        W21896   6.484  17.793   4.687  0.0184 -0.0526  0.3991
 5713W        W21897   9.305  17.575  12.018  0.3296  0.2668  0.1471
 5714W        W21898   3.209   2.726   5.410 -0.2763 -0.0761  0.2564
 5715W        W21899  13.883  15.152  11.220 -0.3715 -0.0640  0.0467
 5716W        W21900  15.094   0.794   3.161  0.2161 -0.2116  0.0554
 5717W        W21901  11.405   2.710  12.764 -0.1178  0.2417  0.0304
 5718W        W21902   2.479  10.760   0.065 -0.3341  0.1259 -0.2276
 5719W        W21903  15.089   5.339  14.499  0.1025 -0.0209  0.2062
 5720W        W21904   4.809  11.581  11.539 -0.2380 -0.1395 -0.0781
 5721W        W21905  15.027  14.155   2.617 -0.1497  0.1405 -0.1781
 5722W        W21906   4.037   1.275  12.945  0.1619 -0.1061  0.3207
 5723W        W21907  18.599  10.157  12.726  0.2947 -0.0676 -0.0126
 5724W        W21908   0.005  11.737   0.323 -0.0657 -0.1530 -0.2501
 5725W        W21909  16.798  18.562   3.800 -0.0986  0.1179  0.0749
 5726W        W21910  12.653  11.285  14.312 -0.2388  0.2121 -0.1011
 5727W        W21911  15.532   1.509  13.848 -0.0578 -0.1834  0.3150
 5728W        W21912   2.962   3.658  11.118  0.0222 -0.3648 -0.1387
 5729W        W21913   1.416  11.924  13.744 -0.2045  0.1522  0.3453
 5730W        W21914   4.702  16.721  13.939  0.2869  0.5356  0.0060
 5731W        W21915  17.619   3.372  14.148 -0.1741 -0.0122  0.0921
 5732W        W21916   5.491   9.772   2.897  0.0337 -0.4062  0.2000
 5733W        W21917   9.455  17.170   1.004 -0.0848 -0.0618  0.1176
 5734W        W21918  10.527  11.135  12.375  0.2836  0.0324  0.1395
 5735W        W21919   8.028  12.261  12.540  0.2752  0.1638 -0.0879
 5736W        W21920  16.555   2.590  13.877 -0.0434  0.1031 -0.0220
 5737W        W21921   4.349   0.819   0.911  0.0475  0.1502 -0.2550
 5738W        W21922  10.714   9.357   4.751 -0.2239  0.0524  0.1645
 5739W        W21923  14.159  15.389  13.708 -0.0379 -0.1795  0.2395
 5740W        W21924  15.553  10.526  15.107  0.1564 -0.3621  0.1587
 5741W        W21925   2.058   6.476   4.064  0.1678  0.0817  0.1414
 5742W        W21926  16.169   6.392  12.978  0.1115 -0.0581 -0.3673
 5743W        W21927   7.675   0.479   0.636 -0.2615 -0.2184 -0.0408
 5744W        W21928  16.865  13.695   0.343  0.1201  0.0515  0.2190
 5745W        W21929   7.235   8.223   2.324  0.2523 -0.0405 -0.1247
 5746W        W21930   8.234  11.096   1.110 -0.0588  0.3152 -0.1713
 5747W        W21931   9.636  12.460   0.470  0.1276  0.1553  0.0509
 5748W        W21932   8.784   9.396  12.075 -0.3455 -0.3114 -0.1146
 5749W        W21933   3.592  18.349   4.687 -0.0235 -0.3470 -0.2207
 5750W        W21934   7.437  14.319  10.829  0.2870  0.0157 -0.2671
 5751W        W21935  18.738   1.403   4.284  0.0592  0.1319 -0.0244
 5752W        W21936   8.897  15.153   3.974  0.2168  0.0482 -0.0093
 5753W        W21937   2.406   8.523  15.062 -0.1755  0.2407  0.2469
 5754W        W21938   3.090  17.378  11.279 -0.0987 -0.2455  0.1769
 5755W        W21939   2.260   1.981  14.032 -0.2534  0.0086  0.2755
 5756W        W21940  13.005  12.265   1.562 -0.1295 -0.2859  0.1451
 5757W        W21941  13.471   8.828  11.140  0.1780  0.0912 -0.0318
 5758W        W21942  12.538   3.227  12.643  0.1394  0.2927 -0.1201
 5759W        W21943  11.315  13.791  14.149  0.1890  0.3243  0.0711
 5760W        W21944  16.497  16.359  12.265 -0.0116 -0.1583 -0.2691
 5761W        W21945  14.397   4.150   1.909 -0.2632  0.3644  0.4053
 5762W        W21946   2.880  13.300  10.605 -0.3156  0.2390 -0.3201
 5763W        W21947  10.897  18.528   4.766 -0.0361 -0.2828  0.1118
 5764W        W21948  16.129   2.403  10.662 -0.2483  0.0745 -0.0109
 5765W        W21949  17.951  11.116   3.546 -0.1153 -0.0142  0.1274
 5766W        W21950  18.046   1.355  11.985 -0.0171  0.0740 -0.1293
 5767W        W21951  14.122  16.394   1.764 -0.1423  0.2172  0.4831
 5768W        W21952  18.609  18.725   4.825  0.1012 -0.0638  0.1636
 5769W        W21953   7.283  14.322   2.506  0.0761  0.0484  0.0240
 5770W        W21954  12.261  10.017  11.776  0.0746 -0.1866  0.0048
 5771W        W21955  11.477   3.500  10.766  0.2276  0.5400 -0.0358
 5772W        W21956   0.555   1.176   2.124 -0.1756 -0.1123  0.1568
 5773W        W21957  16.589  10.415  15.121 -0.0559  0.2489  0.1629
 5774W        W21958  10.554   7.833   0.779  0.1231  0.2062 -0.1151
 5775W        W21959  10.205   7.071   4.684  0.0008 -0.1968 -0.0158
 5776W        W21960   5.339  13.958   4.994  0.1248  0.0475 -0.0543
 5777W        W21961   3.408  16.167   2.516 -0.1277  0.1747  0.0121
 5778W        W21962   0.336   2.656   3.340 -0.1704 -0.1812  0.0304
 5779W        W21963   3.883  14.276   2.254  0.0738  0.2516 -0.0520
 5780W        W21964  14.351   1.578  12.687 -0.0879  0.1559 -0.1661
 5781W        W21965  11.494  17.136   2.438 -0.0986  0.1475 -0.1024
 5782W        W21966   3.428   1.026   0.983 -0.1042 -0.0273  0.0049
 5783W        W21967   6.216  14.670  12.352  0.2001 -0.0066  0.0197
 5784W        W21968   6.754   0.022  14.047 -0.0890 -0.0176 -0.1460
 5785W        W21969  10.696   5.926  12.800 -0.0809 -0.0282  0.3073
 5786W        W21970  10.548   9.098   5.306  0.2825 -0.3693  0.2267
 5787W        W21971   9.917  13.764  14.251 -0.0176  0.0714 -0.0672
 5788W        W21972  17.291  12.120   3.164 -0.1295 -0.1149  0.1859
 5789W        W21973  10.509   1.982  15.010  0.2222  0.1594  0.2400
 5790W        W21974   9.646   5.185  14.076 -0.1384  0.2082  0.0907
 5791W        W21975  10.882  12.905   0.614  0.4137 -0.0429  0.1059
 5792W        W21976   6.526   3.382  11.047 -0.0079 -0.0912 -0.2921
 5793W        W21977   2.733  15.024   1.804 -0.3118 -0.1644  0.5146
 5794W        W21978   2.172  16.287  11.553  0.1264 -0.0200  0.1187
 5795W        W21979  12.194  16.889   2.943  0.2570 -0.0015  0.1891
 5796W        W21980   7.695  10.832   4.950  0.2586  0.1684  0.1991
 5797W        W21981  10.473   0.992  12.781 -0.2152  0.1263 -0.1608
 5798W        W21982   0.368  14.897   4.345  0.0245  0.2103 -0.0880
 5799W        W21983   1.179  17.829  11.439 -0.0337 -0.1307  0.0566
 5800W        W21984  13.106  17.482  13.334 -0.0564  0.3546  0.0318
 5801W        W21985  12.198   6.365   0.632 -0.0425 -0.2873 -0.2042
 5802W        W21986   0.274   8.035   4.964  0.0739  0.0105  0.0487
 5803W        W21987  15.826  10.997   0.444 -0.0239 -0.3108 -0.1296
 5804W        W21988   3.893  17.931  10.961 -0.3977  0.2896 -0.0553
 5805W        W21989   9.984  13.502  11.377 -0.0842 -0.1501  0.1028
 5806W        W21990   1.367   7.493  12.636 -0.0738 -0.2154 -0.2715
 5807W        W21991   3.002   1.869  13.565  0.4266 -0.2463  0.1339
 5808W        W21992  18.087  17.244   2.004 -0.6556  0.2642 -0.2747
 5809W        W21993  16.106  18.957   2.203 -0.0379 -0.0758 -0.2181
 5810W        W21994   2.950  14.113  11.796  0.1444  0.3965  0.3287
 5811W        W21995   1.134   4.036   1.314  0.0047  0.1984 -0.2233
 5812W        W21996   8.213   7.516  10.570 -0.2457 -0.0121  0.0310
 5813W        W21997  15.034  15.696   1.230 -0.3684  0.0411  0.0002
 5814W        W21998   5.783   3.042   0.886  0.1812 -0.0218  0.2330
 5815W        W21999   3.837   6.804  13.232  0.2471  0.0225 -0.0469
 5816W        W22000  14.271  14.126   1.981  0.0749  0.1130  0.0886
 5817W        W22001  10.671  13.603  13.800 -0.0685 -0.0604 -0.1257
 5818W        W22002   4.937   0.064   4.041 -0.2681 -0.0018  0.1501
 5819W        W22003   3.697   6.918  11.962  0.2192 -0.1695 -0.2196
 5820W        W22004  15.144   1.655  15.214  0.1561 -0.0021  0.2374
 5821W        W22005  10.387  14.504  13.550  0.0439  0.1455 -0.2162
 5822W        W22006   4.050   4.452  13.348  0.1624  0.2352  0.0654
 5823W        W22007  14.190  16.661   5.599 -0.3846  0.1497  0.0080
 5824W        W22008   9.653  11.314   4.770 -0.0086  0.1145  0.2183
 5825W        W22009  12.613   3.383  14.223  0.0826  0.3176  0.0956
 5826W        W22010  16.201  18.674  12.481  0.0195 -0.1372  0.0308
 5827W        W22011  10.976   3.444   3.424 -0.0888  0.0314  0.0995
 5828W        W22012   9.834   5.216   4.433  0.0092 -0.0926  0.1915
 5829W        W22013   1.431  11.986  15.361  0.1731 -0.1154  0.0375
 5830W        W22014   4.875  17.600   1.287  0.1779  0.0532 -0.2245
 5831W        W22015   5.605  10.122   0.535  0.3832  0.3193  0.2594
 5832W        W22016   6.130  12.805  13.883  0.0757 -0.0625  0.3600
 5833W        W22017   5.714  14.030   5.701 -0.2395 -0.1575 -0.1083
 5834W        W22018   5.165  16.521  14.445  0.2017  0.1556 -0.0959
 5835W        W22019   5.711   1.653   3.595  0.6323 -0.0600 -0.0112
 5836W        W22020   3.057  12.695   1.841  0.2148 -0.0610  0.2199
 5837W        W22021   0.984   1.504   2.852  0.1397 -0.2770 -0.1419
 5838W        W22022   7.379   2.158   1.389  0.2530 -0.0466  0.4774
 5839W        W22023  18.016  11.822   4.945  0.2218 -0.1236  0.1849
 5840W        W22024  17.418   4.730   4.899  0.1669 -0.0297 -0.1364
 5841W        W22025   0.205   6.050  13.539  0.0589 -0.0408  0.1452
 5842W        W22026  15.701  16.919  12.378 -0.1192 -0.2302 -0.3964
 5843W        W22027   1.892   4.870  13.309 -0.1082 -0.0083 -0.0557
 5844W        W22028   1.619   5.203  11.422  0.0019  0.2040 -0.2990
 5845W        W22029   1.822  11.354   1.754 -0.1240  0.3472 -0.1322
 5846W        W22030  15.115  12.576   2.044  0.2291 -0.0933  0.0796
 5847W        W22031  17.948  12.746   1.837  0.1546  0.3005 -0.1102
 5848W        W22032  17.069   9.392  12.478 -0.2567 -0.0577 -0.0273
 5849W        W22033  16.664   0.467   3.697 -0.2430  0.5354 -0.0896
 5850W        W22034   3.919  13.534  10.269  0.3702  0.3016 -0.2213
 5851W        W22035  18.367   7.859   0.629  0.5029  0.2146  0.0365
 5852W        W22036  18.161   6.855   2.071 -0.2004 -0.1204 -0.3378
 5853W        W22037   7.166  14.009   1.399 -0.0841  0.3184 -0.1164
 5854W        W22038   6.549  17.125   3.876  0.0752  0.3418 -0.2356
 5855W        W22039   6.853  11.132   2.071 -0.2544 -0.0073  0.1419
 5856W        W22040   7.220   6.131  14.071 -0.0690 -0.1101 -0.0805
 5857W        W22041   5.666  18.598  14.732  0.1244 -0.2058  0.1450
 5858W        W22042  12.597   9.294  12.855 -0.1224 -0.2009 -0.2344
 5859W        W22043  17.261  11.256   2.968 -0.0142 -0.0446 -0.0351
 5860W        W22044   5.136  13.138   3.098  0.0049 -0.2127  0.1937
 5861W        W22045  17.813   6.348   4.137  0.0679 -0.0795 -0.1160
 5862W        W22046   8.402   4.599  13.746  0.0267 -0.0496 -0.0552
 5863W        W22047   5.234   3.653  11.936 -0.0135  0.0726 -0.0785
 5864W        W22048  17.317   4.447  11.058  0.1819 -0.3553  0.0696
 5865W        W22049  13.760  18.692   0.571 -0.0940 -0.6051 -0.3210
 5866W        W22050  18.193   7.156   3.467 -0.1605 -0.0551  0.1024
 5867W        W22051   9.767  14.089  13.023  0.2225 -0.0094 -0.1521
 5868W        W22052   3.700   8.170  13.879  0.1267  0.1528 -0.3350
 5869W        W22053   3.055   2.985   0.827  0.0467  0.1864  0.3262
 5870W        W22054  12.452  12.909   9.102 -0.1197  0.2243  0.4050
 5871W        W22055   4.222  18.919   4.813  0.0682 -0.1311 -0.0199
 5872W        W22056   6.514   1.232   0.259  0.0087  0.0898  0.5854
 5873W        W22057   2.038   4.063   1.850  0.1030  0.0815 -0.1171
 5874W        W22058  15.565  15.028   3.175  0.2229  0.0270  0.0871
 5875W        W22059  14.724  16.957   2.304 -0.3378 -0.1270  0.0343
 5876W        W22060   4.486  18.929  13.635  0.1413 -0.1450  0.1376
 5877W        W22061   3.927  14.838   0.311 -0.0629  0.3593 -0.1825
 5878W        W22062  16.028   8.825   1.034 -0.0855 -0.1827  0.0998
 5879W        W22063  16.510  16.424   4.801 -0.0589 -0.1032  0.0952
 5880W        W22064  16.886  10.469   0.697 -0.2515 -0.2236  0.1084
 5881W        W22065  10.366   3.525   2.695 -0.0845  0.0743 -0.0067
 5882W        W22066  11.841  15.929   3.847  0.1891 -0.0008  0.0344
 5883W        W22067   0.116  18.991  11.314  0.1347 -0.4006 -0.0714
 5884W        W22068  16.407   7.606   1.063  0.0038 -0.3895 -0.1667
 5885W        W22069  18.940  11.646  12.718 -0.0257 -0.2446 -0.1970
 5886W        W22070   8.293   7.822   5.165  0.1094  0.2770  0.2297
 5887W        W22071   6.037  16.668  14.516  0.0328 -0.0429  0.1519
 5888W        W22072   1.231   6.896  13.927 -0.0976  0.0134  0.0647
 5889W        W22073   1.106   2.596  12.589  0.1004  0.1826 -0.3470
 5890W        W22074   2.574  12.532   2.157  0.3072  0.1236  0.2489
 5891W        W22075   9.498  15.064  13.067 -0.0384  0.3400  0.1634
 5892W        W22076   5.885   2.350  11.843  0.0292  0.0840 -0.1075
 5893W        W22077   1.545  13.476  11.935 -0.0801  0.2621 -0.0006
 5894W        W22078   0.920   5.343  13.324 -0.3791  0.1048 -0.1163
 5895W        W22079   9.712   2.980   4.020  0.1198  0.0535 -0.1226
 5896W        W22080   6.545   6.152  14.819  0.2234  0.3098  0.1513
 5897W        W22081  12.975   1.927  11.417 -0.1563  0.3002  0.0800
 5898W        W22082   6.282  14.704   3.080  0.2461 -0.3558  0.0486
 5899W        W22083  12.106  12.662  13.286  0.0066 -0.3114  0.1339
 5900W        W22084   7.496  12.772  13.568  0.1708  0.1160 -0.0027
 5901W        W22085  11.319  14.046   4.917 -0.1392  0.3267 -0.0397
 5902W        W22086   1.529  10.426   5.025  0.1701  0.1342  0.0571
 5903W        W22087   6.992   7.278  12.030 -0.0695  0.1924  0.2115
 5904W        W22088   7.074  18.360   4.225  0.2836 -0.3901  0.0229
 5905W        W22089  13.156  15.702   3.116  0.1658 -0.0450 -0.1906
 5906W        W22090   2.936   9.723  11.790 -0.1086  0.3854  0.2682
 5907W        W22091   8.235   4.596   2.359  0.0523  0.0190 -0.0727
 5908W        W22092   7.751   8.707   3.741  0.0933 -0.0145 -0.1889
 5909W        W22093  13.318  11.254   4.313 -0.0093  0.1863 -0.2708
 5910W        W22094  14.257   9.034   3.897 -0.1440  0.1724 -0.1357
 5911W        W22095   3.489  13.955  10.920 -0.0690  0.0768  0.3447
 5912W        W22096   0.926  18.468   5.111 -0.0888 -0.1563  0.2788
 5913W        W22097  18.609  13.091  13.809 -0.1376 -0.2450  0.0922
 5914W        W22098   2.903   0.408   3.319  0.3149 -0.0428  0.1773
 5915W        W22099   8.098  15.898  12.128 -0.0679  0.2001 -0.0332
 5916W        W22100  16.935   0.478  12.310 -0.4225  0.1338 -0.1288
 5917W        W22101  11.407   8.356   5.024 -0.2640  0.0173  0.1509
 5918W        W22102   4.252   0.340  11.223  0.4239 -0.1894  0.1360
 5919W        W22103   2.379  16.800   4.328  0.1134  0.1935 -0.0468
 5920W        W22104   9.182  17.622  14.109  0.0167 -0.1311 -0.0076
 5921W        W22105  13.844  15.814  13.543 -0.1203  0.0210  0.2334
 5922W        W22106  12.079  17.421   3.151 -0.0039  0.0122 -0.1828
 5923W        W22107   9.894  15.785  11.822  0.1925  0.0323  0.2641
 5924W        W22108  16.453  16.699   1.975  0.0458  0.3793  0.2739
 5925W        W22109   2.406   2.694   4.585 -0.0998 -0.3554 -0.0320
 5926W        W22110   9.048  18.047  12.232  0.0119  0.0709  0.0394
 5927W        W22111  15.712  10.796   1.354  0.1158  0.0291  0.2565
 5928W        W22112  15.354   7.983  13.589  0.0694  0.1886 -0.1795
 5929W        W22113   3.785   1.795   0.797 -0.0792 -0.1406 -0.2033
 5930W        W22114   1.866  11.440  11.442  0.4200 -0.1362 -0.2576
 5931W        W22115  14.413   9.597  10.553 -0.1890 -0.1465  0.0801
 5932W        W22116   7.476   8.359   5.005  0.0883 -0.0893 -0.0657
 5933W        W22117   6.036   9.061   2.981 -0.1486  0.1999  0.0610
 5934W        W22118   2.580  11.774  12.622  0.2529  0.1305 -0.0877
 5935W        W22119   9.363   7.163  14.725  0.1164  0.2120 -0.0243
 5936W        W22120  13.047   0.143   0.614  0.1468  0.1483  0.1235
 5937W        W22121   3.435  16.221   0.675  0.0040  0.0906 -0.0738
 5938W        W22122   9.288   5.469   3.796  0.2201  0.2007  0.4364
 5939W        W22123   6.462   6.638   1.505  0.0112  0.1318 -0.0013
 5940W        W22124  12.824  17.397   3.630 -0.1229  0.0809 -0.1571
 5941W        W22125   8.529   3.893   2.005  0.0701 -0.0720 -0.0036
 5942W        W22126   0.937   8.833   0.661  0.0962  0.3992 -0.2474
 5943W        W22127   3.322  11.265  14.496 -0.0813  0.1868  0.0044
 5944W        W22128  13.817  15.574   0.572 -0.0910  0.2074  0.1727
 5945W        W22129  10.563   3.531   3.139 -0.1527 -0.1562  0.4203
 5946W        W22130  13.982  14.188  13.221  0.0253  0.0145  0.1232
 5947W        W22131   3.279  11.750  11.434 -0.2380 -0.4214  0.1264
 5948W        W22132   1.552  17.262   3.219  0.1583 -0.0542  0.4157
 5949W        W22133   5.027   0.004  10.493 -0.1694  0.2367 -0.0949
 5950W        W22134  15.736  11.317   2.445  0.0197 -0.1829  0.0312
 5951W        W22135  11.628  18.596   2.295 -0.0482 -0.4555  0.2350
 5952W        W22136   6.211  14.993   2.590 -0.2649  0.1572  0.1547
 5953W        W22137  18.470  13.895   1.166 -0.1625 -0.0456 -0.0724
 5954W        W22138  14.403  11.434   4.201  0.0344 -0.1255 -0.0062
 5955W        W22139   3.624   9.833  11.747 -0.2721  0.0194  0.2699
 5956W        W22140   1.365  16.563   2.841 -0.0781  0.0136 -0.0535
 5957W        W22141  15.298  13.619   4.092 -0.0324  0.1771 -0.0065
 5958W        W22142   0.717  13.917   4.513  0.3514  0.3716  0.0648
 5959W        W22143  11.734   6.140  10.832 -0.1576  0.1375  0.0147
 5960W        W22144   9.094   2.688  10.472  0.1173  0.3371  0.0944
 5961W        W22145   5.235  13.384   1.329 -0.0796  0.1505 -0.1087
 5962W        W22146   4.794   7.081   9.365 -0.2166 -0.1226  0.4733
 5963W        W22147   7.936  13.252   9.613  0.2040 -0.0233 -0.0575
 5964W        W22148  12.820   1.480  10.643 -0.0768 -0.0960  0.2047
 5965W        W22149   7.806   1.951  14.676 -0.3589  0.1811  0.1237
 5966W        W22150   4.963  17.826   4.464  0.1455  0.0673 -0.4341
 5967W        W22151   2.113  12.447  10.229  0.0166  0.0719  0.1781
 5968W        W22152   5.584   7.234  12.763 -0.2563 -0.1449  0.1120
 5969W        W22153  16.371   9.750  11.731 -0.2356 -0.2042 -0.1489
 5970W        W22154   3.627   8.913   4.680 -0.2078  0.0540  0.0819
 5971W        W22155  18.733   7.719   2.216  0.0876 -0.1764  0.1360
 5972W        W22156  14.194  14.768   5.142 -0.1483 -0.4381  0.0427
 5973W        W22157   0.280   8.810  11.308 -0.2092 -0.3411 -0.0319
 5974W        W22158   8.072  17.003   4.713 -0.1310 -0.0148  0.0391
 5975W        W22159  12.433  14.172  12.028  0.0893 -0.2092  0.1030
 5976W        W22160   9.480   3.164  10.855  0.2553 -0.0441  0.2477
 5977W        W22161  11.148   0.190  13.481 -0.2047 -0.1508 -0.3217
 5978W        W22162   6.682  12.559  12.673 -0.2466 -0.1773  0.5209
 5979W        W22163  18.919   2.307  15.250 -0.1557 -0.0417 -0.2460
 5980W        W22164   3.965   5.703  13.918 -0.0185 -0.0305 -0.0252
 5981W        W22165  18.592  11.073   1.503  0.3994 -0.5428 -0.0492
 5982W        W22166  14.336   3.328  14.944  0.0582 -0.0151 -0.0712
 5983W        W22167  17.588  14.073  12.596  0.0040 -0.2596 -0.2092
 5984W        W22168   6.880  16.601  13.856 -0.2792  0.0402  0.1922
 5985W        W22169   6.823   4.352  12.931  0.2687  0.0585  0.2365
 5986W        W22170   8.739   0.969   1.759 -0.2707 -0.1740  0.0116
 5987W        W22171   1.583   7.464   0.571  0.2279 -0.0644 -0.0149
 5988W        W22172  16.195  15.575  12.875 -0.0510  0.2026 -0.2156
 5989W        W22173  13.603   5.248   2.554  0.1298 -0.1305  0.2986
 5990W        W22174  14.332   3.765  14.791  0.0287 -0.2245  0.0117
 5991W        W22175   6.735   8.177   4.578  0.0574  0.1196 -0.0440
 5992W        W22176  13.666  16.486   5.583 -0.1662  0.2463  0.1231
 5993W        W22177  14.853  13.442   1.319  0.0034  0.1166  0.1334
 5994W        W22178   5.115  12.111   3.006  0.0160  0.0369 -0.2031
 5995W        W22179   4.152   0.854  15.233  0.2131  0.0145 -0.0476
 5996W        W22180   4.148  16.427  13.161 -0.0912  0.1240 -0.0414
 5997W        W22181   5.219  11.245   4.061  0.1454  0.0258 -0.1454
 5998W        W22182   8.443   2.010   2.808 -0.0702 -0.3545  0.2469
 5999W        W22183  13.743   7.353   3.915 -0.1106  0.0645 -0.0119
 6000W        W22184  10.164   1.631  14.684 -0.0199 -0.0924  0.0231
 6001W        W22185  15.321   2.085  11.154 -0.0839 -0.1371  0.0264
 6002W        W22186   8.341  11.327  13.335  0.3640 -0.2279 -0.3149
 6003W        W22187   3.917   3.161   3.885  0.0830  0.0960  0.1811
 6004W        W22188   0.064   7.486  11.158 -0.0099  0.2123 -0.0739
 6005W        W22189   9.682   2.607   0.248 -0.2240  0.1730 -0.0541
 6006W        W22190   5.718   7.600   3.153 -0.2543  0.0597 -0.4982
 6007W        W22191   9.900   2.361   2.271  0.0131 -0.0052  0.2140
 6008W        W22192   9.980  18.417  15.194  0.0961 -0.2388  0.1506
 6009W        W22193  17.445   2.610   3.875 -0.2648 -0.0970  0.1905
 6010W        W22194  18.424  14.386   3.171 -0.0082  0.1155  0.1593
 6011W        W22195   8.364   6.171   2.258  0.1010 -0.1403 -0.1214
 6012W        W22196   7.237  16.968  11.429  0.0336  0.2610 -0.2938
 6013W        W22197   5.986  13.135   3.823 -0.1356 -0.1809 -0.2513
 6014W        W22198  11.976   4.143   1.109 -0.0994 -0.0054  0.0149
 6015W        W22199  12.318   8.992  14.274  0.0877  0.1789 -0.2965
 6016W        W22200  18.248   9.989  12.337  0.1176  0.0536  0.0253
 6017W        W22201  12.716   9.728   1.399 -0.1024 -0.1385  0.2793
 6018W        W22202  18.826  18.679  11.621 -0.1720  0.1492 -0.0407
 6019W        W22203  10.561   9.960   0.391  0.1196 -0.1329  0.0037
 6020W        W22204   9.872  16.017   3.675 -0.0003 -0.1542  0.1082
 6021W        W22205   4.785   2.214   4.902 -0.5071 -0.6238 -0.0469
 6022W        W22206   0.306  12.485  14.806 -0.1485  0.1232  0.2373
 6023W        W22207   8.525  16.319  10.536 -0.1112  0.0661 -0.1939
 6024W        W22208   4.598   4.790   3.772  0.0444  0.1044 -0.0338
 6025W        W22209   1.553   3.519   0.512  0.0710  0.2285  0.1324
 6026W        W22210  13.696  11.481  15.263  0.1832  0.0102  0.0306
 6027W        W22211   5.655   6.352   5.088  0.0196  0.1682  0.1163
 6028W        W22212   9.864  10.622  13.310 -0.0961 -0.1295 -0.1936
 6029W        W22213  15.921  11.231  14.943 -0.2121 -0.2405 -0.0245
 6030W        W22214  17.819   4.656   0.955  0.1924  0.0332 -0.3674
 6031W        W22215  17.107  11.591  13.310 -0.2854  0.0279  0.0792
 6032W        W22216  12.225   7.247   2.633  0.0958  0.2117  0.0093
 6033W        W22217   8.186  14.478  11.775  0.2745 -0.5073  0.1050
 6034W        W22218   9.164  14.960   0.540 -0.1615  0.0334  0.0978
 6035W        W22219   8.227   5.848   3.002 -0.0329  0.0470 -0.1317
 6036W        W22220  10.362   5.241   2.393 -0.1121  0.2293  0.0479
 6037W        W22221   6.367   4.800  14.787 -0.3367  0.1089 -0.1412
 6038W        W22222  12.088   4.426   0.719  0.0787  0.0049  0.0260
 6039W        W22223  15.200  16.283   1.903 -0.0119  0.1091 -0.0672
 6040W        W22224   4.191   8.031  14.041 -0.2013 -0.0605  0.3265
 6041W        W22225  17.974   2.686   1.098 -0.2736 -0.2300 -0.3114
 6042W        W22226  13.263   8.987  13.117 -0.3680 -0.3629 -0.4877
 6043W        W22227  10.726   2.024   2.660 -0.1707 -0.0059 -0.2459
 6044W        W22228   4.454  14.204   3.063  0.0682 -0.2501 -0.0041
 6045W        W22229  11.798  12.058   2.392  0.2412  0.3495 -0.1231
 6046W        W22230   8.753  13.215  10.542 -0.0641 -0.0871  0.0546
 6047W        W22231   6.608  15.006  10.915  0.2571 -0.1743  0.2034
 6048W        W22232   4.534  16.412  14.265  0.1156  0.0634 -0.0566
 6049W        W22233   0.985  18.615  12.925 -0.1919 -0.2232 -0.0546
 6050W        W22234   4.339  17.291  12.106 -0.0246 -0.0501  0.0993
 6051W        W22235  18.024  12.948   4.915 -0.2669 -0.3291 -0.0508
 6052W        W22236   8.557   8.607  10.942 -0.2891  0.0013  0.1335
 6053W        W22237   8.504   7.645  14.426 -0.0248  0.1113 -0.2928
 6054W        W22238   4.256  10.459   4.762 -0.0804  0.2639 -0.2146
 6055W        W22239   8.588   3.699   1.331  0.0000  0.0853  0.0449
 6056W        W22240   1.357   2.752   0.066 -0.2184  0.2127 -0.1071
 6057W        W22241   8.535   4.982  14.193  0.1045  0.1583  0.1008
 6058W        W22242  13.350  14.539   1.708 -0.0109 -0.1049 -0.0611
 6059W        W22243   4.200  16.903  13.975  0.2128  0.0626  0.1722
 6060W        W22244   6.778   5.530  12.781  0.0724 -0.5022  0.1255
 6061W        W22245  16.353  12.636   1.662 -0.3130  0.0122  0.2285
 6062W        W22246  17.474   9.656   0.497 -0.1312 -0.3405 -0.2830
 6063W        W22247   3.629   4.409   3.753  0.1077  0.2660 -0.1454
 6064W        W22248   0.022  17.309   4.109 -0.1547  0.0507  0.1066
 6065W        W22249   2.728   8.741   5.023  0.0770 -0.1846  0.0608
 6066W        W22250   5.447  12.235   2.639 -0.1266  0.0881 -0.0132
 6067W        W22251  16.438   7.236  14.093  0.0883 -0.2095 -0.1070
 6068W        W22252  17.693   1.155   3.009 -0.0124 -0.1345  0.1699
 6069W        W22253  17.131  13.892   1.851  0.0859 -0.1012 -0.1334
 6070W        W22254   0.066   8.355  10.539  0.2323  0.3308 -0.0999
 6071W        W22255  13.520  15.420  12.984  0.1455  0.2149 -0.2097
 6072W        W22256   4.628   3.668   2.867  0.1967 -0.4247  0.0649
 6073W        W22257   9.072   2.661   0.758 -0.0912 -0.0114 -0.1194
 6074W        W22258  10.752  16.404   4.892 -0.1380 -0.1202  0.2555
 6075W        W22259   4.162   3.236   1.555 -0.2834  0.2726 -0.3208
 6076W        W22260  18.752   0.970  13.167  0.2663 -0.1540  0.0097
 6077W        W22261   8.767  15.767  15.283  0.0944 -0.0919 -0.0324
 6078W        W22262  17.952   3.436   4.196  0.0452  0.0205 -0.2873
 6079W        W22263   7.521   6.222  12.085  0.0781 -0.0282  0.0874
 6080W        W22264   9.479   7.260   2.701  0.0645 -0.0760  0.1213
 6081W        W22265   5.729   4.723  12.507 -0.0952 -0.0011  0.0184
 6082W        W22266   5.778  14.157  14.459  0.2348  0.2133  0.0034
 6083W        W22267  12.671  10.020  15.148 -0.0526 -0.2571  0.1893
 6084W        W22268  15.313  13.629   2.536  0.0567  0.2270 -0.1026
 6085W        W22269   3.882  17.011   4.752  0.0701  0.2352 -0.1560
 6086W        W22270  11.129   5.863   5.054  0.2278 -0.0875  0.2125
 6087W        W22271   5.149   6.188   6.311  0.2509  0.1228 -0.0906
 6088W        W22272  11.563  13.818  13.688 -0.2805 -0.1359  0.2688
 6089W        W22273  10.605  12.642  12.935  0.1508 -0.0371 -0.1989
 6090W        W22274  15.663   2.208   1.139  0.0311  0.0248  0.3004
 6091W        W22275   7.271   9.167   0.326 -0.2725 -0.0811  0.0425
 6092W        W22276   3.102   2.922   3.462 -0.0697 -0.0050 -0.0611
 6093W        W22277  10.032   8.509   2.169 -0.3965 -0.1060  0.2628
 6094W        W22278  11.552  13.263   1.041 -0.1988  0.1305  0.1298
 6095W        W22279   6.542  17.519  11.599 -0.0233 -0.1807 -0.0639
 6096W        W22280  10.126   4.341   0.850 -0.1051  0.2908  0.3625
 6097W        W22281   8.952   8.525   3.045 -0.0285  0.0166 -0.1947
 6098W        W22282   1.164  13.256   3.404  0.4710  0.3577  0.1059
 6099W        W22283  14.210   1.741   3.699 -0.3890  0.2586  0.1305
 6100W        W22284   2.328  10.216   0.857 -0.1164  0.2348  0.0496
 6101W        W22285   0.207  14.283   2.912 -0.1026 -0.3012 -0.1715
 6102W        W22286   0.311  15.214  14.486 -0.3572  0.0418 -0.0815
 6103W        W22287  15.405  15.881   0.295  0.4479  0.4273  0.0865
 6104W        W22288   8.408   5.993  14.467  0.0913  0.2237 -0.1457
 6105W        W22289   9.129   1.385  13.656  0.2412 -0.2166 -0.1858
 6106W        W22290   3.811   0.833   2.851  0.3039  0.2201 -0.3507
 6107W        W22291  14.515   8.166  12.771  0.0492 -0.2576 -0.0718
 6108W        W22292  17.301   9.563  11.379 -0.2856  0.1793 -0.0880
 6109W        W22293   1.800  10.170  14.388  0.2163 -0.1661  0.1742
 6110W        W22294  14.816   5.449   1.416 -0.1000 -0.1586  0.1326
 6111W        W22295   0.251  11.590   1.961 -0.2202  0.0135  0.0981
 6112W        W22296   7.938  18.860   0.081 -0.2673 -0.1363 -0.2968
 6113W        W22297   8.817  14.265  10.133 -0.0591  0.2421  0.0510
 6114W        W22298  18.577   7.027   2.860 -0.0074 -0.1756 -0.3737
 6115W        W22299  17.731   1.895  11.155  0.0049  0.0425 -0.1745
 6116W        W22300   8.846   4.560  14.393 -0.1849 -0.0711  0.1941
 6117W        W22301   6.074   9.683  13.771 -0.3507 -0.1473  0.2626
 6118W        W22302   3.248   1.580   0.864  0.1026  0.0704 -0.0853
 6119W        W22303   6.492   2.650  14.610  0.1856  0.0407  0.1812
 6120W        W22304   6.904   6.352  13.304 -0.0626  0.0183  0.1319
 6121W        W22305   9.243  11.263   2.258 -0.0218  0.1410  0.2252
 6122W        W22306  12.517   6.777   2.671  0.2707  0.0614 -0.1753
 6123W        W22307   9.827   6.260   2.763 -0.1231 -0.4220 -0.1625
 6124W        W22308   5.082   1.693  11.923  0.0346 -0.2059 -0.2077
 6125W        W22309  18.030  14.399   1.661  0.1891 -0.0050 -0.0507
 6126W        W22310   3.110  14.992   4.246  0.1157  0.4022  0.4030
 6127W        W22311  16.138   1.323   1.338 -0.1219 -0.1749 -0.3588
 6128W        W22312   2.336  12.156   3.281 -0.2742  0.1152  0.0951
 6129W        W22313  11.763   2.139  14.375  0.0945 -0.0267  0.0966
 6130W        W22314   6.289   0.731  12.566 -0.1090  0.1779  0.2115
 6131W        W22315  10.250  15.095   3.603 -0.0411  0.2007  0.0304
 6132W        W22316   5.776   4.372  13.038  0.0270  0.1462 -0.1112
 6133W        W22317  10.951  11.594   0.768 -0.1149  0.0899  0.1165
 6134W        W22318   3.744  14.270  13.903  0.2918 -0.2835  0.0370
 6135W        W22319   8.622   6.681   2.088 -0.2120 -0.0960 -0.0731
 6136W        W22320  11.925  12.246   4.396  0.1567 -0.2709  0.0218
 6137W        W22321   2.282  11.400   0.900  0.1740  0.0118  0.2233
 6138W        W22322   6.945  14.699  12.595 -0.2843  0.0932  0.0688
 6139W        W22323   5.852  13.396   4.348  0.1754  0.2060  0.1608
 6140W        W22324   2.722  12.529   5.351  0.0232  0.1619 -0.2655
 6141W        W22325   9.179  17.165   5.515  0.0694  0.0812 -0.2049
 6142W        W22326   8.574   9.258  15.370 -0.0496 -0.0579 -0.1596
 6143W        W22327  13.056   4.201   1.655  0.2108 -0.0237  0.2489
 6144W        W22328   3.047   8.962   1.846 -0.3263 -0.1805  0.3401
 6145W        W22329  12.740  10.675  13.567 -0.0060  0.0612 -0.1868
 6146W        W22330  13.176   5.193  11.434 -0.2097  0.2163  0.0702
 6147W        W22331  18.744  17.436  10.550  0.0723  0.1065 -0.0809
 6148W        W22332  13.077   4.640   5.262 -0.0819  0.1815  0.3153
 6149W        W22333  12.860   5.560  11.162 -0.1428 -0.1683 -0.1125
 6150W        W22334   8.525  17.702  10.795 -0.0427 -0.1033  0.1487
 6151W        W22335  18.553   8.208  13.044 -0.1464 -0.2910  0.0299
 6152W        W22336  18.429   3.994  15.188  0.2128 -0.1182 -0.1897
 6153W        W22337   9.835  11.809   3.738 -0.0648  0.0051 -0.0684
 6154W        W22338  14.945   1.461   0.243 -0.0877 -0.4441  0.0760
 6155W        W22339   8.038   5.088  14.302 -0.1285 -0.2419 -0.1496
 6156W        W22340   5.864   7.056   1.440 -0.3208 -0.0621  0.3310
 6157W        W22341   6.155  14.835   1.903  0.0429  0.0065 -0.1652
 6158W        W22342   2.555   3.562   3.529 -0.3095  0.1546 -0.1836
 6159W        W22343  16.502  11.907  14.730 -0.1620  0.2092  0.1089
 6160W        W22344  10.774   5.185   4.822  0.1487 -0.2308 -0.0615
 6161W        W22345  17.949   5.720  15.239 -0.1243  0.0938  0.0975
 6162W        W22346  17.975  15.575  13.096 -0.1788 -0.0549 -0.0739
 6163W        W22347   3.564  16.545  11.066 -0.0234 -0.0539 -0.1455
 6164W        W22348  11.124  10.292  13.943 -0.2061  0.0442  0.2327
 6165W        W22349  12.357   3.267  11.250  0.1971  0.2849  0.0761
 6166W        W22350  10.716  18.050   4.689  0.1788 -0.1082  0.0638
 6167W        W22351  14.689   0.085  14.552 -0.3284  0.4860 -0.0008
 6168W        W22352  14.161   0.608  12.660  0.0827 -0.3399  0.1592
 6169W        W22353  13.755  16.476  14.174  0.1321 -0.1725 -0.1289
 6170W        W22354  16.722   8.644  11.220  0.2782 -0.0622  0.2297
 6171W        W22355   6.417  15.170  14.054  0.0315 -0.1256  0.0773
 6172W        W22356   7.966   6.785   3.523 -0.0778 -0.1089  0.1131
 6173W        W22357  18.602  12.482   4.033 -0.3502  0.1571 -0.0588
 6174W        W22358   5.611  14.310  11.177 -0.0902  0.1789 -0.3169
 6175W        W22359   4.489   6.687   1.230  0.4796  0.1303  0.0397
 6176W        W22360   8.715   1.204  13.449 -0.2202 -0.0520  0.0310
 6177W        W22361  15.519  12.328   1.850  0.1422 -0.1361  0.0561
 6178W        W22362  11.062   5.445   3.411  0.3242  0.2024  0.0037
 6179W        W22363   2.591   2.209   4.678 -0.2266  0.0006 -0.1255
 6180W        W22364   4.112   1.503   1.482  0.2669  0.1271  0.1438
 6181W        W22365  10.148  10.645   3.246  0.2516 -0.0945  0.1814
 6182W        W22366  11.629   6.737   2.118 -0.2713 -0.0202  0.0536
 6183W        W22367  14.859  16.995  14.132  0.2124  0.1023 -0.0260
 6184W        W22368   9.922  10.977   0.395  0.0612 -0.3253  0.1719
 6185W        W22369   2.658  14.072   1.331 -0.3457  0.1591 -0.2864
 6186W        W22370   5.143   0.084  13.455  0.1314  0.0750  0.1026
 6187W        W22371   8.510   6.844   1.623 -0.3235  0.2489  0.1272
 6188W        W22372   7.710   5.277   4.251  0.0668 -0.1265  0.2832
 6189W        W22373   2.522  11.166   2.261 -0.2471  0.1394 -0.1257
 6190W        W22374   8.614  17.447   3.988 -0.0716  0.1948 -0.0775
 6191W        W22375  12.691  18.986   3.962 -0.0271 -0.0934  0.2125
 6192W        W22376   2.823   4.594   2.322 -0.2464 -0.1102 -0.1296
 6193W        W22377  10.587   7.289   4.909  0.0856  0.1391 -0.0016
 6194W        W22378   5.462   4.833  14.081  0.3155 -0.0153  0.0728
 6195W        W22379  13.250   7.101  13.809  0.1095  0.0834  0.0021
 6196W        W22380  14.147  10.139   0.287 -0.2086 -0.0086 -0.0691
 6197W        W22381  13.004   1.366   4.745  0.0108 -0.1145  0.0629
 6198W        W22382   3.324   9.452  11.652  0.2389 -0.4112  0.0912
 6199W        W22383  13.473  11.096  11.208 -0.0246 -0.0638 -0.0186
 6200W        W22384   1.881   6.228  13.369  0.0374  0.0578 -0.1084
 6201W        W22385  15.180  15.095   4.289  0.3903 -0.2770  0.0436
 6202W        W22386   9.142   7.559  10.869  0.3394 -0.3804  0.0297
 6203W        W22387  10.038  10.404   5.277  0.0548 -0.2056 -0.1218
 6204W        W22388   6.423   1.622  10.990  0.1855 -0.0077  0.1476
 6205W        W22389   4.998  12.613  13.443 -0.1058  0.1135 -0.1010
 6206W        W22390  15.328   6.020   2.048  0.0006  0.0458 -0.1185
 6207W        W22391  13.029   9.894   4.876  0.0300  0.3153 -0.0711
 6208W        W22392  18.353  13.570  13.417  0.1897 -0.3084 -0.1097
 6209W        W22393   6.072   9.852   3.455  0.0206 -0.3103  0.2285
 6210W        W22394   0.806  16.988   4.917 -0.3273 -0.4192  0.0588
 6211W        W22395  11.859   3.982  13.520  0.4191  0.0573 -0.0481
 6212W        W22396  18.131  18.484  11.285 -0.0092 -0.1936 -0.0800
 6213W        W22397  16.231  11.084   3.415 -0.2594 -0.0957  0.0126
 6214W        W22398   9.395  15.562  13.008  0.2446  0.2297 -0.0257
 6215W        W22399   4.449   2.174  14.505  0.2166  0.0905 -0.1715
 6216W        W22400   2.400   0.251   3.282  0.1830 -0.0005 -0.2872
 6217W        W22401  18.712   3.083   3.835  0.0875  0.1268 -0.0176
 6218W        W22402   1.762  11.300  12.368 -0.0056 -0.0208  0.2860
 6219W        W22403  17.596   6.823  14.510 -0.1650  0.0807  0.1780
 6220W        W22404   5.191   7.296   3.217  0.3180 -0.1725 -0.0114
 6221W        W22405   5.656   1.089   4.725 -0.0328 -0.1288 -0.4040
 6222W        W22406   9.193   8.495   3.644 -0.0400  0.1359  0.2166
 6223W        W22407   0.442   5.453   4.806 -0.3924 -0.3334 -0.0524
 6224W        W22408  11.878  12.538   2.598  0.1847  0.4747 -0.0371
 6225W        W22409  17.481  15.406   4.797 -0.1616  0.2410 -0.0499
 6226W        W22410   3.161   1.824  14.083  0.0450 -0.1378 -0.0140
 6227W        W22411   7.186   5.220  14.573 -0.4137  0.2864 -0.0207
 6228W        W22412  13.461  18.249   0.552 -0.2086  0.0269  0.0318
 6229W        W22413  16.168   8.366   0.142 -0.2999  0.1189 -0.1917
 6230W        W22414  17.981   8.489  13.652  0.3635 -0.1752 -0.2287
 6231W        W22415   4.953   9.587  12.061 -0.1247 -0.0257 -0.1388
 6232W        W22416  12.584   4.623   5.719  0.0077  0.2906  0.1210
 6233W        W22417  13.209  16.859  13.977 -0.2200 -0.1420 -0.0415
 6234W        W22418   8.833   3.452  11.538  0.2878 -0.2605 -0.0970
 6235W        W22419  16.102  13.963   4.154 -0.0244  0.5790 -0.5060
 6236W        W22420   2.468   5.118  10.972  0.0241 -0.1594  0.1349
 6237W        W22421   2.424   0.946   1.689  0.3618 -0.0484  0.1539
 6238W        W22422   8.625  13.112   0.056  0.0115  0.0633  0.1167
 6239W        W22423  18.479   3.249   1.877  0.0433  0.0892  0.0957
 6240W        W22424   3.185  18.766  12.594 -0.0514  0.5017 -0.3129
 6241W        W22425   4.585  13.362   0.633  0.0412 -0.0016  0.2159
 6242W        W22426  13.719  12.909  14.632 -0.0640 -0.0908 -0.1110
 6243W        W22427  15.349   0.045  13.657  0.0681 -0.1011 -0.2897
 6244W        W22428  12.079  18.761  13.778 -0.0030 -0.0130  0.2109
 6245W        W22429  18.314   8.369  14.982 -0.2475  0.0806  0.0119
 6246W        W22430  12.699   6.639   5.214 -0.1515  0.3676 -0.2220
 6247W        W22431   0.055  18.170  10.716  0.2689  0.0571  0.0215
 6248W        W22432   6.158   8.081   5.226  0.3300  0.1809 -0.1252
 6249W        W22433  14.784  17.473  13.911  0.0799 -0.0602 -0.2170
 6250W        W22434  15.314  13.259  10.867 -0.0771 -0.4603 -0.0179
 6251W        W22435   9.351   2.971  12.291  0.0703 -0.1321 -0.2201
 6252W        W22436  12.034   0.274  12.801  0.1164 -0.1923 -0.2313
 6253W        W22437  11.114   8.624   2.629 -0.1456  0.0188 -0.0384
 6254W        W22438  13.187  15.024   0.203  0.2802  0.0532 -0.1006
 6255W        W22439  15.821   2.533  12.025 -0.2313 -0.2768 -0.1082
 6256W        W22440  11.322  11.623  10.813  0.2014  0.0979 -0.0218
 6257W        W22441  14.091   2.662   0.180 -0.0726  0.1782  0.0091
 6258W        W22442   2.539   7.318  14.402 -0.1270  0.0752  0.2203
 6259W        W22443  12.116  16.255   2.374 -0.0921 -0.1866 -0.2696
 6260W        W22444   1.157  12.003  13.335 -0.2820  0.0417  0.1763
 6261W        W22445  18.587   9.171   3.248 -0.1170 -0.0624  0.1651
 6262W        W22446  15.303   7.629  10.649  0.1697 -0.0758 -0.4712
 6263W        W22447  18.333   3.354   0.503  0.1986 -0.0949 -0.1668
 6264W        W22448   7.732  15.661  11.298  0.1617 -0.0507 -0.1233
 6265W        W22449   5.023  17.895  13.023 -0.0352 -0.3607 -0.1675
 6266W        W22450   5.552  13.996   2.000  0.4191  0.0867 -0.2036
 6267W        W22451  16.173  10.160   2.408 -0.0324 -0.0533  0.3387
 6268W        W22452   0.338   9.797   1.592 -0.1979  0.1842 -0.1103
 6269W        W22453  15.494  16.390   3.612 -0.2914 -0.2937  0.1512
 6270W        W22454  11.258   8.633   1.001  0.0173 -0.0451  0.0596
 6271W        W22455   5.863   1.951   4.557  0.1885  0.2833 -0.3080
 6272W        W22456   3.063   3.278   4.614 -0.1419 -0.1597  0.0140
 6273W        W22457  13.134   5.250  10.892 -0.1713  0.1315  0.1759
 6274W        W22458   1.663   9.087  12.940 -0.0179 -0.0660 -0.2225
 6275W        W22459   3.188   3.998  12.687  0.0783  0.4858 -0.0002
 6276W        W22460   5.693  17.898   1.088  0.0394  0.2002 -0.4303
 6277W        W22461  12.723  16.059  12.174 -0.0354  0.1801 -0.2606
 6278W        W22462   9.196  10.988  12.644  0.0491 -0.1881 -0.0326
 6279W        W22463  10.260   5.067  13.839 -0.0891 -0.0895  0.3687
 6280W        W22464   6.520   2.853  14.156  0.2307 -0.0018 -0.3150
 6281W        W22465  11.890   5.416   0.564 -0.0816  0.1139 -0.1436
 6282W        W22466  16.032   5.279   1.993 -0.0506 -0.1941 -0.0170
 6283W        W22467  16.744   4.092  13.750  0.0800  0.0592  0.0840
 6284W        W22468   0.769  12.269  13.474  0.0616 -0.2019 -0.1542
 6285W        W22469   3.477  12.528   2.280 -0.0867  0.1973  0.2955
 6286W        W22470   7.800  17.310  14.601  0.1027  0.3534 -0.4106
 6287W        W22471   3.304   2.446   3.677 -0.3874 -0.2180 -0.3521
 6288W        W22472   0.489   9.797   3.213 -0.0059  0.1386  0.0093
 6289W        W22473   8.081   5.314  13.855 -0.0365 -0.0583  0.0778
 6290W        W22474  18.565  15.622  12.180 -0.1701  0.0777  0.0418
 6291W        W22475  11.634  11.832   3.344  0.2612 -0.0573 -0.3993
 6292W        W22476  14.028   7.841   2.171  0.0131 -0.0101  0.1828
 6293W        W22477  11.803  13.684   4.360  0.1082 -0.0846 -0.0029
 6294W        W22478   1.585  18.223   1.049 -0.2515  0.0830  0.2571
 6295W        W22479   1.049  15.633  14.356  0.2204  0.0279  0.0600
 6296W        W22480   0.625   0.402  12.711 -0.1465 -0.0430 -0.1093
 6297W        W22481  14.582  14.708  11.516 -0.0942  0.1683  0.0414
 6298W        W22482   2.459   7.577   3.136  0.1232  0.0069  0.1324
 6299W        W22483  17.545   9.759   2.451  0.3027 -0.1286 -0.3734
 6300W        W22484  15.968   9.773  14.560 -0.1270 -0.2709  0.1585
 6301W        W22485  18.252   2.676  13.506  0.0816  0.1063  0.1467
 6302W        W22486  15.913  17.341   0.075  0.0670  0.0907 -0.0722
 6303W        W22487   7.823   0.370   0.161  0.0145  0.0228 -0.1053
 6304W        W22488  10.408  10.380  12.429 -0.0793  0.0195  0.1985
 6305W        W22489   8.714   8.193   3.477  0.0309  0.2726  0.0265
 6306W        W22490  18.098   0.939   4.707 -0.2265  0.0227 -0.4783
 6307W        W22491  17.975  14.377   2.293  0.2620 -0.0520 -0.1084
 6308W        W22492   9.770   8.022  14.493 -0.0885  0.0228  0.0564
 6309W        W22493   6.487   4.174  14.251  0.2168 -0.0393 -0.0973
 6310W        W22494   1.759   8.646  13.218 -0.0288  0.2622 -0.2706
 6311W        W22495  15.897   7.306   1.717 -0.2302  0.3376 -0.1645
 6312W        W22496   2.215  17.842   2.896  0.0497 -0.1004  0.4889
 6313W        W22497   5.022   5.409   0.269  0.1118 -0.2750  0.1426
 6314W        W22498   2.060   6.963  12.130 -0.0520  0.0287 -0.2438
 6315W        W22499  18.435   7.066   9.569  0.2391 -0.0106 -0.0944
 6316W        W22500  17.440  13.458  13.138 -0.2138  0.0345 -0.1113
 6317W        W22501   8.452   6.684   3.407  0.0587  0.2004  0.2223
 6318W        W22502  10.272   0.605   3.955  0.0177  0.0564 -0.2780
 6319W        W22503   6.825   5.052   4.570 -0.4494 -0.1975 -0.1151
 6320W        W22504  15.692  18.308  14.024 -0.2057 -0.2635 -0.2449
 6321W        W22505   3.549   4.316  12.638  0.0470  0.0765 -0.1250
 6322W        W22506   2.123   3.582   2.065 -0.2564 -0.0953 -0.0958
 6323W        W22507   5.286  13.550   4.698  0.1320 -0.1881  0.0086
 6324W        W22508  10.543  10.413  14.958 -0.1282 -0.2639 -0.0488
 6325W        W22509   6.892   0.359  11.644 -0.3196 -0.0787  0.2770
 6326W        W22510  14.696  12.023  15.024 -0.4159 -0.0338  0.0757
 6327W        W22511  13.195  13.002  14.590 -0.2411  0.0860  0.0600
 6328W        W22512  17.312   7.409   1.436  0.0523  0.1482 -0.1385
 6329W        W22513   6.902   2.596  12.424 -0.4900  0.1215  0.1161
 6330W        W22514  17.121   5.324   1.179 -0.3811 -0.0808 -0.0841
 6331W        W22515   6.772   7.137   3.733 -0.2965 -0.1344 -0.1092
 6332W        W22516  16.080  18.464   1.944  0.1076  0.0704  0.1875
 6333W        W22517   8.305   9.022  11.175  0.2446 -0.1536 -0.0143
 6334W        W22518   7.427   1.449  14.050 -0.2200  0.2518  0.1011
 6335W        W22519  13.411  18.336   4.491 -0.0339 -0.0759  0.4324
 6336W        W22520   6.331   3.083   0.950 -0.2279  0.1248  0.0267
 6337W        W22521  10.403   2.765   5.283  0.3238 -0.0383  0.0767
 6338W        W22522  16.239   3.832   4.804 -0.0273 -0.1451  0.2511
 6339W        W22523  16.720   7.184   0.362 -0.2585  0.0726  0.2387
 6340W        W22524   1.028  11.721   3.851 -0.0258  0.0580  0.1106
 6341W        W22525   7.422  17.621  11.967 -0.0583  0.1783 -0.1071
 6342W        W22526   0.309   5.939   2.054  0.0249  0.1249 -0.5664
 6343W        W22527  13.563   1.219  13.019  0.1712 -0.2204  0.3586
 6344W        W22528  14.758  13.587  12.269  0.0583  0.0037  0.0604
 6345W        W22529   5.821   4.607  11.229 -0.0803 -0.1030  0.0554
 6346W        W22530   5.405   4.470   4.056  0.0675 -0.2391 -0.3373
 6347W        W22531   0.151   7.528   5.150  0.1452  0.3302  0.1735
 6348W        W22532   1.909  10.545  10.198 -0.0119  0.4302  0.1815
 6349W        W22533   0.130   4.975  10.459 -0.1278 -0.1676 -0.0496
 6350W        W22534   9.450  17.765  10.358 -0.2606  0.2947 -0.1378
 6351W        W22535  17.646   5.067  13.670 -0.2125  0.0536 -0.0338
 6352W        W22536   1.908   0.272  12.741 -0.1903  0.1662  0.0307
 6353W        W22537   5.946  16.013  11.362  0.0528 -0.0200 -0.0866
 6354W        W22538   7.814   3.235   0.630  0.0834  0.0774 -0.0724
 6355W        W22539   9.469   1.658   0.972  0.0992  0.1276  0.0262
 6356W        W22540   9.385   2.608   4.115  0.2201  0.1319 -0.0751
 6357W        W22541  12.096  18.972   1.482 -0.1671  0.0744 -0.0380
 6358W        W22542   7.333   4.475   4.323 -0.0329 -0.0039  0.5953
 6359W        W22543   5.415  12.671   2.276 -0.1913  0.0783 -0.1829
 6360W        W22544  18.489   4.523  11.719 -0.1542 -0.0881 -0.2223
 6361W        W22545  12.234  18.860   9.840  0.0117  0.4132 -0.2589
 6362W        W22546  12.415   9.285   2.177 -0.2106  0.0404 -0.0362
 6363W        W22547   4.904  11.997   1.003  0.1279 -0.4642 -0.2029
 6364W        W22548   3.339  17.063   0.963  0.1322 -0.0776  0.1320
 6365W        W22549  15.567  14.387   0.583  0.2834  0.1376 -0.1334
 6366W        W22550   6.430   9.874  12.450  0.0668  0.1434  0.1533
 6367W        W22551  16.939  18.026   0.659 -0.0117  0.0241 -0.1071
 6368W        W22552  18.217   1.773   2.806 -0.1030  0.1216 -0.0011
 6369W        W22553   8.945   6.725  14.087  0.0429 -0.0039  0.3112
 6370W        W22554  17.507   8.971   9.715 -0.1015  0.0777 -0.0308
 6371W        W22555  14.220   1.684   2.246 -0.1837 -0.1499 -0.3354
 6372W        W22556  17.268   0.798  14.642  0.1242  0.1152  0.3245
 6373W        W22557   9.448  11.834   4.631 -0.1442 -0.1586 -0.4673
 6374W        W22558  16.307  16.092   2.078 -0.0789  0.0531 -0.1413
 6375W        W22559   1.066  10.642  10.571 -0.0013 -0.2273 -0.0761
 6376W        W22560  12.805  15.391  11.476 -0.1714  0.2042 -0.0079
 6377W        W22561  11.832  17.938  14.044  0.2233 -0.2978 -0.0044
 6378W        W22562  15.730  15.262  13.597  0.0564 -0.4690  0.0362
 6379W        W22563   3.097  13.202   4.522 -0.1973  0.1242  0.3253
 6380W        W22564   0.874  16.394  14.958  0.0388  0.0656  0.2493
 6381W        W22565  13.318  13.107   0.507 -0.2651 -0.1689 -0.0217
 6382W        W22566   2.247   2.143   0.694 -0.0699  0.1988  0.2338
 6383W        W22567   0.644   9.219   3.599  0.0671 -0.0378  0.1528
 6384W        W22568   2.497  17.634   4.412 -0.0206  0.0181  0.2342
 6385W        W22569   8.689  12.624   0.932  0.0370  0.2838  0.2928
 6386W        W22570  10.166  15.301   4.118 -0.1602 -0.1560  0.4111
 6387W        W22571  10.871  10.351   2.852 -0.0397 -0.0145 -0.0141
 6388W        W22572   0.083  10.676   4.148 -0.0587 -0.0756  0.1203
 6389W        W22573   7.427  13.506   3.780 -0.2062 -0.2017 -0.1519
 6390W        W22574   2.239   9.584   0.418  0.1116 -0.0451 -0.0933
 6391W        W22575   5.181  18.816  15.032  0.2358 -0.2165 -0.1865
 6392W        W22576   7.987   5.024  12.536  0.1488 -0.4439  0.5120
 6393W        W22577  13.655   0.924  10.681  0.3344  0.4014 -0.0783
 6394W        W22578   9.789  18.395   0.931 -0.1681 -0.3169  0.1886
 6395W        W22579  10.515  13.618   2.231 -0.2771  0.0075  0.0174
 6396W        W22580   0.839   9.599  14.228 -0.2497 -0.2777 -0.0656
 6397W        W22581  12.169  16.066   0.223  0.2086 -0.3129  0.2865
 6398W        W22582  16.531  12.862  11.343 -0.0020  0.0771 -0.0601
 6399W        W22583   5.355   9.134  14.556 -0.0711  0.0472 -0.1112
 6400W        W22584  16.258   7.886  12.315 -0.0922 -0.0273 -0.2382
 6401W        W22585  17.907  12.531   5.171  0.0061  0.1542 -0.2906
 6402W        W22586   9.015  16.929  13.542  0.0943 -0.4099 -0.4103
 6403W        W22587  13.677  11.588   4.192 -0.0036  0.0248 -0.2334
 6404W        W22588  10.087   2.844  14.443  0.3541  0.1193 -0.3910
 6405W        W22589   0.926   7.364   0.246  0.1352  0.1861 -0.0010
 6406W        W22590   2.371  17.488  12.801  0.1296  0.2286 -0.1065
 6407W        W22591   3.543  18.235   2.883 -0.0844  0.1534 -0.1723
 6408W        W22592  17.364   2.021   5.358  0.1265 -0.2021  0.0127
 6409W        W22593   7.381  12.955  12.560 -0.1884 -0.1838 -0.1043
 6410W        W22594   2.801  14.620  12.640  0.0875 -0.0186 -0.2514
 6411W        W22595  13.506  16.600   3.448 -0.0013 -0.0864  0.1067
 6412W        W22596   9.334  16.297  13.475  0.0214  0.2026  0.1073
 6413W        W22597   3.995   7.594   2.659 -0.1474  0.2191 -0.2615
 6414W        W22598  11.994  11.905  15.371  0.4283  0.0995  0.2386
 6415W        W22599  17.912   1.353  15.093 -0.1651 -0.0953  0.0318
 6416W        W22600   0.381   1.899  10.956 -0.0925  0.0006  0.1023
 6417W        W22601   3.952  17.326   2.908  0.0140  0.1194 -0.0554
 6418W        W22602  13.559  13.029  13.574  0.3468  0.0287  0.0205
 6419W        W22603   9.742  17.025  13.159 -0.0188  0.0152  0.0162
 6420W        W22604  13.428  11.986  13.852 -0.0025  0.1443  0.1299
 6421W        W22605   0.644   0.299  11.454  0.1422  0.2114 -0.1890
 6422W        W22606  18.370  13.066   2.806 -0.3172  0.0742 -0.0183
 6423W        W22607   7.804  10.138   0.247 -0.0655 -0.0862  0.0270
 6424W        W22608  12.820  12.712  10.827 -0.0071  0.0257 -0.1566
 6425W        W22609   1.204  18.100  12.369  0.1303 -0.0991 -0.1530
 6426W        W22610   3.784  10.595  13.242 -0.1600  0.0691 -0.1281
 6427W        W22611   9.739   2.096   1.160 -0.1366  0.0033 -0.3745
 6428W        W22612  17.255  14.071  14.562  0.5087 -0.1530 -0.0690
 6429W        W22613   3.786   5.733  14.408 -0.0545 -0.0985 -0.1565
 6430W        W22614   6.725  14.635  12.139  0.3232 -0.3097 -0.1506
 6431W        W22615  16.288   2.634   1.887 -0.1089 -0.3945  0.1761
 6432W        W22616   1.158  16.954   3.377 -0.4305 -0.0872  0.2419
 6433W        W22617   3.246   0.567   2.000  0.0961  0.0437 -0.0075
 6434W        W22618   1.627  11.536   3.152  0.2037 -0.2134 -0.0625
 6435W        W22619  18.423   3.282  14.688 -0.0801  0.0902 -0.2392
 6436W        W22620  16.662  17.405  13.504 -0.0029  0.3929 -0.0916
 6437W        W22621  14.598   5.885   1.318  0.1129 -0.0154 -0.0055
 6438W        W22622   1.241  11.340   5.351 -0.1561 -0.0477  0.2828
 6439W        W22623   1.123  11.528   3.114  0.1378 -0.2128 -0.1444
 6440W        W22624   3.558   5.618  12.032 -0.1451 -0.0608 -0.1838
 6441W        W22625   7.667   4.922  12.137 -0.1766 -0.0413 -0.2766
 6442W        W22626   4.501   9.728  12.406 -0.2725  0.0865 -0.0527
 6443W        W22627  16.338   8.608   2.225 -0.0834  0.0781  0.0094
 6444W        W22628  10.025  11.795   2.751  0.2593 -0.1835  0.2988
 6445W        W22629  17.940  17.729   4.173  0.4737 -0.2599 -0.0796
 6446W        W22630   7.553   8.160  12.465 -0.0547 -0.0870  0.0862
 6447W        W22631   0.914  17.660   5.599 -0.1948 -0.0697 -0.2526
 6448W        W22632  12.771   4.514   2.007  0.2289 -0.1102  0.0251
 6449W        W22633   1.138  16.348  10.365 -0.1275  0.0711  0.2154
 6450W        W22634   3.620  14.610   1.338 -0.1086  0.1515 -0.0455
 6451W        W22635   9.424   7.924   4.642  0.2603 -0.4230  0.2051
 6452W        W22636  11.338   7.876   1.660  0.2146 -0.2830  0.2326
 6453W        W22637   1.166   0.836   3.393 -0.1158 -0.0516 -0.2410
 6454W        W22638   3.621   0.080  13.813 -0.2000 -0.0795  0.1056
 6455W        W22639   6.788   5.552   2.921  0.0786  0.0164 -0.2814
 6456W        W22640   9.876   9.370  14.145 -0.0063  0.1052 -0.0514
 6457W        W22641   2.158   1.452  14.037 -0.2182 -0.3640  0.3737
 6458W        W22642   6.131   6.155   2.566  0.0187 -0.0090 -0.3938
 6459W        W22643   6.872   6.527  12.847  0.2035 -0.2206 -0.2977
 6460W        W22644  16.974   9.410   0.373 -0.2801 -0.3014  0.0635
 6461W        W22645   7.587   2.732  13.726 -0.1941 -0.0057  0.0085
 6462W        W22646   8.841   8.014  14.428  0.0350 -0.1792 -0.0294
 6463W        W22647  11.708  13.399  10.400  0.0882 -0.1134 -0.1178
 6464W        W22648   8.264  13.422  13.014 -0.2893 -0.0988 -0.0738
 6465W        W22649  11.795   4.089   3.569 -0.1572 -0.1296  0.0843
 6466W        W22650  15.016   6.749  10.283  0.3079  0.3769  0.0773
 6467W        W22651  18.516   4.842  12.119  0.0436 -0.1326  0.1665
 6468W        W22652  13.584  13.400   2.309  0.2291 -0.1459 -0.2993
 6469W        W22653   5.245   4.343   0.358  0.4589 -0.3860  0.4329
 6470W        W22654  11.703  10.969   0.663 -0.0230 -0.2649  0.0179
 6471W        W22655   2.257  11.901  14.102 -0.1838 -0.2100 -0.0317
 6472W        W22656   4.280   8.403   1.936 -0.0010  0.2526  0.1060
 6473W        W22657   3.362  12.452  10.986  0.1806  0.1998  0.2644
 6474W        W22658   2.656   7.998   2.474 -0.2566 -0.1907 -0.1554
 6475W        W22659  17.026   2.755   1.225 -0.1607  0.2768 -0.1141
 6476W        W22660  15.892  18.553   0.475  0.3072 -0.0896  0.1149
 6477W        W22661   5.730  12.107   1.336  0.1055 -0.0267 -0.0935
 6478W        W22662  16.970  14.176   4.253 -0.3197 -0.0389  0.3169
 6479W        W22663   7.665   6.596   1.590  0.0117 -0.0588  0.1586
 6480W        W22664  16.552   2.907   1.116  0.2014 -0.0246 -0.0020
 6481W        W22665   6.092  11.217   3.708 -0.0545  0.0166 -0.0071
 6482W        W22666  13.596  11.886   2.211  0.1252  0.2099 -0.0186
 6483W        W22667  11.384  10.147   1.747 -0.0157 -0.2003  0.2118
 6484W        W22668  12.245  18.606   0.675 -0.0638 -0.0958  0.3029
 6485W        W22669  10.605  15.222  12.298  0.0051  0.1854  0.0426
 6486W        W22670  11.330   6.420   3.880 -0.0986  0.2555  0.0141
 6487W        W22671   2.235  16.790  11.403  0.1982  0.1527 -0.1277
 6488W        W22672  11.001  14.003   2.862 -0.1453 -0.1140 -0.0792
 6489W        W22673   0.102  10.020  12.620  0.0874  0.0971  0.0301
 6490W        W22674   5.445   0.731  12.297 -0.0468 -0.1732  0.2475
 6491W        W22675   6.550   3.234  13.534  0.0244 -0.1690  0.0432
 6492W        W22676   5.194  17.142   1.311 -0.1195 -0.1659  0.0504
 6493W        W22677   8.490   0.141   3.183 -0.0022 -0.0765  0.0857
 6494W        W22678   5.342  11.726   1.954 -0.1712  0.1401  0.1325
 6495W        W22679   2.120   4.774  11.362  0.2661  0.3482 -0.6769
 6496W        W22680  17.904   4.648  12.662 -0.1886 -0.0759 -0.0639
 6497W        W22681   5.717  16.289   2.954  0.0741  0.1313 -0.2003
 6498W        W22682  18.903  18.192  11.796 -0.2443 -0.2679  0.0125
 6499W        W22683  14.423  13.815   4.778  0.0931 -0.0692 -0.1424
 6500W        W22684  13.117  12.727  12.825 -0.3174  0.2301  0.0665
 6501W        W22685  12.945   0.285   3.587  0.0771  0.0453  0.2310
 6502W        W22686   2.575  12.275   4.451 -0.0944  0.3859  0.0775
 6503W        W22687   7.443   4.505  13.971 -0.3096 -0.0205 -0.0746
 6504W        W22688  14.947   5.434   4.217  0.0619 -0.1290  0.0315
 6505W        W22689  12.836  12.490  13.753  0.0062 -0.3978 -0.0996
 6506W        W22690   0.425   9.017  11.783  0.0865 -0.0760 -0.0653
 6507W        W22691  15.157   1.489  10.596  0.0504 -0.1990 -0.0720
 6508W        W22692   6.490  11.850   0.261 -0.1302  0.1395 -0.0955
 6509W        W22693   3.055   3.012  12.971  0.0946  0.2432 -0.1156
 6510W        W22694  12.268   7.604  12.859  0.0143 -0.1136  0.5152
 6511W        W22695  11.452  13.843  12.120  0.0740  0.1799  0.0373
 6512W        W22696   8.858   2.753   0.302 -0.1802 -0.0480  0.2184
 6513W        W22697   6.396   5.899   3.025 -0.2639  0.2147 -0.0047
 6514W        W22698   0.604   3.785   4.287 -0.0868 -0.1337 -0.0230
 6515W        W22699  10.187  16.410   4.017  0.2503 -0.0002  0.0106
 6516W        W22700   2.024  11.767  14.790 -0.1564  0.0782  0.3556
 6517W        W22701   2.780  15.490  15.138 -0.1881 -0.1758 -0.4306
 6518W        W22702  16.322   2.482   3.319  0.0865  0.1411 -0.1546
 6519W        W22703  13.069  15.146   3.147  0.0254  0.1231  0.1829
 6520W        W22704  15.177  12.215  10.847  0.4642  0.0439 -0.0906
 6521W        W22705  10.922  17.849   0.672  0.2119 -0.0430  0.1238
 6522W        W22706   1.145  13.573   1.301 -0.0704  0.0973 -0.0160
 6523W        W22707  16.343  17.099  11.549 -0.1804 -0.1287 -0.1773
 6524W        W22708  14.606  15.384   0.809 -0.2118  0.1417 -0.0104
 6525W        W22709   0.702   8.093   0.552  0.4171 -0.1717 -0.2949
 6526W        W22710  18.918  10.730   5.058 -0.3731  0.0644  0.0140
 6527W        W22711   9.420   8.831   0.867  0.0426  0.0848 -0.1296
 6528W        W22712  17.201  13.852  14.058  0.0386  0.1639  0.0460
 6529W        W22713   4.465  18.840   4.053 -0.2146 -0.1213 -0.4871
 6530W        W22714   1.398  15.439   4.467  0.1302  0.0511 -0.2471
 6531W        W22715   2.316   1.888  13.569 -0.5792 -0.0300 -0.3218
 6532W        W22716   1.124  17.407   1.796 -0.3875  0.3131 -0.0389
 6533W        W22717  11.236  17.596  14.152 -0.1574  0.0110 -0.2315
 6534W        W22718  13.979   3.956  10.531  0.1076  0.1721  0.0944
 6535W        W22719  18.577   0.179   4.986 -0.0631 -0.4154 -0.2255
 6536W        W22720  10.920   8.488   3.998 -0.0152  0.2221 -0.0666
 6537W        W22721   8.460   3.977   0.792  0.1950 -0.0964  0.0337
 6538W        W22722  18.908  16.182  12.994  0.3159  0.2994 -0.1086
 6539W        W22723  18.352   7.788  10.545 -0.2169  0.0747  0.1025
 6540W        W22724   5.012   7.934   5.933 -0.1418 -0.3477 -0.3154
 6541W        W22725  18.475   0.574   3.491 -0.0522  0.0786 -0.0164
 6542W        W22726   5.759   5.681  13.697 -0.1841  0.0194  0.1528
 6543W        W22727  16.619  14.506   0.677  0.1047  0.1069  0.1173
 6544W        W22728   6.605  16.183  11.660 -0.1530 -0.0441  0.1780
 6545W        W22729   6.734   8.556   0.210 -0.1052  0.4009 -0.0389
 6546W        W22730   1.423  12.674   1.268 -0.1540  0.0147 -0.2378
 6547W        W22731   6.448   4.429   2.108 -0.1300  0.0565 -0.0785
 6548W        W22732   3.355   9.073   5.416 -0.2015 -0.0126 -0.2643
 6549W        W22733   3.293  14.070   5.115 -0.0986 -0.0951  0.1786
 6550W        W22734   7.837  16.516  13.517 -0.1893  0.2087  0.0317
 6551W        W22735   6.171   7.200   0.163  0.1886 -0.3241 -0.0815
 6552W        W22736   3.408  10.808  14.904  0.0299  0.1564  0.1524
 6553W        W22737   2.365   0.070  11.166 -0.0674 -0.0095  0.1978
 6554W        W22738  16.971  17.650   4.652 -0.1370  0.0378 -0.0726
 6555W        W22739  13.535  12.528  15.067 -0.0089  0.3946  0.0442
 6556W        W22740  17.095   8.529   1.869 -0.3495 -0.0985  0.0412
 6557W        W22741  15.976  10.744   3.117  0.0833  0.0846  0.1115
 6558W        W22742   2.476   8.670   3.210 -0.0510 -0.1699 -0.1135
 6559W        W22743  15.976  16.759   2.685  0.1565 -0.3273 -0.2471
 6560W        W22744  11.149   2.764  11.218  0.1353 -0.0263 -0.0205
 6561W        W22745  15.611   6.749  14.637  0.0088 -0.0907  0.1353
 6562W        W22746   4.017  11.093   3.419  0.2970  0.2030 -0.1261
 6563W        W22747  10.165  10.129   4.687 -0.1275 -0.1323  0.1782
 6564W        W22748   8.778  11.353   1.782  0.0826  0.0964 -0.1806
 6565W        W22749   9.035  14.488   4.445  0.1324 -0.0231 -0.4045
 6566W        W22750   3.191   9.558   4.229 -0.0938  0.0393 -0.0849
 6567W        W22751  18.202   0.576  14.395  0.0754  0.3694  0.0408
 6568W        W22752  14.826  12.854   2.532  0.0275 -0.3434  0.3875
 6569W        W22753  16.893   8.097   4.113 -0.3278 -0.0532  0.0306
 6570W        W22754   5.635  10.514  13.278 -0.0733 -0.0431  0.1989
 6571W        W22755   7.172  18.215   2.706  0.0364  0.0313  0.1580
 6572W        W22756   2.990   4.316  15.036 -0.2906 -0.1186  0.1136
 6573W        W22757   0.234  13.705   3.700  0.3614  0.0177  0.1217
 6574W        W22758   2.602   3.516   2.734  0.0562  0.0523  0.0138
 6575W        W22759   0.076   4.230  13.206  0.0180  0.0298 -0.2044
 6576W        W22760   4.370  14.869   0.722  0.3588  0.4530  0.1433
 6577W        W22761  17.323   4.945  10.946  0.0737 -0.2411  0.4137
 6578W        W22762  11.765  10.128  14.897 -0.2418  0.2033  0.0028
 6579W        W22763   6.435  17.279   1.901  0.1655  0.0858 -0.3175
 6580W        W22764   9.755   1.624   3.356  0.0965 -0.0312 -0.1004
 6581W        W22765   2.006  13.599  11.933  0.1175  0.3538  0.1102
 6582W        W22766  17.087  12.401   0.357  0.0544 -0.0668  0.0096
 6583W        W22767   3.262   7.829  11.713 -0.0780 -0.4785 -0.4417
 6584W        W22768  11.565   5.324   0.919 -0.0570  0.0747 -0.1278
 6585W        W22769  16.709   6.623  10.484 -0.0928 -0.1571 -0.0016
 6586W        W22770  11.663  12.859   2.951  0.1687  0.0865 -0.2406
 6587W        W22771  14.979   0.239  10.642 -0.1491 -0.2789 -0.3645
 6588W        W22772   0.933  14.771   3.933 -0.2660  0.2826 -0.0566
 6589W        W22773  18.801  16.754   2.564 -0.2875 -0.0459  0.5340
 6590W        W22774   1.344  15.555  11.633 -0.1907  0.1895  0.0051
 6591W        W22775   2.082  16.770   5.115  0.0447  0.2775 -0.0540
 6592W        W22776   5.767   8.776   3.899  0.0202 -0.1926  0.0175
 6593W        W22777  16.864   6.822   2.371  0.0203 -0.2364 -0.0272
 6594W        W22778  14.886   0.323   3.219 -0.1052  0.1531  0.2606
 6595W        W22779   2.515  14.573   2.706  0.2031  0.1818  0.0780
 6596W        W22780   7.410   3.821   5.178 -0.0789  0.4152  0.0283
 6597W        W22781  11.736   3.700   3.210 -0.1791 -0.0234  0.0365
 6598W        W22782  17.530  10.442  11.753 -0.4272 -0.1230 -0.2010
 6599W        W22783   7.779  18.252  13.210  0.0392  0.1541 -0.1625
 6600W        W22784  11.347   8.499  11.900 -0.2926 -0.1355 -0.0475
 6601W        W22785   8.737  10.392  13.046  0.1037  0.0640  0.4220
 6602W        W22786   5.925  10.661  13.905 -0.0499  0.1047  0.3139
 6603W        W22787   6.745  10.295   1.623 -0.0410 -0.0138  0.2861
 6604W        W22788   5.266  12.275  12.299  0.1336  0.1717 -0.1285
 6605W        W22789   6.583   3.721   2.120 -0.0516 -0.1723 -0.2749
 6606W        W22790   4.855   9.177  13.282 -0.0528  0.0807  0.0263
 6607W        W22791   4.508   5.337  13.018  0.1967 -0.1304  0.0625
 6608W        W22792  11.694   5.640   0.028  0.2209  0.2307 -0.0907
 6609W        W22793  13.029   8.150   4.692 -0.3226  0.0041 -0.1857
 6610W        W22794   8.665  13.901   3.177  0.0329 -0.3616 -0.0639
 6611W        W22795   3.141   3.567  13.030  0.3467 -0.1710 -0.1442
 6612W        W22796   3.379   7.783   5.068 -0.0359  0.2270  0.1620
 6613W        W22797   6.445   9.775  13.449  0.0211 -0.0172 -0.1464
 6614W        W22798  18.480   9.623   1.281 -0.2025  0.1249 -0.1582
 6615W        W22799   1.538   8.735  11.516  0.1364  0.1380 -0.2411
 6616W        W22800   5.129   2.542  13.102 -0.4482  0.0977  0.1920
 6617W        W22801   8.267  15.036   0.089 -0.0937  0.0322 -0.1138
 6618W        W22802   9.219   1.320   1.359 -0.3219  0.2114 -0.1724
 6619W        W22803  18.580  14.436   4.570 -0.0226  0.1325  0.4585
 6620W        W22804   9.760   8.193   1.653 -0.1586 -0.0672 -0.0382
 6621W        W22805  12.374  10.084  12.668  0.1085  0.0991  0.0638
 6622W        W22806  17.703   0.309   4.206  0.1141 -0.1816 -0.0575
 6623W        W22807  15.018  10.806  11.359 -0.3830  0.0647  0.1499
 6624W        W22808   6.291   4.373   3.385  0.0827  0.1236  0.0463
 6625W        W22809  14.647   1.461   4.255 -0.1383 -0.3070 -0.0022
 6626W        W22810   7.125   8.218   0.191  0.1737 -0.0201 -0.1428
 6627W        W22811  13.486  12.409   2.392  0.0562  0.0783 -0.2884
 6628W        W22812   9.098   3.076   2.594 -0.1534 -0.2452  0.0441
 6629W        W22813  18.916  16.631  11.412  0.0009 -0.0941 -0.0420
 6630W        W22814  18.412   8.404  11.689  0.2063  0.0360  0.0839
 6631W        W22815   6.406   1.462  12.953 -0.1220 -0.0692  0.0491
 6632W        W22816  16.089   3.645   1.580 -0.0483 -0.2239  0.1343
 6633W        W22817   1.614   2.963  14.644  0.2455 -0.4132 -0.0464
 6634W        W22818   5.614  11.718   2.691  0.1492  0.0277 -0.0027
 6635W        W22819  17.541   2.067  12.632  0.1276  0.1234  0.0437
 6636W        W22820  18.099  16.749   4.909  0.0902 -0.1352 -0.1937
 6637W        W22821  12.191   6.435   5.197 -0.5134 -0.1765 -0.1010
 6638W        W22822   6.655   3.944   4.222  0.1306  0.1459  0.0784
 6639W        W22823  11.982  11.769  13.080  0.0048 -0.0254 -0.1084
 6640W        W22824   2.105  16.461   4.600 -0.1316  0.1090 -0.0320
 6641W        W22825  15.375  11.312   3.833  0.1366  0.2801  0.0500
 6642W        W22826  18.147  18.989  11.934 -0.1429 -0.2351  0.0114
 6643W        W22827  10.835  11.201  10.037 -0.1124 -0.2144 -0.1813
 6644W        W22828  10.678  16.944  10.829 -0.0041 -0.0666 -0.0036
 6645W        W22829  17.474   2.880   1.381 -0.0839  0.1859 -0.0453
 6646W        W22830   6.835   0.901  10.717  0.1883 -0.3428 -0.0448
 6647W        W22831  11.908  10.203  12.563  0.0206  0.0180 -0.4661
 6648W        W22832  11.618   9.261   4.513 -0.0552 -0.3391  0.0437
 6649W        W22833  14.740   3.091  12.815 -0.0322 -0.0835 -0.2384
 6650W        W22834  15.183   5.153   0.693 -0.2499  0.1150  0.0110
 6651W        W22835   8.154  18.029  14.693 -0.1659 -0.0461 -0.1977
 6652W        W22836   2.302   5.590  10.882  0.1721 -0.1670 -0.1170
 6653W        W22837  17.155  12.332  13.912  0.3729  0.1229  0.1041
 6654W        W22838   9.283  16.140  15.348 -0.0113  0.1997  0.2476
 6655W        W22839  16.121  18.995   5.537  0.0376  0.1465  0.1799
 6656W        W22840  10.686  17.307  11.639 -0.3144  0.0102 -0.0654
 6657W        W22841   6.642   7.337  11.682 -0.1535  0.0721  0.1408
 6658W        W22842   4.964   0.966  14.584 -0.1051  0.2634 -0.1317
 6659W        W22843   3.928   5.998   4.645 -0.0999  0.1338 -0.3307
 6660W        W22844  10.491   4.747  10.882  0.0215  0.1382 -0.0036
 6661W        W22845   2.006   9.225   0.094 -0.1539  0.1921  0.1840
 6662W        W22846   8.949  10.536  11.698  0.0526 -0.0272  0.3605
 6663W        W22847  17.237   4.394  12.054 -0.0138  0.0658 -0.2568
 6664W        W22848  11.628  13.658   5.529  0.2264 -0.0162  0.2706
 6665W        W22849   3.794  15.374  12.992 -0.1921  0.0476  0.1272
 6666W        W22850  12.088  18.993  12.135  0.1579 -0.2718  0.1883
 6667W        W22851   8.652  14.530  10.853 -0.1352  0.2022 -0.0515
 6668W        W22852  15.811   1.084  11.866  0.1655 -0.1510  0.1921
 6669W        W22853   6.506  15.540  12.653  0.1610  0.2378 -0.0743
 6670W        W22854  12.680   0.316  12.134  0.2907 -0.0539  0.1295
 6671W        W22855  17.981  14.273  11.290 -0.3395 -0.3028 -0.0062
 6672W        W22856  10.218   6.457   1.923  0.0208 -0.2576 -0.1814
 6673W        W22857   3.903   6.547   6.076 -0.0984  0.0903 -0.1775
 6674W        W22858  13.146  11.011  15.185  0.1807  0.1897  0.2256
 6675W        W22859   3.670  13.095  13.323 -0.3383 -0.1989  0.2352
 6676W        W22860  12.894   0.856  10.600  0.0364 -0.0181 -0.0568
 6677W        W22861  12.610  11.419  13.828  0.1509  0.1571 -0.0556
 6678W        W22862  13.533  10.658   0.860 -0.3569  0.0288  0.3627
 6679W        W22863   5.690  16.516  12.261 -0.4018 -0.1249  0.1526
 6680W        W22864   3.280  13.609   4.208 -0.2931  0.1815  0.0316
 6681W        W22865   3.744   0.389   2.229  0.0008  0.0548 -0.0376
 6682W        W22866   9.376   6.690  14.522  0.3149 -0.1024  0.3609
 6683W        W22867  11.455  18.905  11.126  0.0145 -0.3062 -0.2198
 6684W        W22868  14.435   7.540   0.007  0.0211  0.0832  0.2166
 6685W        W22869   8.073  14.188   2.933 -0.1531 -0.2779 -0.1124
 6686W        W22870   4.918  13.007   0.397 -0.2344 -0.2644 -0.3864
 6687W        W22871   2.136  15.831  13.389 -0.0633  0.0664 -0.1986
 6688W        W22872  14.093  11.791  14.859 -0.0729  0.1573 -0.1002
 6689W        W22873  15.106  17.278  10.239  0.0545 -0.3130  0.0478
 6690W        W22874  11.921   1.225   4.061  0.0218  0.2418 -0.1478
 6691W        W22875   3.576  10.727   0.006  0.1246 -0.0721 -0.0397
 6692W        W22876   8.005  13.198  11.246 -0.4008 -0.1252 -0.1242
 6693W        W22877  10.788   2.030  10.886 -0.2069  0.2699 -0.0552
 6694W        W22878  10.811  18.722   3.671  0.1887 -0.0469  0.0037
 6695W        W22879  16.247   1.930  10.450  0.2000  0.0950 -0.2801
 6696W        W22880   8.474   2.124   4.278  0.4122  0.0794 -0.2135
 6697W        W22881   3.223   1.996   2.342 -0.0380  0.0659  0.1297
 6698W        W22882  13.814   3.631   4.071 -0.0138  0.0431  0.0957
 6699W        W22883  15.366  11.998   1.084 -0.1832  0.0365  0.0004
 6700W        W22884  10.778  10.245  13.427 -0.1953 -0.0370 -0.0165
 6701W        W22885  18.986   5.152  12.886  0.0313 -0.0987 -0.0702
 6702W        W22886   5.548   8.513  14.815 -0.1679  0.0175 -0.2290
 6703W        W22887   3.733   6.181   3.676 -0.1651 -0.1256 -0.1853
 6704W        W22888   0.985  18.950  15.096 -0.0325 -0.0082  0.0205
 6705W        W22889   6.539   4.636   4.836 -0.0970  0.0903  0.0427
 6706W        W22890   1.127  13.976   4.099  0.1661 -0.0295 -0.3782
 6707W        W22891   4.697  12.430   2.905  0.1592  0.1636 -0.1246
 6708W        W22892   8.950  14.634  12.895  0.0797 -0.1643  0.1192
 6709W        W22893   0.321  18.618  12.548  0.2661 -0.0033 -0.0256
 6710W        W22894  17.528  15.613  12.212 -0.0780 -0.0090 -0.0703
 6711W        W22895  17.637  12.573   2.629  0.0015 -0.0435  0.2117
 6712W        W22896   4.584   2.586  10.472 -0.2144  0.1187 -0.1715
 6713W        W22897  13.106  14.859  11.720 -0.1882 -0.0262 -0.1719
 6714W        W22898   9.901   1.254   1.174 -0.1545 -0.2111 -0.0323
 6715W        W22899  15.063   0.509  12.289 -0.0125  0.0678  0.0695
 6716W        W22900  17.614   4.739   2.885  0.1517  0.0326  0.1213
 6717W        W22901   0.502   8.429   4.440 -0.2578 -0.1209  0.1769
 6718W        W22902   2.497   1.064  12.627 -0.1083 -0.1200  0.3590
 6719W        W22903   4.648   3.531   1.482  0.4061 -0.2002 -0.2424
 6720W        W22904   0.713   6.715  11.065 -0.2785 -0.0997 -0.1858
 6721W        W22905  10.645   4.567  14.587  0.1032 -0.1509 -0.1028
 6722W        W22906   7.289   7.865  15.131  0.1437 -0.1378 -0.0560
 6723W        W22907  14.723  12.545   0.431 -0.2437  0.0387  0.1587
 6724W        W22908  11.617  17.659  14.508 -0.1548 -0.2025  0.0141
 6725W        W22909  13.915   6.496   2.501 -0.0788 -0.2243  0.3572
 6726W        W22910  14.918   2.833  11.308  0.2797 -0.1916  0.0613
 6727W        W22911  13.529  15.617  14.960 -0.2697 -0.2765 -0.4798
 6728W        W22912   0.461   6.302   3.201 -0.1447  0.0845 -0.2979
 6729W        W22913  13.801  10.511  14.442  0.0298  0.0304 -0.2423
 6730W        W22914   3.874  11.154  13.693 -0.1540  0.0450 -0.3187
 6731W        W22915   2.682   7.458  14.876 -0.2016 -0.0404 -0.2368
 6732W        W22916   5.647   8.223   3.031  0.0380  0.1579 -0.2804
 6733W        W22917  18.973   6.899  13.731  0.3033 -0.1955  0.1198
 6734W        W22918  11.728   5.831   0.941  0.1435 -0.0432  0.1068
 6735W        W22919   6.967  13.740  14.169 -0.1583  0.0846 -0.2445
 6736W        W22920   8.407  16.456   2.070 -0.2890  0.1418  0.1734
 6737W        W22921   4.714   7.900  13.979 -0.2140  0.0726  0.0130
 6738W        W22922   3.518  11.921   0.853 -0.0587  0.1004  0.1552
 6739W        W22923   0.774   2.754  11.811  0.2609  0.0522  0.0935
 6740W        W22924  14.493  14.048  12.198 -0.0451 -0.0617 -0.3693
 6741W        W22925  12.564  14.605   1.073 -0.2301 -0.4582  0.0284
 6742W        W22926   1.816  16.051   4.789 -0.0464 -0.2607 -0.1174
 6743W        W22927  18.931   8.203   1.170  0.1128 -0.0937  0.1285
 6744W        W22928   2.367  13.413   2.154 -0.2388  0.1837  0.0804
 6745W        W22929   4.869  13.753  15.338 -0.1861 -0.1184  0.5341
 6746W        W22930  17.296   9.791   5.518 -0.4046 -0.0889  0.4005
 6747W        W22931  10.232  13.166   2.450  0.2765  0.2354  0.0723
 6748W        W22932  10.590  18.765  14.016  0.0775 -0.1439  0.0886
 6749W        W22933  17.134   9.476  14.524  0.2137 -0.1265  0.2902
 6750W        W22934  17.780   4.774  13.139 -0.2478 -0.2485 -0.0163
 6751W        W22935   9.402  17.253   4.112 -0.0565  0.0657  0.0523
 6752W        W22936  17.285   8.773   4.307  0.0523  0.0987 -0.2037
 6753W        W22937   0.495  15.516   3.821 -0.0042 -0.0416  0.0704
 6754W        W22938   4.907  14.249  15.092  0.1712 -0.3147 -0.0101
 6755W        W22939   2.998   2.887   3.923  0.0897 -0.1054  0.1563
 6756W        W22940   9.748  16.349  15.105  0.0894 -0.1037 -0.0599
 6757W        W22941   7.331  14.592   0.053  0.0590  0.1483  0.3771
 6758W        W22942   6.927  17.950  15.227 -0.2304  0.1055 -0.1361
 6759W        W22943   5.237  15.719   4.275 -0.2560 -0.2175 -0.1624
 6760W        W22944  10.628  15.411   2.044 -0.1165  0.3013 -0.1501
 6761W        W22945   4.823   1.544  12.311  0.0727 -0.2816 -0.2967
 6762W        W22946   4.925   4.696   2.307  0.2952 -0.0003  0.1734
 6763W        W22947   3.535  14.515  10.299 -0.4327 -0.0705  0.0584
 6764W        W22948   7.003  11.450  12.434  0.1003  0.1744  0.0338
 6765W        W22949   6.819  11.077  12.127  0.0461 -0.0464  0.0396
 6766W        W22950   6.615  12.028  12.694 -0.1150  0.0747 -0.0423
 6767W        W22951  10.282  17.858  13.437 -0.0825 -0.0444 -0.1228
 6768W        W22952  13.717   7.422   4.411 -0.1426  0.0999 -0.1401
 6769W        W22953   5.861  16.360   3.462  0.0629  0.1551  0.0378
 6770W        W22954   6.713  18.252   4.515 -0.0588  0.0465  0.0978
 6771W        W22955   7.435  17.186   0.102  0.0656 -0.2217 -0.3498
 6772W        W22956   3.864   9.906  14.671 -0.1063  0.1591 -0.1397
 6773W        W22957   8.448   5.668  13.745  0.0148 -0.0603  0.0124
 6774W        W22958   4.118  14.904  15.195  0.2682  0.0471  0.0410
 6775W        W22959  11.536   0.502   3.334  0.0307  0.2097 -0.1914
 6776W        W22960  17.604   7.666  13.802 -0.1098  0.0473  0.1640
 6777W        W22961   5.727  18.701  15.293 -0.1293 -0.2127 -0.0578
 6778W        W22962   0.765   2.700   1.763 -0.0125 -0.1907  0.0192
 6779W        W22963   0.386  10.215  15.032 -0.1048 -0.1600 -0.1002
 6780W        W22964   6.994   2.457   1.310  0.1063 -0.0345 -0.2325
 6781W        W22965   6.293  18.888   2.283 -0.0429  0.0309  0.2943
 6782W        W22966   9.041   9.176   4.463  0.1770  0.1078  0.0311
 6783W        W22967  18.280   5.104   4.728 -0.0454  0.2016 -0.0013
 6784W        W22968  15.626  17.152  13.181  0.2371 -0.1282  0.0465
 6785W        W22969  13.960  17.684  12.036 -0.1575  0.0321 -0.1414
 6786W        W22970  15.593  18.453   2.798  0.0351  0.1182  0.1439
 6787W        W22971   8.307   0.373  12.170 -0.0106 -0.2827 -0.3732
 6788W        W22972  11.045   1.885  13.674 -0.1610 -0.0276 -0.0538
 6789W        W22973   8.656  15.882  13.900 -0.0158  0.3005 -0.1599
 6790W        W22974   6.828   1.650   4.337 -0.2731 -0.2773 -0.4477
 6791W        W22975  17.609  15.277   1.984 -0.3169 -0.0641  0.0129
 6792W        W22976  18.400  11.200   3.849  0.1193  0.2786  0.0386
 6793W        W22977   5.079  15.188  11.282 -0.0330  0.4526 -0.3862
 6794W        W22978   5.602   7.031   0.464  0.1228  0.0867 -0.2586
 6795W        W22979  16.007  10.570  11.466  0.1531  0.0380  0.2179
 6796W        W22980  18.295  15.458  14.546 -0.2916  0.1126  0.2884
 6797W        W22981  18.930  14.819  12.560 -0.2339 -0.1127 -0.0199
 6798W        W22982   2.053  17.072  15.299  0.1865 -0.1876  0.1897
 6799W        W22983  16.061   2.668  11.091 -0.0835 -0.1912  0.0362
 6800W        W22984   7.049  12.935  14.834 -0.0950 -0.2322 -0.2528
 6801W        W22985  10.198   9.447   1.185 -0.0704 -0.1215  0.0114
 6802W        W22986   3.277  15.806   1.858  0.2176  0.1588 -0.0523
 6803W        W22987   2.716   7.134  13.797 -0.0826 -0.0046  0.0579
 6804W        W22988  15.031   6.005  15.352 -0.1146 -0.2440  0.0227
 6805W        W22989  12.387  12.598   0.329  0.0649 -0.2608 -0.0917
 6806W        W22990  11.230  14.935   1.680  0.0619  0.0801  0.1381
 6807W        W22991  17.701   9.706   3.429  0.2368  0.3833 -0.1543
 6808W        W22992   1.378  18.410   1.763 -0.1992  0.1170  0.1859
 6809W        W22993   8.782  17.265  11.770 -0.2860  0.2655  0.3320
 6810W        W22994  17.123  16.147   4.237 -0.2970  0.1579 -0.0859
 6811W        W22995   2.759  14.437   0.355  0.0076  0.2032  0.1052
 6812W        W22996   6.563  13.276  14.301  0.0901  0.1443  0.1825
 6813W        W22997   7.734  18.322   5.094 -0.0154  0.0085 -0.1233
 6814W        W22998   3.493   1.021  11.102  0.0413 -0.0308  0.1419
 6815W        W22999   4.192  18.298  14.850 -0.0713  0.2249 -0.3246
 6816W        W23000   6.076  17.964   0.731 -0.4180  0.2437  0.0473
 6817W        W23001   0.522  17.871   0.678 -0.0797  0.0373 -0.0516
 6818W        W23002   9.414   3.533   4.648  0.2290  0.3977 -0.1287
 6819W        W23003   5.729  12.389   0.547  0.0130  0.1073  0.3296
 6820W        W23004   6.471  16.731   3.578  0.1290  0.3054 -0.0285
 6821W        W23005   5.624  18.234   1.517 -0.6638  0.1292 -0.2508
 6822W        W23006  11.242   7.181   4.447 -0.1161  0.1015 -0.3647
 6823W        W23007  10.949   8.692  15.105 -0.3506  0.2861  0.0698
 6824W        W23008   7.504   4.341  12.741 -0.3893 -0.0869 -0.0539
 6825W        W23009  11.010  11.275  10.588  0.1206 -0.3111 -0.0181
 6826W        W23010   4.314   6.018  13.644 -0.0283 -0.0475  0.1916
 6827W        W23011   4.023   9.046   4.396 -0.0315  0.1813  0.0614
 6828W        W23012   3.895   3.951  13.320 -0.0960 -0.1385 -0.1739
 6829W        W23013   5.075  10.579   0.504 -0.0980 -0.2290  0.1114
 6830W        W23014   1.492   2.743  13.063 -0.0712 -0.0303  0.1986
 6831W        W23015  17.448  16.033   4.964  0.2584 -0.0899  0.2399
 6832W        W23016  11.206  16.965  13.408  0.3697  0.2546 -0.0801
 6833W        W23017   2.923   2.281  12.218 -0.4645  0.1997 -0.0631
 6834W        W23018   1.819   0.143  13.263 -0.1943  0.1426 -0.0012
 6835W        W23019   5.308  15.894   0.562 -0.0127  0.2804  0.1898
 6836W        W23020  12.498   5.888  15.148 -0.0792  0.5819  0.0550
 6837W        W23021   8.919   1.694   0.972  0.0427  0.0865 -0.3032
 6838W        W23022   4.981  18.257  13.385 -0.0725  0.3728 -0.2013
 6839W        W23023  18.443   6.329  12.924 -0.1564 -0.1846 -0.0840
 6840W        W23024   6.586  10.215   4.889  0.0298 -0.2690 -0.0821
 6841W        W23025  14.653   3.317   5.126  0.0544 -0.0053  0.1148
 6842W        W23026  13.774   9.271  12.940  0.2045  0.2660 -0.1276
 6843W        W23027   1.302   9.098   2.101  0.0493  0.0528  0.4137
 6844W        W23028   9.660   3.578   2.270 -0.0713 -0.1687 -0.1957
 6845W        W23029  17.373   9.010   1.650 -0.1076 -0.1455  0.1398
 6846W        W23030   9.219   2.684  13.700 -0.1633 -0.0869  0.0047
 6847W        W23031  18.911  14.826   0.705  0.1373 -0.2087 -0.0140
 6848W        W23032   2.253  17.391   0.639  0.1629 -0.1324  0.0836
 6849W        W23033   9.187  11.525  13.464 -0.0073 -0.0002 -0.1508
 6850W        W23034   7.076   4.747   3.803 -0.1565  0.1529  0.1287
 6851W        W23035   3.816   0.403   5.281  0.2778 -0.0685 -0.1411
 6852W        W23036  16.189   0.617   4.019  0.2304 -0.1468 -0.0401
 6853W        W23037   7.466   5.929   2.545  0.0449 -0.0586 -0.0661
 6854W        W23038   2.086   5.187  11.630 -0.1320  0.1355  0.0664
 6855W        W23039  12.006  14.129  15.307 -0.2763  0.0500 -0.0354
 6856W        W23040   0.368   8.027  12.967  0.0526 -0.0154  0.1337
 6857W        W23041  10.458   4.816   5.391  0.0512 -0.2628 -0.0780
 6858W        W23042  12.220   9.639   0.164  0.1608 -0.2467  0.1885
 6859W        W23043   6.635   9.924  12.904  0.0344  0.2031 -0.0362
 6860W        W23044   9.239   4.046   2.363  0.1209 -0.0721 -0.2293
 6861W        W23045   3.889  12.274   5.695 -0.1338 -0.1303  0.3191
 6862W        W23046   7.158  14.006   0.873  0.2862  0.0375 -0.0589
 6863W        W23047  13.488   4.264   2.435 -0.0547 -0.0227  0.1723
 6864W        W23048  16.612  17.117   2.266  0.3494 -0.1598  0.0053
 6865W        W23049   7.994   8.172  13.079 -0.1330  0.3379 -0.2745
 6866W        W23050   4.839   7.373  14.692  0.1954  0.0469 -0.0276
 6867W        W23051  13.760   5.674  14.900  0.3698  0.3180  0.0416
 6868W        W23052  10.822   4.947  12.313  0.1752 -0.0808  0.1319
 6869W        W23053  14.363  12.163  11.192  0.2378 -0.0918 -0.0004
 6870W        W23054   2.018  17.030   3.908  0.0773 -0.4555 -0.0573
 6871W        W23055  17.772   5.061   0.095 -0.0615  0.2096 -0.4794
 6872W        W23056   7.763   9.110  12.470 -0.0108 -0.0752 -0.3695
 6873W        W23057   9.480   4.311  14.974  0.4838  0.1144 -0.0379
 6874W        W23058  10.770  16.253  13.984  0.1165  0.1626 -0.0966
 6875W        W23059  13.560   1.271  13.524  0.1867 -0.0797  0.2161
 6876W        W23060   7.175  14.843  15.012 -0.2215  0.0184  0.1228
 6877W        W23061  12.891   2.189  13.686 -0.2481 -0.1942  0.2439
 6878W        W23062   2.444   1.454   2.000  0.4413 -0.3096 -0.2986
 6879W        W23063  12.926   3.588   1.845 -0.4981  0.2625 -0.0104
 6880W        W23064   8.771  18.124   3.616 -0.0800  0.2313 -0.0352
 6881W        W23065  11.945   1.081   1.369  0.3707  0.0335  0.4501
 6882W        W23066  15.735   6.202  12.759  0.0557  0.4929 -0.2066
 6883W        W23067  15.568   1.367   4.105  0.1506 -0.2299 -0.1435
 6884W        W23068   1.861  14.270  13.037 -0.0463  0.1405  0.1264
 6885W        W23069   6.519  14.078  15.374 -0.3433 -0.2009  0.1805
 6886W        W23070   6.354   6.910   9.982  0.0874 -0.2773  0.0270
 6887W        W23071  18.018  16.479  14.054  0.1518  0.5441 -0.0875
 6888W        W23072  17.194   5.753  10.611  0.0150 -0.1594 -0.0402
 6889W        W23073  17.652   9.504  11.820  0.3413 -0.0916 -0.0997
 6890W        W23074  12.645   3.139  15.266  0.0200  0.1837  0.2860
 6891W        W23075  12.983  13.478   0.673  0.0489  0.0116  0.4799
 6892W        W23076   2.720  17.453  14.210  0.3256  0.0384 -0.0870
 6893W        W23077   8.661  17.659   1.283  0.1169 -0.0767 -0.4353
 6894W        W23078  13.259   0.266   3.106  0.1377 -0.8644  0.0768
 6895W        W23079  13.235  12.072   3.787 -0.1801  0.2277 -0.0683
 6896W        W23080  10.280   8.637   9.937 -0.1944  0.0687  0.1019
 6897W        W23081   2.535  17.501  14.715  0.1164 -0.0075 -0.0536
 6898W        W23082   8.687  11.455  10.108 -0.2965 -0.1850 -0.1638
 6899W        W23083   9.744   8.862  11.274  0.1232 -0.0343 -0.0342
 6900W        W23084  11.500   9.980  13.998  0.1031 -0.1850  0.2011
 6901W        W23085  14.120   7.572  11.425  0.1828 -0.1333  0.0148
 6902W        W23086   6.595   6.735  14.222 -0.4129  0.0432  0.0057
 6903W        W23087   8.810  10.776   5.914  0.0497 -0.3752 -0.0134
 6904W        W23088   4.848  14.192   2.327 -0.2641 -0.0253  0.0139
 6905W        W23089   4.591   5.947   3.715  0.0047 -0.1262  0.1977
 6906W        W23090   2.709  11.613  13.958  0.3698 -0.0242  0.0209
 6907W        W23091   5.362  13.906  14.955  0.6070  0.3994 -0.1808
 6908W        W23092  14.742   2.890  10.805 -0.5820  0.1914  0.2588
 6909W        W23093   2.882   5.045   3.275 -0.1202 -0.0465  0.0661
 6910W        W23094   4.770   4.202  11.356 -0.1498  0.0801  0.0818
 6911W        W23095   5.393  16.241  10.640 -0.1943  0.2461 -0.2659
 6912W        W23096  11.907   1.279   2.915 -0.1245  0.1575 -0.2173
 6913W        W23097   8.356  13.263  14.491  0.0164  0.1396  0.4632
 6914W        W23098   6.330   0.218   1.347 -0.0406  0.3335  0.1342
 6915W        W23099  10.977   2.792  14.725 -0.2023 -0.2191 -0.0524
 6916W        W23100   2.131   1.863   2.169 -0.1898 -0.3887  0.2789
 6917W        W23101  18.131  13.534   4.745 -0.0662 -0.0133 -0.0193
 6918W        W23102  13.296  18.534  14.616  0.3665  0.0363  0.0518
 6919W        W23103   8.449   0.170  14.696 -0.1216  0.1455  0.0036
 6920W        W23104   9.379  13.674  14.255 -0.0876 -0.0712 -0.1176
 6921W        W23105  16.221   0.785  13.105  0.1367  0.4428 -0.1333
 6922W        W23106  17.283   1.200   1.627 -0.2766 -0.1812 -0.0778
 6923W        W23107   6.612  17.700  13.196  0.0559  0.2689  0.2879
 6924W        W23108  15.037  16.353   9.526  0.1050  0.2003  0.2819
 6925W        W23109  13.055  13.996  14.794  0.4654 -0.0199 -0.2980
 6926W        W23110  15.611   9.375   4.381  0.0103 -0.0129 -0.1268
 6927W        W23111  12.329   6.329   1.579 -0.0532 -0.3654 -0.0187
 6928W        W23112   3.897   8.521   0.501 -0.3493  0.1903 -0.2779
 6929W        W23113   5.563  16.381   2.460  0.3692 -0.1346 -0.0512
 6930W        W23114  15.084   2.374  12.409  0.0692 -0.1110 -0.1961
 6931W        W23115  14.230  14.653   0.501 -0.3494  0.1626 -0.1039
 6932W        W23116  12.795   5.380   5.289 -0.0744 -0.1028 -0.2843
 6933W        W23117  16.466  14.166   2.415  0.0063  0.1055  0.1666
 6934W        W23118   9.774   5.897   5.312  0.0019 -0.0662 -0.3216
 6935W        W23119  13.295   1.876   2.018 -0.2333 -0.1851  0.1964
 6936W        W23120  15.268  13.405  14.442 -0.0200  0.0717  0.4756
 6937W        W23121   2.054  14.384   4.886 -0.0875 -0.0307 -0.4094
 6938W        W23122   3.412   8.765   5.802 -0.0259 -0.1297 -0.1302
 6939W        W23123   3.566   7.711   4.138  0.2678  0.0604 -0.2200
 6940W        W23124   1.371  14.856   4.239 -0.1829 -0.0561  0.1521
 6941W        W23125   2.473   5.464  11.400 -0.2791 -0.0933 -0.1179
 6942W        W23126   4.692  17.581   2.550 -0.1346  0.1524  0.2531
 6943W        W23127   2.703  12.967  14.095 -0.0050 -0.0715  0.1914
 6944W        W23128  15.323  18.464  13.309  0.1084  0.0587 -0.0428
 6945W        W23129  15.822  15.959   0.565  0.2116 -0.0737 -0.0574
 6946W        W23130   1.042  14.682  12.422  0.0152 -0.2374 -0.0796
 6947W        W23131   2.346  14.801   0.335  0.0080 -0.0187 -0.4386
 6948W        W23132  18.675  12.812   6.116  0.0396 -0.2134  0.0370
 6949W        W23133   9.628   8.723   1.930  0.1211  0.0972 -0.3988
 6950W        W23134   1.786   8.148  13.634  0.1437 -0.2331  0.1393
 6951W        W23135  17.925   8.752  15.089  0.1982  0.0429 -0.0520
 6952W        W23136  18.508   1.260   2.869 -0.2167 -0.1024  0.1074
 6953W        W23137  14.613  14.761  14.922  0.1276  0.0438 -0.0156
 6954W        W23138  16.025   4.742   4.776 -0.0539 -0.1352 -0.1527
 6955W        W23139  10.895  18.811  12.303  0.1022  0.0205 -0.2447
 6956W        W23140   5.005  16.858  12.893 -0.0919  0.5111 -0.1845
 6957W        W23141  12.266   3.641  15.324 -0.3297  0.2103 -0.1242
 6958W        W23142   7.997   5.786   0.805 -0.1832  0.3123  0.3751
 6959W        W23143   8.254  17.870  11.415 -0.0167 -0.4015  0.1933
 6960W        W23144   7.609   1.859  11.391  0.0715  0.0064  0.0420
 6961W        W23145   0.080  10.877   2.837 -0.0430 -0.2106  0.1407
 6962W        W23146  14.308   1.558   0.670  0.1025 -0.2757  0.0805
 6963W        W23147   0.188  16.701   4.809 -0.2502  0.1044 -0.4620
 6964W        W23148   2.555  14.684   0.893 -0.1565  0.0912 -0.1195
 6965W        W23149  13.543  12.421  12.508 -0.0906  0.2561 -0.0006
 6966W        W23150   1.600   4.721   3.589 -0.0009  0.0645  0.0103
 6967W        W23151  10.322  16.379   3.493 -0.0846  0.1246 -0.2834
 6968W        W23152  10.966   0.708  13.786 -0.1237  0.0740  0.0014
 6969W        W23153  15.947  15.740  14.529 -0.0737  0.2809  0.1537
 6970W        W23154  10.014  15.228   1.785 -0.2964  0.0362 -0.0688
 6971W        W23155   0.547  11.884  12.796  0.1049  0.2184 -0.0330
 6972W        W23156   0.583   4.937   2.381  0.1217 -0.0097  0.1193
 6973W        W23157   8.811   1.311   4.569 -0.0002 -0.1247  0.1123
 6974W        W23158   9.363  15.196   3.622 -0.2587  0.0752  0.0476
 6975W        W23159   9.309   0.211   0.703  0.0401 -0.1746 -0.2990
 6976W        W23160   2.311   1.240   2.649  0.0716 -0.1158 -0.0801
 6977W        W23161  11.819  18.845  12.680 -0.1150 -0.1617  0.1432
 6978W        W23162   8.240  18.590  14.582 -0.0264 -0.0402  0.3040
 6979W        W23163  16.476  15.128   4.681 -0.0189 -0.2657 -0.0766
 6980W        W23164   6.382  17.903   0.307 -0.0115 -0.3298  0.2753
 6981W        W23165   8.969   6.208  12.185 -0.0857 -0.3817  0.5023
 6982W        W23166  11.333   7.571   2.693  0.1828 -0.0978  0.0016
 6983W        W23167  13.564   2.921   5.127 -0.2723  0.1221  0.3037
 6984W        W23168   6.573  11.565  14.717 -0.1004 -0.4324 -0.4566
 6985W        W23169   1.732   1.392   0.926  0.3194 -0.1464 -0.1872
 6986W        W23170   9.787  14.314  11.891  0.0245  0.0457 -0.1384
 6987W        W23171  13.753   1.746   9.420 -0.1192  0.1421 -0.1349
 6988W        W23172  14.972   7.960   9.761  0.0024  0.0018  0.2079
 6989W        W23173  18.664   1.872  15.372 -0.0850 -0.0572 -0.0804
 6990W        W23174   7.690  17.792   5.332  0.0579  0.1056 -0.0298
 6991W        W23175   4.747   7.207   2.414 -0.0317 -0.0637  0.2304
 6992W        W23176   7.519  18.992   0.330 -0.1004 -0.0479  0.2128
 6993W        W23177  14.942  14.970  14.082  0.0690 -0.3358 -0.1467
 6994W        W23178  15.221   2.581   0.400 -0.0594  0.0694 -0.0067
 6995W        W23179   8.116   3.206  11.306 -0.1635 -0.1008 -0.2228
 6996W        W23180  17.652  16.009   0.495  0.0849  0.0026  0.0302
 6997W        W23181   8.911  16.501  11.251  0.0152  0.1255 -0.0879
 6998W        W23182  17.812  15.414   0.299  0.1508  0.1054 -0.0648
 6999W        W23183   2.473  12.465   3.952 -0.3712  0.2148 -0.0611
 7000W        W23184   6.610  15.069  12.701 -0.2186 -0.0334 -0.1779
 7001W        W23185  15.147   8.758  15.334 -0.0522  0.0341 -0.1003
 7002W        W23186   5.911  15.435  10.862 -0.0576  0.2037 -0.0623
 7003W        W23187  11.308   9.371   0.684 -0.1251  0.0821 -0.0109
 7004W        W23188   4.436   9.649   0.978  0.1761 -0.1581  0.1093
 7005W        W23189   6.385  16.222   4.896 -0.3853 -0.2102 -0.0781
 7006W        W23190   1.956   4.310  12.620 -0.0948  0.2317 -0.1153
 7007W        W23191  12.242   3.145   5.180  0.0699 -0.1066 -0.0125
 7008W        W23192  14.545   3.302  10.547 -0.1179 -0.1870 -0.0529
 7009W        W23193   0.068   8.447   0.751  0.2788  0.0598 -0.1702
 7010W        W23194  11.590   5.299   5.041 -0.1960 -0.1860  0.2080
 7011W        W23195  11.356   7.451  11.018 -0.1573  0.0309  0.0298
 7012W        W23196   1.371   4.898   0.820 -0.0185  0.0702 -0.1045
 7013W        W23197   4.569  11.936  15.283 -0.0107  0.0983 -0.2419
 7014W        W23198  14.058   0.881  14.549 -0.1700  0.0289  0.2535
 7015W        W23199  18.440  13.321   5.800 -0.1731  0.1742 -0.0613
 7016W        W23200   6.168   0.646  10.725  0.2678  0.2773 -0.0078
 7017W        W23201   6.237   1.219  14.187  0.0714 -0.2134 -0.1144
 7018W        W23202  17.455  14.450   3.775  0.2536 -0.0194  0.1866
 7019W        W23203  18.422  14.805  12.604  0.0194  0.0600 -0.3678
 7020W        W23204   1.952   2.183  12.520 -0.0685  0.3248  0.3953
 7021W        W23205   9.890  12.683   4.332 -0.0262  0.2373  0.1334
 7022W        W23206   8.199  13.142   3.306  0.2591 -0.3411 -0.0050
 7023W        W23207  10.464   2.576  11.802  0.1229 -0.1336  0.0348
 7024W        W23208  15.408   9.637   0.548  0.1820 -0.0022  0.2203
 7025W        W23209   7.330  16.289   0.593  0.0184 -0.2834  0.0192
 7026W        W23210   4.809   2.647   3.123  0.1026  0.5378 -0.2353
 7027W        W23211   1.928  14.563  11.566  0.1501  0.2751  0.3542
 7028W        W23212   9.200   5.862  14.759  0.4052 -0.1472 -0.0209
 7029W        W23213   7.221   8.866   4.771 -0.4266  0.1662 -0.0694
 7030W        W23214  17.164   8.393   3.386  0.1622  0.5067 -0.1624
 7031W        W23215   3.245   9.086  11.320  0.0773  0.2284 -0.1003
 7032W        W23216   3.992   2.900  14.504 -0.3320 -0.1264 -0.0798
 7033W        W23217   9.636  12.377  14.800  0.1049  0.1522  0.1161
 7034W        W23218  10.066  13.017  10.559  0.1024 -0.1469 -0.0432
 7035W        W23219  17.842   4.541   1.907 -0.1583 -0.2290 -0.2169
 7036W        W23220   1.065   0.469   2.507 -0.2684 -0.2037 -0.0738
 7037W        W23221  15.915  14.822  13.779  0.0598 -0.3648  0.1278
 7038W        W23222  12.720   1.205   2.393 -0.1534 -0.1373  0.0564
 7039W        W23223   4.127   4.123  14.950  0.1220 -0.0471  0.1293
 7040W        W23224   0.935  15.823  10.901 -0.0223 -0.0379  0.0407
 7041W        W23225   0.513   7.739   0.093 -0.0036  0.1265  0.0919
 7042W        W23226   9.676  11.528  14.445  0.1435  0.0562 -0.0036
 7043W        W23227   0.211   6.634  13.131 -0.0736 -0.3282  0.2049
 7044W        W23228   3.252  16.500   1.055 -0.0491 -0.3607  0.0427
 7045W        W23229  14.084  18.329  12.819 -0.0850  0.0707 -0.3622
 7046W        W23230   1.065   1.450   2.352  0.1929  0.2068  0.0075
 7047W        W23231   4.789   8.370   5.755  0.0026  0.1161 -0.1454
 7048W        W23232  17.931   8.811   0.893 -0.1513  0.1076 -0.1492
 7049W        W23233   4.646  18.228   4.159 -0.1015 -0.3997  0.1969
 7050W        W23234  11.219   0.192   2.977  0.2206 -0.1096  0.1349
 7051W        W23235   2.136  17.028   3.434  0.1052  0.1682  0.0552
 7052W        W23236   8.249  18.076  10.983 -0.0805  0.0355 -0.0141
 7053W        W23237  18.905   4.089  13.677  0.0884  0.0828  0.1308
 7054W        W23238   8.093  15.794   2.668 -0.0499 -0.2566 -0.0996
 7055W        W23239  18.415   9.035   3.735 -0.2701 -0.0142 -0.1210
 7056W        W23240  18.086   5.000  11.897 -0.3680  0.0314  0.0909
 7057W        W23241  17.588  16.438   4.050  0.0842 -0.0499 -0.2576
 7058W        W23242   5.764  11.432   3.414 -0.1335  0.2530 -0.1183
 7059W        W23243   7.923   6.121   9.579 -0.0540  0.1358  0.0557
 7060W        W23244  17.443  14.307   2.430  0.0108  0.1266 -0.3731
 7061W        W23245   7.802   0.271   5.090  0.3412 -0.1111 -0.2020
 7062W        W23246   6.425   0.075   2.869 -0.2562  0.0254 -0.1807
 7063W        W23247   3.584   8.967   3.608 -0.2078  0.1400 -0.0502
 7064W        W23248   9.280   9.557  12.723 -0.0082  0.0990 -0.0023
 7065W        W23249   6.491  15.905   2.990  0.0113 -0.1189  0.0238
 7066W        W23250   8.196  18.417   4.811 -0.2435 -0.0932  0.0625
 7067W        W23251   2.566  17.918   1.681  0.1326  0.0475  0.2757
 7068W        W23252   2.822  13.711   0.953 -0.0334 -0.0083 -0.1762
 7069W        W23253   5.832   4.976  10.827  0.0478 -0.0755  0.0287
 7070W        W23254  10.712  17.291   0.076  0.0735  0.1001 -0.1594
 7071W        W23255  13.490  12.912  13.109  0.0809  0.0182  0.1618
 7072W        W23256  11.831   1.659   2.129 -0.2701  0.2045 -0.1134
 7073W        W23257   4.572  11.126   1.208  0.2916  0.0234 -0.4884
 7074W        W23258   7.965  14.601  12.773 -0.2322 -0.1082  0.0832
 7075W        W23259   5.834  13.807  12.979 -0.0217  0.0723  0.2709
 7076W        W23260  17.841   3.870   2.296  0.2211 -0.0878 -0.2652
 7077W        W23261  17.582   3.828   5.055  0.1012  0.1525 -0.0692
 7078W        W23262  14.908   2.858   4.464  0.0072 -0.0776  0.3074
 7079W        W23263  10.460  12.277   5.540 -0.2176  0.5864 -0.2376
 7080W        W23264  18.117   5.381   9.731 -0.0310 -0.0163 -0.1504
 7081W        W23265   0.679   7.736   5.170 -0.0564 -0.1723 -0.2487
 7082W        W23266   0.543  10.020   2.000 -0.1330  0.1280 -0.1365
 7083W        W23267  17.537   8.023  11.838  0.2747 -0.2848 -0.4605
 7084W        W23268  12.677   8.494   3.307  0.0569  0.2326  0.0734
 7085W        W23269  14.057   6.581  11.207  0.1549  0.0481 -0.1401
 7086W        W23270   9.444   5.075  12.252 -0.2271 -0.5257 -0.0658
 7087W        W23271   2.608   9.466   2.585 -0.1323  0.1919 -0.3608
 7088W        W23272   1.511   3.345   2.686  0.3184 -0.1159  0.1664
 7089W        W23273   2.589  10.966   5.929 -0.1959 -0.2443  0.0374
 7090W        W23274   8.512   9.444  14.867  0.2295 -0.1732 -0.0191
 7091W        W23275  12.920   1.969   1.322 -0.1830 -0.0168  0.0027
 7092W        W23276  15.404  11.434   4.352  0.0402 -0.0025 -0.1154
 7093W        W23277   8.591  12.575  10.655  0.0047 -0.0895  0.0102
 7094W        W23278  14.637  11.263  12.731  0.1168  0.2806 -0.1448
 7095W        W23279  16.139   4.106  10.005  0.3772 -0.2705  0.0201
 7096W        W23280   9.449   7.305  12.865 -0.0232  0.2261  0.1158
 7097W        W23281   8.575  10.986   0.682 -0.0999  0.0977  0.1795
 7098W        W23282   2.726   2.102   1.758 -0.0257  0.0382  0.2033
 7099W        W23283   2.603   1.361   9.459 -0.3583  0.0899 -0.2568
 7100W        W23284   6.149   2.671  15.371  0.0333 -0.0604  0.0819
 7101W        W23285   5.595   3.488  12.754  0.1121  0.1117 -0.2488
 7102W        W23286  11.637   0.876   1.031 -0.2337  0.0223  0.2384
 7103W        W23287  12.981   4.783  14.778  0.2318 -0.2556 -0.0857
 7104W        W23288  15.373  16.898   1.912 -0.1257  0.0227 -0.4066
 7105W        W23289  14.703  11.956   0.151  0.1065 -0.1281 -0.1589
 7106W        W23290  10.155   1.821  13.125 -0.2910 -0.1767  0.1999
 7107W        W23291  10.703   3.831   1.529 -0.1462 -0.0059 -0.2074
 7108W        W23292   1.841  17.883  10.661 -0.2723 -0.1065 -0.2527
 7109W        W23293  14.198  16.643   4.111 -0.2280 -0.3860 -0.1104
 7110W        W23294   6.413   0.369  13.915  0.0906  0.2076  0.3593
 7111W        W23295  13.206  15.318   4.789 -0.0462  0.1392  0.2007
 7112W        W23296  16.963   1.852   4.198 -0.3259 -0.1949  0.0361
 7113W        W23297  17.303   9.366   3.128  0.3275 -0.0369 -0.1886
 7114W        W23298   3.169  14.294  13.089 -0.1795 -0.0416  0.2416
 7115W        W23299  13.933   5.356   0.941  0.1859  0.1337 -0.1934
 7116W        W23300   4.052   3.049  11.783 -0.1574  0.0753  0.0092
 7117W        W23301  15.600   1.790   2.342 -0.2484 -0.1462 -0.3480
 7118W        W23302   9.819   5.288   3.190  0.1628 -0.2036 -0.1638
 7119W        W23303  15.587  10.144   0.071  0.3632  0.1041  0.2540
 7120W        W23304   0.255  12.381   2.627  0.0244 -0.0016 -0.1999
 7121W        W23305  16.864   9.563  12.914  0.2142 -0.1151 -0.2628
 7122W        W23306   6.348   2.369   4.616 -0.0117  0.2678 -0.4899
 7123W        W23307  11.858   7.080  10.343 -0.1222  0.0740  0.1196
 7124W        W23308  13.484  18.240   2.388  0.3605 -0.1532  0.3259
 7125W        W23309   9.974   8.944  15.372 -0.2142 -0.1400  0.0464
 7126W        W23310   1.554   0.796  10.259 -0.4220  0.0296  0.0652
 7127W        W23311   7.147  10.744  15.073 -0.0213 -0.0831  0.1847
 7128W        W23312   2.037   8.200  14.491 -0.0415  0.0164 -0.0708
 7129W        W23313  14.583   6.355   4.637  0.0780 -0.0479  0.1338
 7130W        W23314  17.655  17.985  14.406  0.2163  0.0852  0.0943
 7131W        W23315  10.363  11.168   4.022  0.1207  0.1692  0.0111
 7132W        W23316  14.741  17.054   3.691 -0.3427 -0.4835 -0.0299
 7133W        W23317   6.325   1.139   1.337 -0.0202 -0.0207  0.2692
 7134W        W23318   6.913   6.973   1.593  0.3030  0.4003  0.3855
 7135W        W23319  11.284   6.448   3.393  0.0062  0.1874  0.0989
 7136W        W23320  10.856  13.791  12.639 -0.3219 -0.0315 -0.1438
 7137W        W23321  14.567  11.920   4.156 -0.2663  0.2227  0.0740
 7138W        W23322   5.895   3.734   2.747  0.3135 -0.1502 -0.2177
 7139W        W23323  17.315  18.238   5.051 -0.1471  0.1066  0.0071
 7140W        W23324   2.241  14.974   5.729  0.2661  0.0773 -0.0768
 7141W        W23325   3.389   1.934   3.658  0.2867 -0.0071 -0.1195
 7142W        W23326  16.325  14.707   2.416  0.3803  0.1292  0.0763
 7143W        W23327  10.525   5.638   2.652  0.0488 -0.2106  0.2635
 7144W        W23328   2.547   4.130  14.913  0.1061 -0.3096 -0.2092
 7145W        W23329   7.126   0.603   3.109  0.0500 -0.0870  0.1383
 7146W        W23330   8.464   0.088  11.708  0.0842  0.0841  0.0886
 7147W        W23331   1.439   7.637   3.870 -0.2288 -0.2147  0.0462
 7148W        W23332  16.377  13.780   3.735  0.0718 -0.3627  0.0731
 7149W        W23333   3.274  17.664   3.510  0.3018  0.0700  0.0740
 7150W        W23334  10.254   6.171  14.772 -0.2289 -0.0331 -0.0505
 7151W        W23335   6.094   7.322  13.716 -0.0698  0.3371 -0.0613
 7152W        W23336  15.050  18.400   2.246  0.0072 -0.1870  0.1284
 7153W        W23337  13.452  15.654   0.931  0.0695 -0.3405 -0.1204
 7154W        W23338   5.533   0.239  13.806  0.0743  0.0878 -0.0104
 7155W        W23339   7.262   0.628  10.831 -0.1011  0.3468  0.4725
 7156W        W23340  10.630  11.387   1.976 -0.0383  0.0972 -0.0975
 7157W        W23341   0.064   2.193   4.823  0.2169 -0.0867  0.1574
 7158W        W23342  17.173  13.192   0.738 -0.4749  0.0326 -0.3274
 7159W        W23343  16.510   2.080  13.808 -0.1349  0.1010 -0.1271
 7160W        W23344  13.093   7.633  12.405 -0.1122 -0.1172  0.3596
 7161W        W23345  11.438   2.225   1.941 -0.0673  0.1405 -0.1984
 7162W        W23346  15.667  16.844   0.110  0.0259 -0.0975 -0.0784
 7163W        W23347   9.214  16.940   2.823 -0.1606 -0.0226 -0.1160
 7164W        W23348  14.643  16.960  15.188 -0.0941  0.0229  0.2465
 7165W        W23349  14.930  16.944   1.293 -0.0552 -0.2579  0.1215
 7166W        W23350   4.901   1.678   4.566 -0.1408  0.1460  0.2067
 7167W        W23351   4.760  12.228   5.045 -0.0437 -0.0967  0.1439
 7168W        W23352   4.186   1.291   2.805  0.0961  0.0931 -0.2037
 7169W        W23353   7.819  11.193   2.233  0.2145 -0.2035 -0.0095
 7170W        W23354  11.344   8.926  14.323  0.2827 -0.1116 -0.1722
 7171W        W23355  12.685   1.085  13.901  0.2441 -0.0813  0.3676
 7172W        W23356  15.007   8.794   3.387  0.1765  0.0308 -0.3945
 7173W        W23357   3.992   6.235  14.451 -0.1410 -0.3603 -0.1499
 7174W        W23358   9.057  12.897   4.990 -0.0029 -0.1304  0.0326
 7175W        W23359   3.566   6.016   1.252 -0.0962 -0.0254 -0.1651
 7176W        W23360   3.606   3.168   4.775  0.2419  0.0063  0.2027
 7177W        W23361  11.169   1.889  14.210 -0.4995  0.2248 -0.0879
 7178W        W23362  11.353  14.278   3.081  0.0196  0.0416  0.0265
 7179W        W23363   5.853  15.063   4.709  0.1189  0.1593  0.1395
 7180W        W23364   6.971  15.783   1.921 -0.1644  0.0007 -0.2582
 7181W        W23365  13.505   2.133  10.670  0.0354  0.3993  0.3369
 7182W        W23366   9.492   0.802   0.694 -0.0152  0.0276  0.3016
 7183W        W23367   4.401   1.784  12.091 -0.0793 -0.1298 -0.2669
 7184W        W23368  18.764   3.440   5.431  0.1100 -0.1468  0.0331
 7185W        W23369  10.736  10.809   4.862 -0.0125 -0.2689  0.0561
 7186W        W23370  16.944  15.335   5.584 -0.1036  0.2277 -0.1087
 7187W        W23371   7.741   7.211  14.876 -0.0688 -0.0076 -0.0437
 7188W        W23372   2.455  14.419   4.599 -0.0182  0.0677 -0.3569
 7189W        W23373  10.244  16.226   2.128 -0.0764 -0.1995 -0.2194
 7190W        W23374   0.418   6.682  12.016 -0.1979 -0.0571  0.0920
 7191W        W23375   1.620   1.831   3.583 -0.1121 -0.0762 -0.0488
 7192W        W23376   9.749   0.256  12.076  0.2568  0.0315 -0.0050
 7193W        W23377   7.095   0.824   1.341  0.0717  0.1890  0.1510
 7194W        W23378   4.659   7.805   2.047 -0.1642  0.1902 -0.0184
 7195W        W23379  17.446   1.744   3.739 -0.2233 -0.0730  0.0931
 7196W        W23380   7.508   4.013   1.964 -0.0977  0.1285  0.1507
 7197W        W23381   5.825  11.026  14.877  0.0850 -0.3868 -0.0329
 7198W        W23382   6.008   5.477   3.212  0.3719  0.2502  0.0270
 7199W        W23383  11.984  15.032   3.064  0.1137 -0.0847  0.0193
 7200W        W23384   4.062  11.195  12.731  0.1564 -0.0370  0.0203
 7201W        W23385   1.342   6.089   9.733 -0.0409 -0.0772  0.0818
 7202W        W23386   5.637   7.396   2.204  0.1776 -0.2757 -0.0825
 7203W        W23387  13.413  17.042  14.884 -0.2918 -0.2881  0.1069
 7204W        W23388   0.258  16.091   1.530  0.0209 -0.0460 -0.0894
 7205W        W23389   0.272   6.439   1.336 -0.0227  0.1060 -0.3744
 7206W        W23390  11.603  10.401  14.177 -0.0323  0.2913  0.0983
 7207W        W23391   6.325  16.540   4.510 -0.1471  0.2755  0.2193
 7208W        W23392   7.138   9.454  14.049 -0.1617 -0.1168  0.2012
 7209W        W23393   6.460   1.191   4.154 -0.0060  0.0382  0.0113
 7210W        W23394  16.695  17.641   5.541 -0.1340  0.1727 -0.0845
 7211W        W23395   6.558   5.065   2.987 -0.2843 -0.1120 -0.0601
 7212W        W23396  11.906  17.450  12.864  0.1564 -0.0167  0.1319
 7213W        W23397   5.224  14.269   0.775 -0.1076 -0.3419  0.0210
 7214W        W23398  12.497   4.040   1.009  0.0013 -0.0708  0.3229
 7215W        W23399   9.812   0.644  11.705  0.1114  0.2959  0.3064
 7216W        W23400   5.199  16.752   2.540  0.0772  0.1575 -0.3085
 7217W        W23401  12.569   4.681  13.454  0.1202 -0.1149 -0.2813
 7218W        W23402  17.116  11.156   2.394  0.0331 -0.2540  0.1699
 7219W        W23403   9.610   4.630   3.548 -0.0434 -0.0476 -0.2261
 7220W        W23404   1.732   5.731   4.877 -0.0576  0.2751 -0.2622
 7221W        W23405   0.877  13.311   0.107  0.0612  0.3227  0.3080
 7222W        W23406   1.755   1.606   5.455 -0.0692 -0.2435 -0.0706
 7223W        W23407  10.693   5.662   4.916 -0.0431  0.0848 -0.1355
 7224W        W23408   4.538   0.621   1.670  0.2547 -0.3098 -0.2044
 7225W        W23409   2.257   2.437   1.297  0.3154  0.0976 -0.1631
 7226W        W23410   8.119  16.740   1.704  0.0882  0.0690 -0.0517
 7227W        W23411  10.910  11.221  13.522 -0.2372 -0.2765 -0.1887
 7228W        W23412  13.582   7.703   1.389  0.0812 -0.2724  0.0213
 7229W        W23413  18.356  10.114  11.830 -0.0171  0.2117  0.2072
 7230W        W23414  18.696  18.373   4.508  0.4511 -0.0026 -0.1251
 7231W        W23415   3.561  14.392   4.117 -0.0345  0.1142  0.1122
 7232W        W23416  18.555   2.312   3.667 -0.1215  0.1539  0.0606
 7233W        W23417   0.589  11.483   2.982  0.1312 -0.5283  0.1743
 7234W        W23418   3.342  16.885  11.918  0.1117  0.1726 -0.1221
 7235W        W23419  14.244   5.815   3.751  0.1265  0.0351  0.0529
 7236W        W23420   4.709   6.519   5.126  0.0407 -0.2888 -0.2225
 7237W        W23421  10.644  13.482  14.705 -0.1115 -0.0015 -0.0888
 7238W        W23422  11.642   8.911   9.742 -0.0800 -0.1417  0.5808
 7239W        W23423  17.967  15.338   1.356  0.1817  0.2469 -0.2948
 7240W        W23424  10.152   3.930  13.495  0.1343 -0.3892  0.2560
 7241W        W23425   5.503  16.326   0.885  0.1354  0.1494  0.1525
 7242W        W23426  15.205   3.825  13.185 -0.1798 -0.2278  0.0256
 7243W        W23427   6.109  12.215   3.568  0.0972  0.0377  0.0921
 7244W        W23428  16.934   6.241  14.443  0.0762 -0.0004 -0.0031
 7245W        W23429   8.394  11.879  12.771 -0.3153 -0.3308 -0.1043
 7246W        W23430   7.599  10.400  15.178 -0.1990 -0.1543  0.4316
 7247W        W23431   3.657  10.257   0.219 -0.0140 -0.1521  0.1660
 7248W        W23432   3.071  11.562   5.669 -0.0011  0.1586  0.2038
 7249W        W23433   4.135  15.354   1.900  0.0315 -0.0154 -0.2186
 7250W        W23434  17.418   2.092  13.819 -0.6443 -0.0602  0.2706
 7251W        W23435  13.127   5.295   2.019 -0.0508  0.2233  0.2393
 7252W        W23436   3.061   7.063  13.365 -0.0554  0.1016 -0.1057
 7253W        W23437  10.281  18.606   3.481  0.0661 -0.0160  0.2696
 7254W        W23438   8.790  10.959  13.962  0.0477 -0.0181 -0.0859
 7255W        W23439   0.924  10.070   3.084  0.2633  0.0230 -0.2008
 7256W        W23440   5.935  13.461   1.374  0.1598 -0.2220  0.0794
 7257W        W23441   5.898  12.804   5.189  0.0983 -0.0925 -0.1976
 7258W        W23442   4.842  16.233  13.847  0.2869 -0.0330  0.0828
 7259W        W23443   7.703   7.258  14.021  0.2051 -0.0133 -0.1931
 7260W        W23444  17.505  18.287  13.735  0.0760  0.1232 -0.1792
 7261W        W23445  10.410   8.213   2.233 -0.1885  0.1101  0.0141
 7262W        W23446   3.713  18.251   1.000  0.1049 -0.0623 -0.0874
 7263W        W23447   2.721   3.067   0.001 -0.2939  0.0071  0.1153
 7264W        W23448   1.564   9.788  11.348 -0.5618  0.1349  0.0623
 7265W        W23449   7.489   4.031  12.331 -0.2361  0.1597  0.1809
 7266W        W23450   3.015  12.252  11.324 -0.2043  0.2247 -0.1827
 7267W        W23451   7.517  17.773   2.020  0.0705 -0.0227  0.1221
 7268W        W23452   7.371  15.340   5.339  0.0183  0.2088  0.2245
 7269W        W23453  14.576   9.580   4.257 -0.3712  0.0513  0.0052
 7270W        W23454  15.006  17.276   0.489 -0.0140 -0.0212 -0.3565
 7271W        W23455   6.654   3.077  14.781  0.0889  0.0818  0.0116
 7272W        W23456  18.308   4.581  14.398  0.1660 -0.1289 -0.1290
 7273W        W23457  15.044  16.468   1.367  0.1672 -0.3805  0.3029
 7274W        W23458   2.766   1.786   4.531  0.1010 -0.1235 -0.0175
 7275W        W23459  10.969  14.827   4.384 -0.1711 -0.3682 -0.2170
 7276W        W23460  11.358  14.756  11.314 -0.2647 -0.0442 -0.3056
 7277W        W23461  18.254   9.794   0.238  0.0814 -0.2995  0.1188
 7278W        W23462   2.021   3.155  12.811 -0.3016 -0.0083 -0.3821
 7279W        W23463   8.771   5.312  14.901 -0.0315 -0.2376 -0.2481
 7280W        W23464   3.782  17.939  14.992 -0.1120  0.0253 -0.0493
 7281W        W23465  10.031   7.924   0.110  0.1879 -0.0131 -0.2246
 7282W        W23466  10.603  11.106  11.418  0.0740 -0.0982 -0.1568
 7283W        W23467   2.055   2.704   4.252  0.0541 -0.0464 -0.1483
 7284W        W23468  18.798  15.334   0.144  0.3312  0.1590  0.2764
 7285W        W23469  10.344   6.359  13.754 -0.2175 -0.1891  0.1319
 7286W        W23470   2.293   2.884   5.116  0.0191 -0.1604  0.3435
 7287W        W23471  13.655  18.898  13.586  0.0556 -0.2213 -0.0230
 7288W        W23472  14.388  12.388   1.851 -0.0658 -0.1064  0.5120
 7289W        W23473   9.927  12.441   3.578 -0.0744  0.3261 -0.0685
 7290W        W23474  10.361  11.645  12.798  0.1170 -0.1233 -0.4489
 7291W        W23475  14.470   5.694  10.600 -0.3373 -0.2361  0.0647
 7292W        W23476  16.182  13.454   2.883  0.1585  0.2402 -0.0857
 7293W        W23477   8.789   9.768   3.774 -0.0231 -0.2197 -0.1160
 7294W        W23478   2.316   7.648  15.244  0.0856  0.1027  0.0299
 7295W        W23479   9.983  18.018   4.533 -0.0913 -0.0602 -0.2371
 7296W        W23480  17.781  16.038  13.891  0.0173  0.0354  0.3739
 7297W        W23481   2.369  13.412  15.288  0.0106 -0.1054  0.2062
 7298W        W23482   2.801   9.202   4.717  0.0306 -0.0019  0.3600
 7299W        W23483  15.062   2.971   2.558  0.2104 -0.1038  0.0071
 7300W        W23484  16.613   4.664   4.420 -0.4480 -0.0541 -0.0879
 7301W        W23485   7.459  14.053  14.291 -0.3567  0.0541 -0.0501
 7302W        W23486  16.523  17.952   3.758  0.0742 -0.0127 -0.2263
 7303W        W23487   5.407  15.978  14.822 -0.0603 -0.0550  0.5819
 7304W        W23488   8.286  17.190   4.335 -0.0095 -0.2189  0.0896
 7305W        W23489   5.193   2.415   4.625 -0.5020 -0.1025 -0.3387
 7306W        W23490   2.873   5.377  13.827 -0.2900 -0.0857  0.3610
 7307W        W23491  11.787   7.614  12.531 -0.0109 -0.1528 -0.2491
 7308W        W23492   3.298   4.411   2.551  0.2333  0.0360 -0.1675
 7309W        W23493   9.672  11.159  12.458 -0.1314  0.1995  0.1515
 7310W        W23494   8.513  14.906  10.519  0.2685 -0.1677 -0.0035
 7311W        W23495   2.236  16.033   3.381 -0.0941  0.0149  0.1437
 7312W        W23496   0.482  18.978   1.850 -0.0703  0.0392  0.2981
 7313W        W23497   1.742  18.483  11.264  0.3394 -0.4232 -0.4165
 7314W        W23498   0.304  12.710  13.816 -0.0616 -0.3177  0.2727
 7315W        W23499  15.531   7.991  12.838 -0.1401  0.1451  0.4247
 7316W        W23500  11.604   7.425   9.295 -0.1123 -0.3063  0.0092
 7317W        W23501   7.333   2.535  11.509  0.1341  0.0063 -0.2098
 7318W        W23502   5.416   7.190   1.832 -0.1159  0.0107 -0.0199
 7319W        W23503   2.001   8.615  10.382  0.4811 -0.2063 -0.0548
 7320W        W23504   5.871  11.056   0.413  0.1066  0.1038  0.4379
 7321W        W23505   0.378   0.409   1.189  0.4427  0.2726 -0.2536
 7322W        W23506  18.325   9.537  15.202  0.0026 -0.1870  0.0370
 7323W        W23507  16.859  17.890  15.182 -0.1787  0.0260  0.2632
 7324W        W23508   7.152  14.919   3.386  0.0803 -0.0113 -0.1686
 7325W        W23509  10.819  12.597   3.053  0.1887 -0.2559 -0.0702
 7326W        W23510  16.673   8.676   1.581 -0.2137  0.2536 -0.0251
 7327W        W23511   5.373  14.542   2.836  0.1868 -0.1960  0.1798
 7328W        W23512  11.624  10.926   3.459 -0.0203 -0.1994  0.1169
 7329W        W23513   3.571  11.075   3.081  0.0954 -0.0340 -0.3381
 7330W        W23514  10.487   2.625   4.415  0.3351 -0.0699 -0.2961
 7331W        W23515  12.716   1.743   4.494 -0.1131 -0.0512  0.0924
 7332W        W23516  13.109  18.118   3.415  0.1533  0.3226  0.0540
 7333W        W23517   6.255  14.211   5.306  0.0718 -0.0093  0.3123
 7334W        W23518   8.259  13.307  10.526  0.0747 -0.2062  0.0439
 7335W        W23519  10.379  12.612   3.402  0.2627  0.0088 -0.1043
 7336W        W23520   8.062  12.021  13.718  0.0170 -0.2423 -0.0634
 7337W        W23521   1.744   7.024  13.755 -0.0636 -0.1185  0.3256
 7338W        W23522  14.707   9.005  15.234  0.0762  0.0065 -0.3039
 7339W        W23523   6.676  16.861  13.462 -0.1099  0.0176  0.1576
 7340W        W23524   8.187   9.581  13.374 -0.1319  0.0622  0.0258
 7341W        W23525   3.099  18.660   1.774  0.0719  0.2158  0.2276
 7342W        W23526  18.192   4.703  13.611 -0.4593 -0.1602  0.1399
 7343W        W23527  16.494   1.701  14.958  0.0703  0.0522 -0.3747
 7344W        W23528  10.958  15.791   0.844 -0.0469  0.1968  0.4359
 7345W        W23529   6.004  15.508   5.136  0.0212 -0.0404  0.0506
 7346W        W23530  13.644  16.031  13.963 -0.0511  0.0058  0.1195
 7347W        W23531  11.610   2.050   2.980  0.2645  0.2058  0.1953
 7348W        W23532   8.261  10.860   2.216  0.0917 -0.0632  0.0814
 7349W        W23533   2.162   6.862   0.375  0.2745 -0.0305  0.1734
 7350W        W23534  10.574  14.028  15.070 -0.1367 -0.1522 -0.1145
 7351W        W23535   7.148   1.623   0.478  0.1969 -0.2533 -0.1585
 7352W        W23536   8.256  10.156  15.343 -0.1222 -0.1554  0.5167
 7353W        W23537   1.035   3.751   0.912  0.1066  0.0631 -0.1633
 7354W        W23538   4.237  18.508  12.368  0.2865 -0.1473 -0.0190
 7355W        W23539   2.334   7.134  10.364  0.2844 -0.0966  0.0928
 7356W        W23540   0.695   4.890  14.404  0.5149  0.0184 -0.3023
 7357W        W23541   1.336  18.267  11.825  0.1453 -0.1597  0.1508
 7358W        W23542  14.136  12.884  12.252  0.1825  0.2036 -0.0561
 7359W        W23543  16.319  10.031  14.863 -0.1670 -0.0817  0.1005
 7360W        W23544   5.400   4.991  14.887  0.4556 -0.0234 -0.2018
 7361W        W23545   3.362  13.180   4.944 -0.0866  0.3569  0.0958
 7362W        W23546  10.799  17.911  13.528 -0.4784  0.0192 -0.0210
 7363W        W23547   6.251  12.102   4.055 -0.1062  0.0972 -0.1045
 7364W        W23548  17.179   5.803  14.641 -0.2198 -0.2458  0.2701
 7365W        W23549   2.650  12.565  10.330 -0.0579 -0.2264  0.0495
 7366W        W23550   0.136  14.375  11.667  0.0949 -0.0362 -0.1049
 7367W        W23551   8.968  14.933   1.223 -0.1240  0.1052  0.0530
 7368W        W23552   4.369   0.259  14.642  0.2342 -0.4417  0.2421
 7369W        W23553   2.514   9.082   2.108  0.1762  0.3430 -0.1774
 7370W        W23554   6.910  14.879  11.767  0.0274  0.1917 -0.2496
 7371W        W23555  15.620  10.915  14.338 -0.4328 -0.0295  0.3259
 7372W        W23556  15.257  15.551   3.786  0.1485 -0.1221  0.0616
 7373W        W23557  17.038  18.339   0.289 -0.1251  0.4233  0.0084
 7374W        W23558   3.973  13.949  14.731 -0.3401 -0.1356  0.1476
 7375W        W23559   3.391   9.279  15.299  0.2195 -0.0431  0.4356
 7376W        W23560  10.300   2.593   4.838 -0.2055  0.1888 -0.2551
 7377W        W23561  12.161  11.701  11.205  0.0397  0.1002 -0.0104
 7378W        W23562   3.005  10.148  13.603 -0.0332 -0.1001  0.0514
 7379W        W23563   8.894   6.867  11.653  0.2337  0.0506 -0.1976
 7380W        W23564  12.805   2.667  11.967  0.0311  0.1296 -0.2633
 7381W        W23565   1.001   1.929  15.234  0.1465 -0.0295 -0.2709
 7382W        W23566   7.345  15.579  15.004  0.0023  0.0210  0.1346
 7383W        W23567  11.914  13.151   4.435 -0.0767  0.1526 -0.1578
 7384W        W23568   7.077  17.709   1.005  0.1904  0.0653 -0.1165
 7385W        W23569   5.721   7.067  14.598  0.1017 -0.0942  0.0961
 7386W        W23570   1.249  16.036  14.077 -0.1852  0.0114 -0.0246
 7387W        W23571   2.836  14.011   1.821 -0.2714 -0.1171 -0.0676
 7388W        W23572  17.803   5.430  11.322  0.2250 -0.0781 -0.0152
 7389W        W23573   0.676  11.840  13.285 -0.1115  0.1855  0.0084
 7390W        W23574   4.042  10.913  12.315 -0.3262  0.0067 -0.3150
 7391W        W23575   9.993   1.613  10.639  0.0749 -0.0637 -0.4677
 7392W        W23576  11.486   7.776   3.121  0.2174 -0.4106 -0.1158
 7393W        W23577   3.018   1.598  15.268 -0.2728 -0.1288 -0.3905
 7394W        W23578   4.663   2.864   2.461 -0.1384  0.0815  0.1147
 7395W        W23579  10.677   6.959   0.651 -0.1848 -0.3361  0.0730
 7396W        W23580  14.048  12.720   1.046  0.1565  0.1607 -0.2041
 7397W        W23581   8.637   1.908  14.989  0.1286  0.1047 -0.2406
 7398W        W23582  15.828  14.498   1.081  0.0429 -0.1221  0.2067
 7399W        W23583   7.884  13.180   1.642  0.3311  0.0115  0.0431
 7400W        W23584  14.245   0.713   0.923  0.2986  0.0152  0.1421
 7401W        W23585   3.350   2.739   2.195  0.3511  0.2030 -0.0617
 7402W        W23586   6.257   3.949  13.882  0.0222 -0.1118 -0.0356
 7403W        W23587   2.456   1.536  15.191 -0.1123 -0.4087  0.3251
 7404W        W23588  15.509  14.174   1.728  0.0013  0.2501  0.0269
 7405W        W23589   7.296   1.105   0.986 -0.2460 -0.0032 -0.3118
 7406W        W23590   1.751  10.896   3.191  0.2008 -0.2007 -0.3359
 7407W        W23591   6.132  13.358  14.803  0.0380 -0.1502 -0.1443
 7408W        W23592   2.589  16.311   3.679 -0.1070  0.0232 -0.0347
 7409W        W23593  13.122  10.908  10.806  0.1241 -0.0941  0.1491
 7410W        W23594   4.308   0.764   2.967  0.0493 -0.0317  0.1411
 7411W        W23595  18.519  12.618  13.258 -0.5217 -0.0094 -0.2331
 7412W        W23596   1.307  15.731   0.564  0.1336  0.1093  0.3890
 7413W        W23597  13.574  14.653  13.415 -0.4414 -0.0896  0.1439
 7414W        W23598  11.362   1.993   1.001 -0.2228 -0.0983  0.0805
 7415W        W23599  18.852   5.224  12.081  0.2167  0.3858 -0.1663
 7416W        W23600   3.793  18.231  12.074  0.2761 -0.0277 -0.3368
 7417W        W23601   1.231   1.715   5.402  0.1039  0.1305  0.0952
 7418W        W23602  15.806   3.443   1.247  0.2150  0.2537 -0.0059
 7419W        W23603  15.993  18.018  10.600 -0.0547 -0.2222 -0.0960
 7420W        W23604   2.943   1.387  14.285  0.0311 -0.4895 -0.3418
 7421W        W23605  14.310   2.257  12.241 -0.1418  0.0123 -0.2093
 7422W        W23606   7.575  16.690   0.012 -0.2424 -0.1670  0.0842
 7423W        W23607   0.147  16.376   2.088 -0.0681  0.2843 -0.4116
 7424W        W23608  11.782   0.018   3.617  0.1108 -0.4493  0.1043
 7425W        W23609  16.095   3.367  12.439 -0.1075 -0.0034  0.0131
 7426W        W23610  10.647  10.127   4.106 -0.3361 -0.0314 -0.1798
 7427W        W23611  17.635   2.153   2.177  0.1149  0.2398 -0.0605
 7428W        W23612   2.908   0.242   1.106 -0.1577 -0.2291 -0.0020
 7429W        W23613   5.290   2.980  12.742  0.0387 -0.1585  0.3058
 7430W        W23614   3.590  15.362   1.627 -0.0367  0.0253 -0.3400
 7431W        W23615   5.918   1.183   3.438 -0.1220  0.2287 -0.1062
 7432W        W23616  10.372   9.728  11.598  0.1312 -0.1995 -0.2134
 7433W        W23617   6.409   6.296  13.501 -0.0665 -0.3093  0.1612
 7434W        W23618  14.817   3.497   2.721 -0.1135  0.2047 -0.1543
 7435W        W23619   6.710  10.456   0.335 -0.2250  0.3380 -0.1521
 7436W        W23620   1.923   0.204   1.393 -0.3901 -0.0683  0.1168
 7437W        W23621   8.791   0.861  13.035  0.0658  0.1954  0.1134
 7438W        W23622  11.468   5.718  12.272 -0.1165  0.0418  0.0376
 7439W        W23623   8.433  16.376  13.769  0.1600  0.2421 -0.1389
 7440W        W23624   9.661   6.168  13.300 -0.1630 -0.5458  0.0673
 7441W        W23625   0.782   4.378   1.434 -0.1719 -0.1728 -0.1886
 7442W        W23626  13.101  11.541  14.398 -0.2246  0.1967 -0.2103
 7443W        W23627   0.061  15.649   3.615 -0.0590 -0.0918  0.0514
 7444W        W23628  12.954  15.332   1.808 -0.4626  0.0778 -0.0619
 7445W        W23629  17.265  18.352   3.905 -0.1708  0.1579  0.5305
 7446W        W23630  17.259   1.376  14.124  0.2367 -0.0819  0.0851
 7447W        W23631  13.892   1.367  12.698 -0.2784 -0.1700  0.0226
 7448W        W23632  12.685   1.940   0.474  0.1715  0.0312  0.3134
 7449W        W23633   4.253   3.882   1.383 -0.3225 -0.1390  0.2224
 7450W        W23634  12.229   8.792   0.435  0.2503  0.1967  0.1804
 7451W        W23635  13.338   6.016   2.639  0.2570  0.0666 -0.1949
 7452W        W23636   2.905   4.121  11.803  0.1348 -0.1600  0.2238
 7453W        W23637   5.682   3.416   0.336 -0.1533 -0.2534  0.1031
 7454W        W23638   7.210   3.408  14.885 -0.2654 -0.0611 -0.0690
 7455W        W23639  12.742   7.647  15.337 -0.3241 -0.0128 -0.1730
 7456W        W23640  11.998   5.880   2.836 -0.0996 -0.0593 -0.1835
 7457W        W23641   5.294   1.088  14.113  0.2869 -0.2405 -0.1426
 7458W        W23642   6.794   9.029   0.190 -0.3269  0.2419  0.3087
 7459W        W23643  14.052  18.675  11.820  0.1141 -0.4272  0.0453
 7460W        W23644  10.087  10.618   3.910 -0.2747  0.0046 -0.0894
 7461W        W23645  13.245  18.075  13.939  0.1164  0.5158 -0.0339
 7462W        W23646  18.447   2.147   1.927  0.0834  0.1368  0.1093
 7463W        W23647   5.803  10.923  11.314 -0.0198  0.0955 -0.5982
 7464W        W23648   4.426   8.902  10.818 -0.2882 -0.3610  0.1714
 7465W        W23649  18.524  17.130   4.078 -0.2819  0.0870  0.2492
 7466W        W23650  13.125   7.334  11.043 -0.0102  0.1728 -0.0701
 7467W        W23651  15.955   6.861   0.949 -0.0233  0.2659 -0.0816
 7468W        W23652  15.578  14.954   4.576 -0.1316 -0.0753  0.2373
 7469W        W23653   7.749   3.019  14.289 -0.1474  0.3148 -0.2473
 7470W        W23654   5.597   6.662  14.364  0.0508  0.2089  0.0067
 7471W        W23655  11.350  12.780   1.901 -0.3660  0.2357  0.2224
 7472W        W23656  18.556   1.993  11.539 -0.0340 -0.0113  0.0884
 7473W        W23657  17.890  17.348   0.030 -0.3842 -0.0233 -0.4189
 7474W        W23658  13.314   3.347  10.934  0.0555 -0.4476 -0.1645
 7475W        W23659   9.424  11.653   0.142 -0.1339 -0.1672 -0.2306
 7476W        W23660   2.113  15.476  10.247  0.1918  0.0934 -0.0490
 7477W        W23661   4.835  10.980  12.039 -0.2689  0.0611 -0.1703
 7478W        W23662  16.751  12.310   2.148  0.1679 -0.1316  0.1301
 7479W        W23663  17.317  15.655   2.686 -0.0658 -0.2428 -0.0169
 7480W        W23664   3.100  18.285  11.813  0.0751  0.1304 -0.1882
 7481W        W23665   8.020   8.074   4.074 -0.2805  0.1690  0.3220
 7482W        W23666   7.560   9.538   3.670  0.0315 -0.2616  0.0996
 7483W        W23667  10.132  13.640   1.035  0.2227  0.2444  0.0502
 7484W        W23668  13.065   8.511   3.735 -0.3107 -0.1181 -0.2911
 7485W        W23669   1.759   6.147  11.810  0.1240 -0.0381 -0.0777
 7486W        W23670   6.526   2.250  12.572 -0.1079 -0.2105  0.2176
 7487W        W23671   7.561  11.175  11.606 -0.0497  0.1353  0.1426
 7488W        W23672  17.351   4.194   0.803 -0.0449 -0.0535  0.0806
 7489W        W23673  16.360   4.327  13.586  0.0478 -0.1806  0.0584
 7490W        W23674   2.326   9.470   4.436  0.0541  0.4769 -0.1606
 7491W        W23675  11.589   9.841   2.785  0.0520 -0.0549 -0.1145
 7492W        W23676  10.301   3.820  14.420 -0.0394 -0.4821  0.0060
 7493W        W23677   7.796  12.680   3.482 -0.2421 -0.1190 -0.0320
 7494W        W23678  11.274   7.794   0.634 -0.1376 -0.4548 -0.0362
 7495W        W23679  14.541  17.051   2.894  0.2996 -0.0947  0.1045
 7496W        W23680   8.112   6.150  10.936 -0.2563  0.0725  0.1283
 7497W        W23681   9.318  12.127   1.296  0.0181  0.0074 -0.1212
 7498W        W23682   8.990   2.400  10.852 -0.4502  0.0147  0.1601
 7499W        W23683  17.253   4.242  13.064  0.3669  0.2099 -0.0600
 7500W        W23684   7.932  10.591  14.468  0.0422 -0.1039  0.0840
 7501W        W23685  18.053   7.078  15.356  0.0833  0.0104 -0.2069
 7502W        W23686   4.794   9.138   1.924 -0.0304 -0.0955 -0.3218
 7503W        W23687   4.360  11.923   5.079  0.3961  0.1721 -0.2044
 7504W        W23688  12.647   4.181   3.931 -0.0853 -0.3088 -0.4150
 7505W        W23689   3.212  15.868   4.608  0.0359 -0.1172  0.2281
 7506W        W23690  15.842  15.879   3.289  0.0594 -0.2069 -0.0384
 7507W        W23691  12.453   2.550   0.012 -0.0651 -0.1362  0.4150
 7508W        W23692   5.970  18.607   3.439 -0.0479 -0.3555  0.1292
 7509W        W23693  17.069   3.494   0.051 -0.0976  0.1916 -0.0589
 7510W        W23694   7.415  12.421   4.843  0.0552 -0.3958 -0.2250
 7511W        W23695  12.344  14.107  10.956  0.0401 -0.2534 -0.2331
 7512W        W23696   4.298   3.576  14.438  0.2334 -0.0437  0.0209
 7513W        W23697   9.636   4.944   3.949  0.3182  0.1299  0.1096
 7514W        W23698  14.292   3.454   9.800  0.0057  0.0407  0.0672
 7515W        W23699   5.776  10.490   3.717  0.2764  0.0304  0.0838
 7516W        W23700   1.565   3.116  12.005 -0.1071 -0.5135 -0.0542
 7517W        W23701   0.969  11.357   0.673 -0.2105 -0.0169  0.1658
 7518W        W23702   2.975   8.471  14.907 -0.2697  0.0213 -0.2489
 7519W        W23703  18.476   3.870   2.364  0.3208 -0.1676  0.0313
 7520W        W23704  13.222   8.775   4.326 -0.1621 -0.3774 -0.2302
 7521W        W23705   1.218  17.899   1.119 -0.0751  0.1418 -0.2167
 7522W        W23706  18.175   9.425   3.459 -0.1726 -0.1825  0.0227
 7523W        W23707  15.640   6.654   1.441  0.0749 -0.2050  0.2184
 7524W        W23708  15.510  10.863  12.148 -0.3508 -0.0604  0.1479
 7525W        W23709  12.923   9.515   3.872 -0.2499 -0.1523  0.0339
 7526W        W23710   8.842  12.584  14.202  0.0946 -0.0589  0.0162
 7527W        W23711   9.001  14.197  14.313 -0.1315  0.0312 -0.1357
 7528W        W23712   7.204  17.692  14.768 -0.0039  0.1578 -0.0294
 7529W        W23713  12.737   6.657   1.411 -0.0938 -0.0778 -0.0541
 7530W        W23714   0.136  18.022  14.746  0.0514 -0.0874  0.1092
 7531W        W23715  13.237  11.357  12.152 -0.2912 -0.0583 -0.2325
 7532W        W23716  14.869  11.842   2.204 -0.1924 -0.0443 -0.1952
 7533W        W23717  16.828  11.453   2.647  0.2516  0.0543 -0.0456
 7534W        W23718  18.832   3.480   4.174 -0.0475 -0.1868 -0.1385
 7535W        W23719  10.808   8.085   3.060 -0.3286  0.1339 -0.1468
 7536W        W23720   8.940   5.388  13.325 -0.1469 -0.0391 -0.1988
 7537W        W23721   8.471  14.200  14.457  0.0954  0.2735 -0.1591
 7538W        W23722   6.435  13.841   3.204 -0.1677 -0.0966  0.1635
 7539W        W23723   9.134  17.530   3.586 -0.3433  0.2513  0.0031
 7540W        W23724   4.163  17.881   1.729 -0.1593 -0.2964 -0.0982
 7541W        W23725  11.406   7.695  12.155 -0.1633 -0.0852  0.2377
 7542W        W23726  16.150  17.796  11.484 -0.0995 -0.0699  0.0023
 7543W        W23727   0.230  17.339  10.686  0.0156  0.2705 -0.0458
 7544W        W23728  12.392  14.892   1.922 -0.0248  0.2307  0.2177
 7545W        W23729   9.410   2.163  13.707 -0.0667 -0.0112 -0.1302
 7546W        W23730   3.822   8.709   5.188 -0.0706  0.0416  0.0174
 7547W        W23731   2.521   7.055   2.080 -0.0110 -0.1111 -0.1023
 7548W        W23732  12.756   8.054  11.523 -0.1583  0.1995  0.5397
 7549W        W23733   3.983   6.742  11.063  0.2511 -0.2628  0.1526
 7550W        W23734  11.142  17.140  11.342  0.0855 -0.0487  0.2526
 7551W        W23735  16.227  12.182   3.557 -0.1261  0.2314 -0.1950
 7552W        W23736  18.962   1.619  11.544  0.0952  0.0311 -0.1354
 7553W        W23737   8.882   7.762   2.385  0.1942  0.0553  0.0730
 7554W        W23738  13.498  18.592  10.291 -0.2498 -0.3900  0.4203
 7555W        W23739  10.729   0.540  11.917  0.0318 -0.2719 -0.4066
 7556W        W23740  12.125   7.244   1.259 -0.0243 -0.3972  0.1688
 7557W        W23741  18.006   9.832  14.466 -0.1838 -0.2422 -0.2262
 7558W        W23742  14.906   9.637   2.804 -0.0933  0.1443 -0.0795
 7559W        W23743  14.461  11.255   3.736 -0.0727 -0.0332  0.0217
 7560W        W23744  10.725  18.570   2.034  0.0432  0.1735 -0.1048
 7561W        W23745  12.691  16.795  11.574 -0.2506 -0.0308  0.1667
 7562W        W23746  14.179  10.101  12.628 -0.0186  0.2381 -0.3377
 7563W        W23747   5.893  11.525   5.630 -0.1759 -0.1378  0.0045
 7564W        W23748  17.192  14.487   0.869  0.0753  0.2458  0.0935
 7565W        W23749   9.730  10.181  11.626  0.0384  0.1419 -0.3115
 7566W        W23750   1.187  14.934   1.077  0.2404 -0.0396 -0.4334
 7567W        W23751  17.487  12.177  11.618  0.0416 -0.1352  0.0356
 7568W        W23752  18.906  10.082  11.667 -0.0214  0.0364 -0.0633
 7569W        W23753   8.363   1.103  13.053  0.1669 -0.0431  0.0907
 7570W        W23754   3.033   1.027  11.822 -0.1942  0.2220 -0.1549
 7571W        W23755   7.508  16.479   2.351 -0.1813  0.1891  0.1617
 7572W        W23756  13.320   4.022   3.374 -0.0477 -0.0586  0.3079
 7573W        W23757  16.789   9.998  13.966  0.1433  0.5149  0.0593
 7574W        W23758  15.499  17.089   2.894  0.0003 -0.2622  0.3017
 7575W        W23759  18.503   2.583  15.370 -0.1217 -0.3620 -0.1460
 7576W        W23760  10.889  14.443  10.933  0.2103 -0.0159  0.1131
 7577W        W23761  13.564   9.315  14.779  0.1065 -0.1080  0.0164
 7578W        W23762   6.798  14.480   3.172 -0.1688  0.0734 -0.1343
 7579W        W23763  17.031  18.533   1.588  0.2160 -0.2037 -0.1806
 7580W        W23764   7.634  13.610  11.131  0.0165 -0.2328 -0.0119
 7581W        W23765  17.224  15.786   3.929 -0.1905  0.4075  0.1861
 7582W        W23766   9.491   6.192   0.297  0.0399 -0.2323  0.0727
 7583W        W23767   1.351   6.438   4.393 -0.1259  0.0507 -0.1987
 7584W        W23768   4.245   6.915  10.049 -0.2708  0.0350 -0.1638
 7585W        W23769   5.366   7.027   4.578  0.0538  0.0852  0.2564
 7586W        W23770  12.250  14.345  11.483 -0.4189  0.2611  0.0181
 7587W        W23771  11.488  16.000  13.095 -0.2155  0.2229  0.0971
 7588W        W23772   0.819   9.184   5.361  0.1066 -0.2292 -0.1478
 7589W        W23773   0.229  14.298  13.198  0.0875 -0.1042 -0.1861
 7590W        W23774   7.951   5.913  12.035 -0.0519  0.2635 -0.0167
 7591W        W23775  16.312  11.693   1.271  0.2711  0.0624  0.2122
 7592W        W23776   7.354   7.267   2.223  0.2269 -0.1877  0.1099
 7593W        W23777  13.482  17.742   0.434 -0.0456  0.1116 -0.1869
 7594W        W23778  13.808  12.601   4.022 -0.0336  0.4180  0.0031
 7595W        W23779   6.168   4.430  14.487  0.1954 -0.2952 -0.1517
 7596W        W23780  14.498  11.054   1.174 -0.0616 -0.0200 -0.0709
 7597W        W23781   8.933  10.121  11.088 -0.0717 -0.2756 -0.1351
 7598W        W23782  15.819   3.139   2.938  0.0786 -0.0551  0.2795
 7599W        W23783   6.240   8.120  13.456  0.1565  0.0477 -0.0639
 7600W        W23784  13.170  13.431  14.954 -0.0488  0.0029 -0.0948
 7601W        W23785  10.755   4.343   4.516  0.0490  0.2103 -0.1635
 7602W        W23786  17.339   7.042   2.185  0.1844  0.1574  0.5017
 7603W        W23787  16.649   3.744   5.198  0.2949  0.0991  0.0233
 7604W        W23788  11.393   9.008  15.164  0.1152 -0.0707 -0.3528
 7605W        W23789   8.792   8.444  14.129  0.0320  0.4558 -0.0903
 7606W        W23790  12.543  17.529   4.068  0.1218  0.0035  0.1629
 7607W        W23791   1.784   8.466  14.070  0.2217  0.3311 -0.0623
 7608W        W23792  13.450  18.566   4.932  0.3431 -0.0937 -0.2527
 7609W        W23793  14.409   8.633  14.942 -0.0567  0.2701  0.0477
 7610W        W23794   7.547   8.049   3.938  0.0685  0.1218 -0.0840
 7611W        W23795  16.757  15.052   0.481  0.2227  0.0901  0.1704
 7612W        W23796   1.302  16.589  11.218 -0.0869 -0.0838 -0.2002
 7613W        W23797  16.777   1.317   3.447  0.0049 -0.2521  0.1872
 7614W        W23798   5.163  12.533   3.793 -0.2932 -0.1711  0.1949
 7615W        W23799   8.944  14.309   3.340 -0.1492  0.0867  0.5542
 7616W        W23800   1.439  17.447  14.633 -0.1431 -0.2638 -0.5106
 7617W        W23801  10.245  17.201  13.922  0.2383 -0.0615  0.1553
 7618W        W23802  14.042  18.246  14.022 -0.0433 -0.1688 -0.1156
 7619W        W23803   4.397   5.074  11.416  0.0581 -0.1590 -0.0142
 7620W        W23804  13.782  10.836   3.237  0.2665  0.1614 -0.0323
 7621W        W23805   1.036  15.213   4.181  0.1120  0.1582  0.3072
 7622W        W23806   4.036   1.346  13.519 -0.1215  0.2468 -0.1381
 7623W        W23807  17.551   2.843  15.228  0.1903  0.0911  0.1181
 7624W        W23808   2.447   2.387  11.808  0.0618  0.0734  0.1110
 7625W        W23809   2.379   2.769  12.047 -0.3227 -0.2517 -0.0128
 7626W        W23810   6.058   7.245   2.466  0.1558 -0.1889  0.0735
 7627W        W23811   9.991   3.114  13.268  0.1509  0.0438 -0.0179
 7628W        W23812  17.578  10.982  13.748  0.2335  0.5130  0.1221
 7629W        W23813   3.281  18.396  10.539  0.1244 -0.1973  0.1402
 7630W        W23814  15.329  13.738   1.837 -0.1517 -0.3952  0.1250
 7631W        W23815   1.148  15.254   3.178 -0.1257 -0.1643 -0.0011
 7632W        W23816  17.755  17.955  10.720  0.0577 -0.2192  0.0179
 7633W        W23817   8.075  15.688   0.550  0.2098 -0.0134  0.1466
 7634W        W23818  13.480  14.757  15.352 -0.0056  0.0964 -0.1273
 7635W        W23819  17.916   8.659  14.126 -0.0603  0.4418  0.1118
 7636W        W23820   7.211  12.329   2.052 -0.0655  0.0014 -0.1393
 7637W        W23821  10.908   7.460  14.524 -0.1503 -0.2521  0.1063
 7638W        W23822   2.784  12.057  13.843 -0.0207 -0.2063  0.0780
 7639W        W23823   6.400  13.803   1.553 -0.0774  0.2416 -0.1141
 7640W        W23824  13.715   6.228  12.044  0.4677  0.3163 -0.1866
 7641W        W23825   9.230   3.495   0.001  0.2797  0.2842  0.0466
 7642W        W23826  18.998  16.491  13.931  0.0231  0.0674 -0.0343
 7643W        W23827  17.793  18.850  14.626  0.0272 -0.1746  0.1989
 7644W        W23828  12.765   3.810   0.583  0.0939 -0.0461 -0.0939
 7645W        W23829   8.251   9.298   3.253 -0.1249 -0.0553  0.0970
 7646W        W23830   0.954   0.576   3.872 -0.1811  0.1809 -0.3306
 7647W        W23831  14.008  18.468  10.360 -0.0095  0.0195 -0.0550
 7648W        W23832   4.533   0.281   4.364 -0.1127 -0.1930  0.0520
 7649W        W23833  12.578  11.823  14.320 -0.1144  0.1292 -0.0793
 7650W        W23834   9.057   7.593  14.609  0.2457  0.1005 -0.0192
 7651W        W23835   1.547   3.436   4.747 -0.1255  0.2231  0.0172
 7652W        W23836  16.836   4.971   0.988 -0.0540 -0.0089  0.1205
 7653W        W23837   1.571   8.757   4.813  0.1205 -0.2652  0.2705
 7654W        W23838   0.897  12.045   1.351 -0.3658 -0.3005 -0.0998
 7655W        W23839  14.441   4.134  10.407 -0.0919 -0.1498  0.2120
 7656W        W23840  16.189   0.189   4.376  0.2356  0.2272  0.0199
 7657W        W23841  11.054  13.039   5.027 -0.1344  0.1254  0.3557
 7658W        W23842   7.038  10.072   4.139 -0.1252  0.3229  0.0837
 7659W        W23843   4.416  15.551  10.668 -0.5044  0.3205 -0.0351
 7660W        W23844  17.129  14.616   0.374 -0.1048 -0.0485 -0.1076
 7661W        W23845  15.244   1.379  14.391  0.0514 -0.0928  0.2387
 7662W        W23846   9.206  18.158  14.229 -0.0944 -0.2106  0.0528
 7663W        W23847   6.160   5.866  13.261  0.0816  0.1676 -0.2720
 7664W        W23848  10.126  14.315   4.287  0.2008  0.0309  0.0066
 7665W        W23849  10.368  17.966   4.175  0.2226 -0.1358  0.2035
 7666W        W23850  10.088   1.254   4.256  0.1187 -0.1368  0.0059
 7667W        W23851  13.597   7.784   3.406  0.2102 -0.1910 -0.0026
 7668W        W23852   3.527  14.693  13.769  0.0948 -0.0535  0.0937
 7669W        W23853  18.377   3.814   0.718 -0.1088 -0.2371  0.1288
 7670W        W23854   2.530  15.965   5.468  0.1578 -0.0952 -0.0566
 7671W        W23855   7.348  18.323   4.761 -0.3614  0.0778 -0.0732
 7672W        W23856   9.392   6.828  13.225 -0.1071  0.2473 -0.0729
 7673W        W23857  15.293   0.142   4.473 -0.3149 -0.2002  0.0847
 7674W        W23858  10.522  13.544  12.952  0.0323  0.0389 -0.2634
 7675W        W23859  10.524  14.377  14.427 -0.1726  0.0502 -0.1535
 7676W        W23860   6.957  10.134  11.462 -0.1240  0.2390  0.0133
 7677W        W23861   4.636  16.192   4.124  0.0613  0.0057  0.2707
 7678W        W23862   8.803  11.114  12.319  0.3081 -0.2707  0.0284
 7679W        W23863   1.391  18.007   2.473  0.0729  0.1564  0.1246
 7680W        W23864  11.510  10.857   4.436 -0.0750  0.1705  0.0812
 7681W        W23865  10.939   1.755   3.074  0.2447 -0.1476 -0.0333
 7682W        W23866  13.050  13.046   3.967 -0.0292 -0.0470  0.2543
 7683W        W23867  11.569   8.567   3.507 -0.2774 -0.1547  0.0953
 7684W        W23868  11.469  10.595   3.821 -0.0245  0.0228  0.0171
 7685W        W23869   1.393   8.328  13.248 -0.0158 -0.3141 -0.2270
 7686W        W23870   1.053  11.319  14.077  0.4451 -0.0391  0.1827
 7687W        W23871   0.301  10.388  14.602 -0.1617 -0.3465 -0.3478
 7688W        W23872   2.091   0.830  11.675  0.0220 -0.0365  0.4022
 7689W        W23873  13.439   3.169   0.573 -0.2851 -0.1608  0.3134
 7690W        W23874  13.661  17.355  12.736 -0.0523 -0.1769 -0.3761
 7691W        W23875   2.630  15.556   1.741 -0.0409 -0.2140 -0.1627
 7692W        W23876  10.891  12.262  14.004  0.1749 -0.3536 -0.1309
 7693W        W23877  11.705   9.239   3.349  0.3041 -0.2547 -0.0268
 7694W        W23878   2.479   8.460  11.489 -0.1098 -0.1143 -0.1404
 7695W        W23879  13.742   8.146   4.199 -0.0809 -0.0396 -0.4023
 7696W        W23880  18.913   0.351   5.310  0.1034  0.1069  0.2049
 7697W        W23881  10.947   5.832  11.941  0.2029 -0.1391 -0.1554
 7698W        W23882   9.393  18.160  11.854  0.2674 -0.2412 -0.0817
 7699W        W23883   8.325  15.506  13.595 -0.3936 -0.2315  0.2099
 7700W        W23884  10.374   3.703   1.141  0.0987  0.1848 -0.1851
 7701W        W23885  12.185  13.295  14.961 -0.0927 -0.4444 -0.0056
 7702W        W23886   7.142   0.865   2.487  0.0693 -0.0324  0.1892
 7703W        W23887   6.563   2.088   5.415  0.1849 -0.5344 -0.0977
 7704W        W23888  13.730  17.892   3.283 -0.0142  0.0237 -0.0552
 7705W        W23889  18.010   5.457  13.757  0.1783 -0.3026 -0.4012
 7706W        W23890   9.491  14.381   4.706 -0.5410 -0.1002  0.0198
 7707W        W23891   7.761  13.219   5.071 -0.1485  0.1135 -0.2454
 7708W        W23892  12.532   1.404   5.516  0.0773  0.0013  0.0681
 7709W        W23893  17.446  16.020   2.019 -0.0204  0.0287  0.0228
 7710W        W23894   1.394  13.665  14.013  0.1892  0.1452 -0.0592
 7711W        W23895   6.007   7.173   3.349  0.0183 -0.3543 -0.2230
 7712W        W23896  14.573   4.812   0.145 -0.4316  0.0904  0.2496
 7713W        W23897   0.861  12.339   0.569  0.1143  0.1569  0.0928
 7714W        W23898   1.754   7.605  15.297  0.2896  0.0293 -0.1166
 7715W        W23899   4.896   8.852   4.142  0.1233 -0.3048  0.0896
 7716W        W23900   3.971  13.306   1.623 -0.1177  0.0033  0.1626
 7717W        W23901  14.669  12.519  13.332  0.2207 -0.0663  0.0901
 7718W        W23902  10.097  12.466  13.373  0.1038 -0.0415 -0.2086
 7719W        W23903   4.596  11.791   3.705 -0.0085  0.1200 -0.2004
 7720W        W23904  12.512   0.342   1.465  0.3792  0.1125  0.0247
 7721W        W23905   5.970  10.011  12.438  0.2160 -0.0149  0.1084
 7722W        W23906   6.768   7.049  15.077 -0.1742  0.1497  0.1275
 7723W        W23907  12.237   7.845   3.361  0.4093 -0.0467  0.0584
 7724W        W23908   1.411   0.569  14.408  0.0711 -0.1948  0.0839
 7725W        W23909   2.833  12.850   1.325  0.2551  0.1168  0.1618
 7726W        W23910   6.476   3.446  11.541 -0.3663 -0.2542 -0.0001
 7727W        W23911   2.725  17.137  12.724 -0.1566  0.1084 -0.1271
 7728W        W23912   2.676  13.735  11.268  0.3454  0.0316  0.0142
 7729W        W23913  18.298   2.474   0.758  0.3968  0.1490  0.1743
 7730W        W23914   1.423  13.204  14.875 -0.2750 -0.0964 -0.3603
 7731W        W23915  12.874   6.039  11.337  0.0182  0.1586 -0.1997
 7732W        W23916  12.354   2.369   1.782  0.1062 -0.0086 -0.0638
 7733W        W23917  10.784   2.644  13.869 -0.2167 -0.0655 -0.1805
 7734W        W23918  13.163   1.750  15.014 -0.2113  0.1319  0.1131
 7735W        W23919   4.567   8.068   1.198  0.0822 -0.0978 -0.1430
 7736W        W23920  18.870   3.841  14.789 -0.0223 -0.0415  0.0726
 7737W        W23921   5.022  18.063  10.632  0.4442 -0.2600  0.0984
 7738W        W23922  18.590   8.415   0.870  0.1431  0.3039  0.1258
 7739W        W23923   3.662  14.376   5.029 -0.1302 -0.0103 -0.2060
 7740W        W23924   0.209  10.242   3.961  0.1961 -0.2771 -0.1186
 7741W        W23925  16.027  13.268  11.654 -0.1911  0.0957 -0.0045
 7742W        W23926   8.482   3.045  12.209 -0.1947 -0.1197 -0.0675
 7743W        W23927  17.071  13.874   4.774 -0.0193 -0.1040  0.0493
 7744W        W23928  14.032   3.607  12.993  0.1047  0.0196 -0.1302
 7745W        W23929   0.030   9.051   2.312 -0.2780  0.2754 -0.3197
 7746W        W23930   6.558   9.915   2.006 -0.3373  0.0617  0.0488
 7747W        W23931   5.376  15.219   4.505 -0.0873 -0.1385 -0.1609
 7748W        W23932   2.072   7.726   1.786 -0.2003 -0.0706  0.1935
 7749W        W23933   1.627   9.323  12.024  0.1383 -0.0032 -0.1388
 7750W        W23934   9.169   2.151   4.407 -0.0776 -0.0616 -0.0945
 7751W        W23935   8.995   0.744  15.162 -0.0913  0.0297  0.3941
 7752W        W23936  10.236   2.098   0.968 -0.2150  0.2757  0.0778
 7753W        W23937   2.513   6.285   3.902 -0.0062 -0.0387  0.0148
 7754W        W23938   8.951  14.508   3.846 -0.0695  0.3044  0.2841
 7755W        W23939   2.502   1.778   3.113 -0.2604 -0.1469  0.2246
 7756W        W23940   9.109  13.758  11.990 -0.0673 -0.1317 -0.2933
 7757W        W23941  10.605  17.524  13.253  0.0051 -0.2267  0.0457
 7758W        W23942   8.299   7.243  13.527  0.1603  0.2842  0.1205
 7759W        W23943   0.591  17.959   4.502  0.2695  0.0980 -0.0586
 7760W        W23944  10.662  15.272   5.073 -0.1751  0.2912  0.2005
 7761W        W23945   8.141   8.756   3.389  0.0047  0.2197  0.1429
 7762W        W23946  10.487   5.305   0.307 -0.0656 -0.2234  0.1371
 7763W        W23947  16.635  13.019  13.924  0.3311  0.1464 -0.0664
 7764W        W23948   6.889  16.665  11.674  0.2616  0.0907  0.2242
 7765W        W23949  13.591   6.904  14.601 -0.1253  0.0219 -0.1666
 7766W        W23950   8.139  11.843   4.639 -0.0805 -0.2318  0.0180
 7767W        W23951   6.935   0.841  11.224 -0.2100 -0.0042  0.0272
 7768W        W23952   4.051  11.709   0.868 -0.2008 -0.0590  0.0882
 7769W        W23953   1.679   0.125   4.027  0.0544 -0.0003 -0.1093
 7770W        W23954   3.593   8.147  10.441 -0.2884  0.1301  0.1245
 7771W        W23955   3.056   1.211   1.251  0.0592 -0.1942  0.2555
 7772W        W23956   3.093   1.492  11.816 -0.1018 -0.3843 -0.2468
 7773W        W23957  10.858  12.496   4.432 -0.2183 -0.1590  0.0263
 7774W        W23958   8.559  14.390   4.239 -0.1693  0.0051 -0.0356
 7775W        W23959  18.052  14.816  10.633  0.1592  0.0523 -0.1373
 7776W        W23960  12.738   2.117  15.364  0.0099 -0.1304 -0.2439
 7777W        W23961   1.022  11.168   3.999  0.0398  0.0769  0.2226
 7778W        W23962   8.348   1.369   3.580  0.2860 -0.1914 -0.0103
 7779W        W23963  16.341  18.489  13.083 -0.0955  0.0546 -0.0103
 7780W        W23964   2.588   9.963   2.493  0.1867  0.0435  0.0300
 7781W        W23965  16.762   8.134   2.098  0.0806 -0.1261  0.1550
 7782W        W23966  13.642   0.683  11.224 -0.2434 -0.3445 -0.0133
 7783W        W23967   4.498   7.844   3.995  0.1253  0.0855 -0.1352
 7784W        W23968  16.571   3.711   2.271  0.1970 -0.4485 -0.1105
 7785W        W23969  16.744   0.944  12.207  0.1424 -0.1579 -0.0924
 7786W        W23970  13.459   0.033   3.608  0.3259 -0.1428  0.1323
 7787W        W23971  12.991   3.091  12.624 -0.2016  0.1993  0.0480
 7788W        W23972   1.099   4.501   2.283 -0.0405  0.1431 -0.4750
 7789W        W23973  10.713   9.108   3.360  0.1802 -0.0241 -0.0735
 7790W        W23974  10.344   2.498  11.045  0.1524 -0.2622 -0.3108
 7791W        W23975   2.243  13.901  13.809 -0.2648 -0.1902  0.2402
 7792W        W23976  11.600   1.547   1.057 -0.1888  0.1827  0.2637
 7793W        W23977  16.884   6.726  15.327 -0.1482  0.0920  0.0137
 7794W        W23978  12.206   0.579  10.170  0.0748 -0.0722 -0.0247
 7795W        W23979  10.542  18.020  13.058  0.1019 -0.0797 -0.3339
 7796W        W23980  17.110  10.863   0.331 -0.0290  0.2284 -0.2073
 7797W        W23981   4.996  11.424   4.484  0.3466 -0.1286  0.1857
 7798W        W23982   1.596   2.018   5.606 -0.1234 -0.1485  0.0438
 7799W        W23983  17.133  16.631   4.075  0.3367 -0.0903 -0.0259
 7800W        W23984   7.706   2.597   3.215 -0.1760 -0.0529  0.1374
 7801W        W23985   1.780   2.038   2.509  0.0903 -0.1811  0.0518
 7802W        W23986   2.826   5.195   4.120  0.0130 -0.1249  0.1640
 7803W        W23987   5.967  10.958   1.730  0.1440  0.2383 -0.1483
 7804W        W23988   8.944   1.704  10.567  0.0621  0.0609  0.0736
 7805W        W23989   4.654   0.594   5.234 -0.4178 -0.0456 -0.0755
 7806W        W23990   5.507  14.601   0.525  0.0284 -0.0556  0.0278
 7807W        W23991   2.097  14.188   3.342 -0.1537  0.0662 -0.0044
 7808W        W23992  13.163   6.924   1.465 -0.1745 -0.3298 -0.0637
 7809W        W23993   7.649   5.355  11.080  0.0080  0.1137 -0.2048
 7810W        W23994  13.550   3.563   0.155  0.3294 -0.2782 -0.0966
 7811W        W23995   3.897   4.324   5.093 -0.2491 -0.2370 -0.1507
 7812W        W23996   3.776   8.675  12.009 -0.2377  0.1343  0.4859
 7813W        W23997  17.440   5.384   5.664  0.0142 -0.0225  0.3363
 7814W        W23998  14.921   2.527  14.346  0.1544  0.1410  0.3646
 7815W        W23999   3.000  17.958  10.641 -0.0923  0.1747 -0.2879
 7816W        W24000  12.257   5.658  13.337 -0.0856  0.2069 -0.0437
 7817W        W24001  15.243   0.407  11.690  0.0555 -0.0198 -0.1220
 7818W        W24002  13.056   7.708  14.944 -0.0557  0.3096  0.0707
 7819W        W24003  18.777  15.228  11.381 -0.1799 -0.1059  0.1535
 7820W        W24004   1.821   7.872   0.604 -0.1115 -0.0217 -0.1745
 7821W        W24005   2.876   6.998   0.623  0.0500 -0.0526 -0.0453
 7822W        W24006   1.784  15.387  11.723  0.0054  0.0688 -0.0493
 7823W        W24007   1.163  16.774   0.114  0.2884  0.0840 -0.0956
 7824W        W24008   0.775   7.516   2.651 -0.2341 -0.0406 -0.0799
 7825W        W24009   8.929   3.333  12.225 -0.0500 -0.0416  0.1397
 7826W        W24010   4.873  14.139   1.287 -0.1948 -0.2877  0.0221
 7827W        W24011   0.070   8.708  11.794 -0.0020  0.0058  0.3079
 7828W        W24012   8.957  18.273  10.686  0.0144  0.0742 -0.2237
 7829W        W24013  11.656  14.319  11.386 -0.0357  0.0222 -0.3454
 7830W        W24014  12.380   9.324  11.411  0.2791 -0.1900  0.1783
 7831W        W24015   2.721  15.200   4.737 -0.0535  0.3039  0.0008
 7832W        W24016  17.405  11.195   3.477  0.0903 -0.1909  0.0591
 7833W        W24017   9.228  13.838   2.562 -0.0005  0.3631  0.0283
 7834W        W24018   2.369  12.854  13.346 -0.3938 -0.0058 -0.0380
 7835W        W24019   0.235   5.910  11.449  0.0355  0.0190 -0.3361
 7836W        W24020  11.423  12.357   4.344  0.0434 -0.4170 -0.0284
 7837W        W24021   2.491   5.664  13.730 -0.0892  0.2505  0.1279
 7838W        W24022  16.693   5.289   4.630 -0.1960 -0.0009 -0.0499
 7839W        W24023  12.182  17.203   3.908 -0.1142 -0.0680  0.1549
 7840W        W24024   6.818   4.881  11.163  0.1863 -0.2233  0.0858
 7841W        W24025  15.590  15.916  11.335 -0.0396  0.0276  0.2045
 7842W        W24026   7.575   8.537   4.177 -0.0054  0.2220 -0.1953
 7843W        W24027   3.657   6.967   4.721  0.0469 -0.0200  0.1211
 7844W        W24028   6.811  14.381   0.597  0.1655  0.0877  0.0148
 7845W        W24029  15.374  14.747  15.295  0.3176  0.1205 -0.2151
 7846W        W24030   7.955  11.829  14.171  0.0244 -0.0986  0.2928
 7847W        W24031  18.248  12.281   3.593  0.2092  0.3439  0.1321
 7848W        W24032   1.916  14.499  13.835 -0.3255  0.1342  0.1965
 7849W        W24033  12.497  15.098   1.045  0.2860 -0.2433 -0.1614
 7850W        W24034   5.033  12.587   3.269  0.1279 -0.2249 -0.2622
 7851W        W24035  12.410   6.098   0.252  0.3372 -0.0242  0.0658
 7852W        W24036   5.527  16.989   3.914 -0.0505 -0.3442 -0.0689
 7853W        W24037   7.410   4.422   3.758 -0.0278 -0.0832  0.1221
 7854W        W24038   3.068  16.528   2.690  0.0682  0.1471  0.0888
 7855W        W24039   4.055   7.949  14.760 -0.1745 -0.0455  0.1602
 7856W        W24040  14.680   3.811   1.594  0.0081 -0.1416 -0.0551
 7857W        W24041   0.912   9.772   4.554 -0.0435  0.0287  0.1615
 7858W        W24042  17.785  10.735   4.410  0.0572 -0.2199 -0.0769
 7859W        W24043  14.462   0.340  12.280 -0.2460 -0.1229  0.3139
 7860W        W24044  10.240  16.364  11.107 -0.1950  0.4211  0.0361
 7861W        W24045   0.009  11.400  12.265 -0.3198  0.1950 -0.4847
 7862W        W24046  12.132  16.581   2.031 -0.0702 -0.0018  0.2693
 7863W        W24047  13.926   8.412  14.982 -0.3445 -0.3496  0.0288
 7864W        W24048  14.357  10.067   2.906 -0.0367  0.1615  0.1327
 7865W        W24049  17.902   5.744  10.970 -0.1255 -0.1943  0.4222
 7866W        W24050   7.803  11.900   0.363  0.0372 -0.0684  0.2449
 7867W        W24051   2.875   2.000   4.062 -0.1947  0.0058 -0.2633
 7868W        W24052   2.454  13.859  14.328 -0.1244  0.0457  0.0487
 7869W        W24053   9.715  10.574   2.811 -0.1330  0.0084  0.2122
 7870W        W24054   3.376   5.403   5.227 -0.0220 -0.1004 -0.1338
 7871W        W24055   0.603   8.945  13.478 -0.1160 -0.4258  0.0560
 7872W        W24056  16.375  15.627   2.181 -0.2982 -0.0688  0.1173
 7873W        W24057  16.936  15.468   0.656 -0.0832  0.0343 -0.0814
 7874W        W24058   7.516   6.349   5.609 -0.3363  0.1593 -0.0453
 7875W        W24059   1.240   9.143   5.069 -0.2551  0.0776 -0.1531
 7876W        W24060  14.713  12.167  12.049 -0.0114  0.0961  0.2597
 7877W        W24061  16.486   2.025   4.119  0.2794 -0.0450  0.1896
 7878W        W24062  14.149   1.505   4.103  0.1437  0.0119  0.3446
 7879W        W24063  16.946   4.641  14.316 -0.2331  0.0220 -0.0755
 7880W        W24064  16.471   0.982  15.083  0.0748 -0.0878 -0.0849
 7881W        W24065  15.440   1.994   1.591  0.1114  0.1046 -0.2216
 7882W        W24066   3.244   5.786  14.999  0.1261  0.0486 -0.2258
 7883W        W24067   9.239  12.692   9.726 -0.2132 -0.2457  0.0780
 7884W        W24068  15.358   0.567   3.571 -0.1603  0.0271  0.0338
 7885W        W24069   7.867  16.967  12.756  0.3639  0.0399 -0.2872
 7886W        W24070  12.942  13.109   0.958  0.5163 -0.1378 -0.0793
 7887W        W24071   2.541  16.584   0.462  0.0322 -0.0171  0.3714
 7888W        W24072   6.535  11.390  13.389 -0.0961 -0.0229  0.0548
 7889W        W24073   3.365  11.837  13.653  0.4125  0.2405 -0.1372
 7890W        W24074  18.179  10.168  10.590 -0.1360 -0.2167  0.1617
 7891W        W24075  16.420  10.348   3.900 -0.1528 -0.1388  0.0017
 7892W        W24076   9.297   8.445  10.255 -0.0010  0.3709 -0.1692
 7893W        W24077  16.206   4.052   0.399 -0.2657  0.2690 -0.0268
 7894W        W24078   6.967   8.451   5.048 -0.0258 -0.0481 -0.2530
 7895W        W24079   4.414   1.818  14.863 -0.1608  0.2690  0.1158
 7896W        W24080  16.581  17.536  11.358 -0.3570  0.1011 -0.0198
 7897W        W24081  18.778  14.288  14.457 -0.1969  0.0149  0.0595
 7898W        W24082   7.411   6.843   5.374  0.5232  0.2257 -0.0741
 7899W        W24083   7.555   5.283  12.586 -0.0329  0.0037  0.2505
 7900W        W24084   8.405   3.452   2.268 -0.2834  0.2870  0.1505
 7901W        W24085   5.074  18.785   1.915  0.1023 -0.3759 -0.0580
 7902W        W24086   6.774   0.581  12.624  0.0250 -0.1031 -0.0190
 7903W        W24087  10.068  18.273  13.193 -0.0055 -0.1720 -0.1495
 7904W        W24088   7.003  10.781  10.118  0.0018 -0.0201 -0.0257
 7905W        W24089   8.954  17.622  12.579  0.1792  0.1618  0.1392
 7906W        W24090   2.089   1.791   0.293 -0.4528 -0.2480  0.1494
 7907W        W24091   2.780   8.028  11.668  0.2953  0.0900 -0.1732
 7908W        W24092  14.402   1.604   5.646  0.2840  0.0186 -0.1271
 7909W        W24093   8.541  16.939   3.950 -0.2142 -0.1990 -0.1094
 7910W        W24094   8.003   5.627  14.303 -0.0154  0.4488  0.0131
 7911W        W24095  15.037  15.698  12.160  0.0716 -0.0268 -0.0933
 7912W        W24096  10.195  15.992  15.194 -0.2603 -0.2450  0.2087
 7913W        W24097  17.876  17.168   2.510 -0.0925 -0.2239  0.0532
 7914W        W24098   6.027   4.304   3.848  0.0619 -0.0141  0.2122
 7915W        W24099  18.142  16.200  11.807 -0.1893  0.2076  0.0493
 7916W        W24100  16.056  14.641   3.255  0.0029  0.2972 -0.2727
 7917W        W24101   7.141  18.924  11.608 -0.1039 -0.0651 -0.0672
 7918W        W24102  15.849  11.889   3.550 -0.0321 -0.2445 -0.1598
 7919W        W24103   3.249   1.419  10.386 -0.0674 -0.0324  0.0435
 7920W        W24104   5.223   0.991  11.049  0.1317  0.2556  0.1954
 7921W        W24105  15.204   0.039  10.235 -0.0074  0.1464 -0.0612
 7922W        W24106   3.707   3.542   0.178  0.2249  0.2508  0.2411
 7923W        W24107  13.688   6.719  13.765  0.0735 -0.1978  0.1210
 7924W        W24108  17.702   0.857   3.888 -0.2948 -0.1490 -0.0046
 7925W        W24109  13.674   4.896  14.245 -0.0341 -0.1754 -0.0669
 7926W        W24110   8.058   6.539  12.810 -0.1002  0.4127 -0.0887
 7927W        W24111   4.765  13.039  14.598  0.1213  0.0670  0.1031
 7928W        W24112   3.886   1.342  12.471 -0.2455  0.1440  0.1393
 7929W        W24113   8.228  11.748   1.837 -0.4060 -0.0132 -0.0921
 7930W        W24114  16.757  13.541   1.585  0.1180  0.2395 -0.0463
 7931W        W24115   1.220   4.897  10.142  0.0619 -0.0840  0.2635
 7932W        W24116   9.977  16.032   1.051  0.2504  0.2071  0.0075
 7933W        W24117   2.094  12.823  14.733 -0.1212 -0.1800  0.0871
 7934W        W24118  13.617   9.430  12.449 -0.0297  0.0679  0.0249
 7935W        W24119  11.728   9.136   3.960  0.1799  0.7143 -0.1278
 7936W        W24120  16.039  11.215  14.379 -0.0566 -0.3618  0.0302
 7937W        W24121   2.116   3.317   3.548  0.3919  0.1257  0.2733
 7938W        W24122  11.257  10.440   2.483  0.0070 -0.0011 -0.3236
 7939W        W24123  14.509  13.855   1.103 -0.1209 -0.1014 -0.0887
 7940W        W24124  13.612   4.010  10.178 -0.0796 -0.0313 -0.2672
 7941W        W24125  10.077   6.851   1.446 -0.0916  0.0781  0.0380
 7942W        W24126  13.053   9.263  15.344  0.0612 -0.2644  0.0349
 7943W        W24127   9.347  15.348   1.983 -0.1379 -0.2641 -0.2145
 7944W        W24128  17.649   4.263   0.349  0.1285 -0.1706  0.0569
 7945W        W24129  18.862  12.904   4.863 -0.2416 -0.1150  0.1146
 7946W        W24130   3.193  12.120   4.403  0.0213  0.1023 -0.0516
 7947W        W24131  10.021   9.147  14.581  0.1201  0.0243 -0.0954
 7948W        W24132  16.247   5.940  13.822  0.1518 -0.1912  0.0402
 7949W        W24133  15.795   8.860  13.834 -0.0012 -0.2076 -0.4333
 7950W        W24134  16.161   8.099  10.695 -0.3553  0.0379 -0.0715
 7951W        W24135  17.391   4.725  12.713  0.0380  0.0362  0.0761
 7952W        W24136   0.804   7.878   1.431 -0.1837  0.3229 -0.1138
 7953W        W24137  15.332  15.009   3.748 -0.1343  0.1223 -0.0862
 7954W        W24138   8.585   0.665   3.368  0.1189 -0.1245 -0.0862
 7955W        W24139   6.944   6.601   0.110  0.1928  0.0013  0.0026
 7956W        W24140   2.526  13.812  14.930  0.0362 -0.0089 -0.0538
 7957W        W24141   7.766  17.418  13.060  0.0896  0.0159  0.1744
 7958W        W24142   2.104   2.795  13.193 -0.1524  0.0889  0.3948
 7959W        W24143  17.743  18.746   0.703 -0.3827  0.3222  0.3294
 7960W        W24144  10.522  12.275   4.712  0.0430  0.2007  0.1450
 7961W        W24145   1.166   1.712   1.649  0.0445  0.1560  0.0879
 7962W        W24146   5.225   1.096   9.684 -0.0762  0.2634 -0.0479
 7963W        W24147   0.175  18.738  14.133  0.2153  0.1630 -0.1277
 7964W        W24148  13.029   0.745  13.720 -0.0447 -0.1779  0.1173
 7965W        W24149  12.773   2.562  10.491  0.0934 -0.2158  0.3243
 7966W        W24150  18.075  10.601   5.914  0.1543 -0.1523  0.1930
 7967W        W24151   0.688   5.383  14.367  0.2866  0.0057  0.5286
 7968W        W24152  14.415  15.644   4.406 -0.2566 -0.0947  0.0817
 7969W        W24153   9.849   7.953   3.011 -0.0929 -0.2184 -0.2521
 7970W        W24154   1.200  11.802   4.401  0.0561 -0.2861  0.1149
 7971W        W24155  17.001  10.922   0.988  0.0962  0.2295 -0.0845
 7972W        W24156   3.564   2.911   0.836 -0.2107  0.0760 -0.1665
 7973W        W24157  15.761  12.918   2.900  0.0971  0.1293  0.1865
 7974W        W24158  10.098   0.078  12.479 -0.1011  0.2942 -0.0775
 7975W        W24159  11.196  14.406   2.647 -0.0763  0.2774 -0.0227
 7976W        W24160   2.073   4.962   3.605 -0.0904  0.2587  0.1717
 7977W        W24161  13.660   1.249  10.215  0.4229 -0.0453  0.2569
 7978W        W24162   0.502   9.238  14.406  0.0645  0.2814 -0.4295
 7979W        W24163  18.585  16.921  14.770  0.3776 -0.2509 -0.0843
 7980W        W24164  12.078   3.421  12.741  0.0046  0.1326 -0.1672
 7981W        W24165  13.448   7.124  12.452  0.2477 -0.2311 -0.1840
 7982W        W24166  18.888   0.395   2.969 -0.2637  0.0693  0.1013
 7983W        W24167   8.494  16.871  13.509 -0.1298 -0.1013  0.1459
 7984W        W24168   6.131   8.757  14.144 -0.2196 -0.3021 -0.0331
 7985W        W24169  18.826   0.597  13.444 -0.1101 -0.0504 -0.0416
 7986W        W24170  18.251  10.513   1.007  0.0305 -0.0639  0.1041
 7987W        W24171  11.806   5.389   2.227  0.2366  0.1488 -0.0057
 7988W        W24172  17.642  13.078   1.735  0.1591 -0.1533  0.1832
 7989W        W24173   9.001   0.858   1.338 -0.0691  0.0327 -0.1313
 7990W        W24174  18.842  14.276   2.338  0.2261 -0.2274 -0.2027
 7991W        W24175  16.738  16.096  13.969 -0.2891 -0.1966  0.4545
 7992W        W24176  17.807  10.547  10.994 -0.2007 -0.2869 -0.0299
 7993W        W24177  15.891   4.157  10.431  0.4991  0.2493 -0.1481
 7994W        W24178   6.404  12.935   2.156 -0.0218  0.2294 -0.1548
 7995W        W24179   2.073   3.808  10.050  0.2487  0.1133  0.2649
 7996W        W24180   9.415  12.508   4.154 -0.0489  0.1159  0.1561
 7997W        W24181   9.471  11.014  14.193 -0.0342 -0.1080  0.1407
 7998W        W24182  17.998   9.218   0.627 -0.0982  0.1322 -0.1889
 7999W        W24183  18.314  18.794  14.470 -0.0915 -0.2613  0.0468
 8000W        W24184  15.956   4.245  12.791  0.1292  0.1844 -0.1723
 8001W        W24185  18.740  13.825   3.774  0.0641 -0.1574 -0.1697
 8002W        W24186  17.624  16.353  11.620 -0.0661  0.2111  0.3564
 8003W        W24187  11.008   2.735   4.358 -0.0606 -0.0371 -0.0586
 8004W        W24188   1.816  14.485   3.054 -0.2292  0.0971 -0.0846
 8005W        W24189   0.285  15.277   4.617  0.1489 -0.0679  0.3023
 8006W        W24190   2.239   7.685   5.574 -0.2650  0.0485  0.2410
 8007W        W24191   5.409   0.681   3.428 -0.1268  0.1392  0.2050
 8008W        W24192   3.297  12.240  13.912 -0.0583  0.0799 -0.2323
 8009W        W24193  18.010  10.786  13.516  0.2281  0.1666  0.1735
 8010W        W24194   9.780  18.990   4.020  0.0224 -0.1987 -0.1569
 8011W        W24195  16.324   8.621  14.830 -0.1607  0.0169  0.0091
 8012W        W24196   0.796  11.849   4.691  0.1334 -0.3223 -0.2454
 8013W        W24197  10.531  10.328   0.056 -0.2021 -0.1582 -0.1649
 8014W        W24198  16.973   8.450  15.094  0.0844  0.2765  0.0327
 8015W        W24199  16.444  12.632   3.350 -0.0775  0.1728  0.0508
 8016W        W24200   0.500   7.564   4.173  0.1641  0.2883 -0.1595
 8017W        W24201   1.375  18.352   5.345 -0.2051  0.0563  0.0942
 8018W        W24202   9.275  11.322   1.101  0.2586 -0.0428 -0.1857
 8019W        W24203   3.123  10.527   1.205 -0.1571  0.2067 -0.1881
 8020W        W24204  16.799  15.913   2.908 -0.1510 -0.1555 -0.2679
 8021W        W24205  10.916  11.700  14.636  0.6066  0.1759  0.0173
 8022W        W24206   5.768   4.134   5.662  0.2264  0.1692  0.1049
 8023W        W24207   7.649  13.296   3.333 -0.1456 -0.0417  0.1975
 8024W        W24208   0.139   2.030  13.559  0.2913 -0.1217 -0.0746
 8025W        W24209   2.062  15.463   5.525  0.0524 -0.2026 -0.1717
 8026W        W24210   1.438  11.796  11.992 -0.1046 -0.0569 -0.1248
 8027W        W24211  10.213   8.183   1.815  0.3249  0.1190  0.3774
 8028W        W24212   6.326   4.893  11.326 -0.1841  0.2127 -0.0104
 8029W        W24213   7.494  16.637  13.026 -0.1118 -0.1183  0.0982
 8030W        W24214  10.348  12.864   1.082  0.0113 -0.2017 -0.1543
 8031W        W24215  16.952   8.886   0.570  0.1011 -0.1880 -0.3708
 8032W        W24216   6.262  12.270   0.423 -0.3410  0.1953 -0.2669
 8033W        W24217   9.309  18.868   3.733 -0.0736 -0.1035 -0.0572
 8034W        W24218  17.213   2.988  14.309  0.1343 -0.0693 -0.0798
 8035W        W24219  14.489   8.642   0.138  0.0270 -0.0003  0.1252
 8036W        W24220   8.477   4.366  15.348  0.5341 -0.0447 -0.3822
 8037W        W24221  13.926  16.512   0.871 -0.0959  0.0468  0.3108
 8038W        W24222  17.128   4.562   5.326  0.0825 -0.0235  0.3430
 8039W        W24223   8.007  14.783  10.528  0.0160  0.4319  0.1994
 8040W        W24224  13.101  18.276   1.455 -0.3789  0.2814  0.0430
 8041W        W24225  13.737   3.349   4.701  0.0473 -0.0587  0.1319
 8042W        W24226  16.538   8.526  15.220  0.3415  0.3878  0.1479
 8043W        W24227  11.233   9.873   0.846 -0.2054  0.0345 -0.1436
 8044W        W24228  15.512   2.617   4.512 -0.0459 -0.1715 -0.1883
 8045W        W24229   3.040   4.893  10.562 -0.0388  0.1086  0.1583
 8046W        W24230  12.179   7.977  14.362  0.0370 -0.1248  0.0239
 8047W        W24231  18.942   2.025  11.203  0.0730 -0.3115 -0.3356
 8048W        W24232  18.242   6.973  13.812  0.2225 -0.0637  0.4130
 8049W        W24233  17.238  13.957   0.691  0.0222  0.3039 -0.1787
 8050W        W24234  14.581  10.151   1.523 -0.3450 -0.0091  0.0698
 8051W        W24235   8.954   7.861   4.365  0.0512  0.3620 -0.3192
 8052W        W24236   4.960  15.742   3.332 -0.2139  0.0043  0.0659
 8053W        W24237   8.937   9.240  12.626  0.1970  0.1090 -0.0015
 8054W        W24238  17.416  13.424   0.262  0.2748 -0.0482 -0.0710
 8055W        W24239  17.849   9.316   4.256  0.1650 -0.0182 -0.2909
 8056W        W24240  15.022   7.220  10.558 -0.3040 -0.3883 -0.0822
 8057W        W24241  10.089   2.388   1.317  0.2088 -0.0594 -0.0172
 8058W        W24242  11.719  14.268   0.481 -0.0403 -0.2307 -0.3992
 8059W        W24243  12.314  17.564  12.165  0.1089  0.3561  0.2323
 8060W        W24244   0.409  18.558  13.087  0.0695 -0.2119 -0.0108
 8061W        W24245   5.031  16.874  11.672 -0.1883  0.2765 -0.1659
 8062W        W24246   3.156  13.920  12.718  0.3987  0.1286 -0.1388
 8063W        W24247   2.442  17.816   3.861  0.0270 -0.0558 -0.2722
 8064W        W24248  14.760  15.195  12.023 -0.0048 -0.0034 -0.1423
 8065W        W24249  10.930   7.366  13.609  0.2085 -0.1556 -0.1301
 8066W        W24250  16.652   5.964  10.817  0.2565 -0.0228  0.2761
 8067W        W24251  16.560  17.395  12.041 -0.1029 -0.2485 -0.1961
 8068W        W24252   8.941  18.101   4.388 -0.1538  0.0529 -0.1984
 8069W        W24253   2.398   9.848   5.682  0.1101 -0.0473 -0.2072
 8070W        W24254  10.851  16.885   1.074  0.1411 -0.3009 -0.2710
 8071W        W24255   0.400  14.398  15.376  0.0438  0.1514 -0.0282
 8072W        W24256  18.175  16.668   3.214 -0.1569 -0.1079 -0.0389
 8073W        W24257  18.514  12.101   4.383  0.1840  0.0511  0.2387
 8074W        W24258   8.970  15.785   2.794 -0.6134 -0.0609  0.2173
 8075W        W24259  16.001   1.918   5.090 -0.0873 -0.0649  0.4032
 8076W        W24260  15.146   8.117  14.233 -0.1072 -0.0156 -0.2015
 8077W        W24261   0.861  18.443   3.273  0.1497 -0.0466  0.4170
 8078W        W24262   8.039   0.114  11.269  0.2984 -0.2993  0.1045
 8079W        W24263   4.822  15.934  12.131 -0.1215  0.0010  0.1330
 8080W        W24264   4.909   6.573   1.566 -0.2144  0.0332  0.1010
 8081W        W24265  10.182   2.600   0.809  0.2224 -0.3967 -0.2454
 8082W        W24266   2.978   3.702  10.118  0.0276  0.1069 -0.2148
 8083W        W24267   2.439  15.191  10.554  0.1132 -0.3574 -0.1238
 8084W        W24268   0.552  15.625  14.516 -0.1567  0.1511  0.3443
 8085W        W24269  12.164   6.422   2.752  0.3029 -0.0809 -0.1458
 8086W        W24270  11.074   6.337   9.591  0.0724  0.1268 -0.0266
 8087W        W24271   3.049  14.896  13.005  0.0791 -0.1171  0.0650
 8088W        W24272  15.300  16.110   0.785  0.0866  0.1105 -0.2479
 8089W        W24273   1.294   8.907  13.263 -0.0736 -0.1204  0.2900
 8090W        W24274  14.181   1.887   1.772  0.3202 -0.3661  0.0451
 8091W        W24275  12.452  15.381   1.972 -0.1613 -0.0657 -0.0138
 8092W        W24276   3.637   0.853   4.574  0.1792  0.2420  0.0832
 8093W        W24277   7.460   1.040   2.142  0.2248  0.1929 -0.3758
 8094W        W24278   1.068   7.284   5.233  0.0045  0.3700  0.1800
 8095W        W24279   6.343  12.061  10.324 -0.1081  0.1296  0.2536
 8096W        W24280  17.196   1.559   0.323  0.2766 -0.0469 -0.2274
 8097W        W24281   6.966   7.631  14.513 -0.2074  0.1502  0.1863
 8098W        W24282   9.705   0.694  13.368 -0.1772  0.3320 -0.1573
 8099W        W24283  18.295  10.789  11.486  0.2088  0.4184 -0.3804
 8100W        W24284  16.362   3.801  11.690 -0.2397 -0.4283 -0.2308
 8101W        W24285  14.500   3.565  13.683  0.2392 -0.0070 -0.3570
 8102W        W24286  10.690   6.787  13.773  0.0467  0.1479 -0.4781
 8103W        W24287   3.753   8.066  15.161  0.1075 -0.1024 -0.3505
 8104W        W24288   3.578   4.253   0.183  0.1476  0.0476 -0.0576
 8105W        W24289   7.828   9.642   3.224 -0.2286  0.0850 -0.0306
 8106W        W24290   3.006  17.019   2.610  0.1981  0.0825  0.0142
 8107W        W24291  15.772   5.873   4.692 -0.0005 -0.0566 -0.3543
 8108W        W24292  12.444   9.558   4.251 -0.1305 -0.3201  0.1437
 8109W        W24293  15.350  17.416   4.293  0.1933  0.4137 -0.1396
 8110W        W24294  16.468   4.891   4.892  0.0191  0.0549 -0.5788
 8111W        W24295   4.759  15.756   0.529 -0.0473 -0.0104  0.0095
 8112W        W24296  10.842  16.457  12.071 -0.0126  0.3945 -0.1410
 8113W        W24297  10.534  15.955  14.713 -0.1324 -0.0897 -0.2449
 8114W        W24298   6.708   8.363  13.284 -0.0143  0.2321  0.0217
 8115W        W24299  15.522   0.299  12.426  0.2210 -0.2113 -0.0385
 8116W        W24300  16.219   9.711  14.064  0.2487  0.2037  0.0966
 8117W        W24301   7.275  11.309  14.046  0.1178 -0.4717  0.5752
 8118W        W24302   6.195   1.671   3.320  0.1084  0.1097  0.0735
 8119W        W24303  15.838   8.547  11.299  0.1331 -0.1902 -0.0417
 8120W        W24304   8.272   2.780  14.989  0.2515 -0.3760 -0.1234
 8121W        W24305  16.933  13.415  13.069 -0.3274 -0.0701  0.0402
 8122W        W24306   3.462  13.402  12.960  0.3190 -0.1825  0.5777
 8123W        W24307   5.536   2.681   4.925 -0.2810 -0.0786 -0.0748
 8124W        W24308  11.162   2.832  14.223  0.3991  0.0912  0.2474
 8125W        W24309   5.103   4.729  14.434 -0.0389 -0.1167  0.0054
 8126W        W24310  13.850   9.165   3.678 -0.0883  0.1100 -0.0091
 8127W        W24311  12.025   3.947   1.680 -0.2540  0.1974  0.1140
 8128W        W24312   4.486   8.436  13.325  0.3153 -0.0736 -0.0893
 8129W        W24313   6.366   2.585  13.777 -0.0717 -0.0162  0.0164
 8130W        W24314  12.622   4.401   1.573 -0.1812 -0.4728 -0.1182
 8131W        W24315   8.813   5.497   2.514  0.3116 -0.0826 -0.1216
 8132W        W24316  12.609  18.361  15.328 -0.1737  0.0362  0.1815
 8133W        W24317  11.264   3.012  11.673 -0.0365  0.2316  0.1519
 8134W        W24318  13.900   2.024  11.953  0.0866 -0.1494  0.3256
 8135W        W24319   0.847  11.044   3.090  0.0670  0.0096  0.1183
 8136W        W24320   4.371   5.214   1.711 -0.1864  0.2364  0.2013
 8137W        W24321  18.495  11.896   0.673 -0.0052  0.0601  0.0850
 8138W        W24322   5.116   6.562  12.781  0.0621 -0.1573 -0.0659
 8139W        W24323   9.822   5.345   0.581 -0.1157  0.1925  0.1073
 8140W        W24324  12.159  18.585   1.193 -0.2389  0.1966 -0.2582
 8141W        W24325  14.718   5.390  12.407  0.0516 -0.0623  0.0019
 8142W        W24326   1.296  12.676   4.817  0.1004  0.0173 -0.3002
 8143W        W24327  16.760  12.475  15.277 -0.3051  0.4307 -0.3178
 8144W        W24328  18.923   1.136  14.858  0.2275  0.1299 -0.0937
 8145W        W24329   7.602   5.630   1.164 -0.0052 -0.0790  0.2123
 8146W        W24330   5.668   9.471   3.695  0.4482 -0.2451  0.1732
 8147W        W24331  14.303  16.055   4.882  0.1979 -0.2900 -0.1263
 8148W        W24332  12.781   2.736  12.845  0.1387  0.2391  0.0960
 8149W        W24333  15.987  15.253   2.175  0.3505 -0.1473 -0.0373
 8150W        W24334   3.223  16.352   4.359  0.1068 -0.2199  0.2184
 8151W        W24335  12.578   5.751   5.711  0.2209 -0.1886  0.2014
 8152W        W24336  18.753  17.019   1.317  0.0700 -0.1754 -0.1482
 8153W        W24337  10.979  17.137   2.410 -0.1928  0.5551 -0.0582
 8154W        W24338  13.281   3.520   1.298  0.1400 -0.4089 -0.1321
 8155W        W24339  17.942  15.944  14.407  0.3071 -0.1118  0.0599
 8156W        W24340   2.782   8.632   4.515  0.0462 -0.0662  0.2673
 8157W        W24341   6.371   4.532  13.088  0.3289  0.1955 -0.0265
 8158W        W24342   5.967   6.979   2.894 -0.0598 -0.3738  0.3732
 8159W        W24343   5.166   3.491   0.586 -0.3665  0.1465  0.1684
 8160W        W24344   0.553   1.428  12.897  0.0095 -0.2020 -0.1637
 8161W        W24345   7.441   9.006  14.297 -0.0331  0.0267  0.0528
 8162W        W24346   3.635   7.863   2.303  0.4671 -0.2142 -0.1561
 8163W        W24347   9.693  10.978   3.099 -0.0387  0.3697 -0.1329
 8164W        W24348  16.841  14.882  11.703 -0.2341 -0.1010 -0.0740
 8165W        W24349  10.282   6.722  12.931 -0.0768  0.4397 -0.1116
 8166W        W24350   2.125   1.929  10.934 -0.1535 -0.3065  0.5444
 8167W        W24351  13.266   0.370   1.422  0.2385 -0.3327  0.2411
 8168W        W24352  11.225  12.735   4.615  0.4646 -0.0801  0.0226
 8169W        W24353   1.145   6.306   5.731  0.1298 -0.3282  0.3400
 8170W        W24354   6.413   3.949   3.045  0.1548 -0.0343  0.1475
 8171W        W24355  12.345   0.132  14.029  0.1210 -0.0527 -0.4067
 8172W        W24356   3.127  11.213   2.742  0.1678 -0.1341  0.0907
 8173W        W24357  18.291   4.104  12.079  0.0371 -0.1602 -0.3587
 8174W        W24358  18.464  12.400   0.663  0.1261 -0.0249  0.1547
 8175W        W24359  14.255   9.385  13.304  0.1426  0.1272 -0.1496
 8176W        W24360   7.139   3.786  13.648 -0.0191  0.0847  0.4440
 8177W        W24361  15.692  13.236   1.720  0.0471  0.1987 -0.2754
 8178W        W24362  17.128   6.737   1.312 -0.2443  0.1929 -0.0157
 8179W        W24363   3.670   0.519   1.682  0.3805  0.1989 -0.2864
 8180W        W24364   5.729  12.014   3.261 -0.2551 -0.1275 -0.0085
 8181W        W24365   5.478   4.566   4.637 -0.3656 -0.0257  0.1616
 8182W        W24366   4.754  18.554  13.829  0.1976 -0.0237 -0.0457
 8183W        W24367   0.150  18.048   0.448  0.1398  0.0118  0.2866
 8184W        W24368   8.199   2.662   2.882  0.0583  0.0676  0.3243
 8185W        W24369  14.602  11.643   1.129 -0.2448  0.2301  0.1353
 8186W        W24370  18.919  15.709  13.229  0.0311 -0.0189  0.2992
 8187W        W24371  13.464   0.396   2.279 -0.2685 -0.0785 -0.2189
 8188W        W24372   8.970   8.376  11.553 -0.0343  0.0479  0.0253
 8189W        W24373  10.862  14.794  10.393 -0.0957 -0.0972 -0.0137
 8190W        W24374  13.348   2.921   4.481 -0.0469 -0.1479 -0.1577
 8191W        W24375  11.729   7.845  11.028 -0.1257  0.0891  0.1308
 8192W        W24376   4.069   6.660   1.525 -0.0459  0.3544  0.1828
 8193W        W24377   4.547   8.762   1.661  0.3087  0.0829 -0.2022
 8194W        W24378   7.730  12.745   4.594  0.0494 -0.2729 -0.0337
 8195W        W24379  13.014  16.376   0.777  0.0123  0.2761  0.2757
 8196W        W24380   1.147   9.327   9.496 -0.0998 -0.2410 -0.3274
 8197W        W24381  13.372   4.535  14.487 -0.0149  0.1613 -0.0109
 8198W        W24382   3.174   1.907  12.520  0.3189  0.4364 -0.3623
 8199W        W24383  15.158  13.805  11.136 -0.0730  0.2801 -0.5255
 8200W        W24384   9.711   0.125  15.345 -0.1559  0.2773  0.2245
 8201W        W24385   9.464  10.124   2.252  0.0709 -0.1654  0.1383
 8202W        W24386  17.600  10.804   0.402  0.2287 -0.0307  0.2350
 8203W        W24387  15.779   4.870   4.358  0.0844  0.0627 -0.3934
 8204W        W24388  14.827  12.424   5.212  0.0174  0.1615  0.0947
 8205W        W24389   7.495   3.634   0.214  0.0670 -0.0765 -0.4653
 8206W        W24390   9.291   5.041  13.098 -0.1517  0.1665 -0.1721
 8207W        W24391  16.592   4.596  13.915  0.5130  0.1730 -0.1097
 8208W        W24392  14.881   6.936   3.657  0.0471 -0.1180 -0.1347
 8209W        W24393   2.996  14.746   0.659  0.0563 -0.2100  0.1817
 8210W        W24394  16.640   4.032   1.707 -0.0365  0.3746  0.1704
 8211W        W24395   8.578   0.998  15.193 -0.0023 -0.0568 -0.1164
 8212W        W24396   1.155   5.405  14.126 -0.3820 -0.2988 -0.2235
 8213W        W24397  18.223   2.006  11.253  0.0911  0.0780  0.3262
 8214W        W24398   7.177  14.687  12.138 -0.2681  0.0377 -0.1671
 8215W        W24399   4.172  14.151  12.238  0.1099 -0.2003 -0.2104
 8216W        W24400   2.497  16.711  15.363 -0.1143  0.0973 -0.4276
 8217W        W24401   6.085  11.611  14.795 -0.1506 -0.0889  0.0018
 8218W        W24402   6.609  15.508  13.770 -0.3242  0.1712 -0.0848
 8219W        W24403  15.192   2.786  10.863 -0.3697 -0.3179  0.3096
 8220W        W24404   2.130   9.541   3.056  0.0922 -0.0275  0.0276
 8221W        W24405   4.706   3.131   0.798 -0.1074 -0.2034  0.1321
 8222W        W24406  17.389  11.003   4.681  0.1225  0.4057 -0.0181
 8223W        W24407  14.384   6.460   2.692 -0.3342  0.1020 -0.0370
 8224W        W24408   8.089  17.534   2.787  0.3026 -0.0103  0.2797
 8225W        W24409  17.557   1.115  10.998 -0.1038 -0.0295 -0.1441
 8226W        W24410  15.816  12.943   2.350  0.1346  0.1598 -0.1007
 8227W        W24411   4.617   0.906   2.590 -0.3256 -0.2632  0.0940
 8228W        W24412   5.024   9.097   0.375  0.0180  0.1574 -0.0410
 8229W        W24413   2.933   9.324   0.063 -0.0488 -0.2437 -0.1796
 8230W        W24414   5.929  18.271  12.330  0.0683 -0.0990  0.0587
 8231W        W24415   7.140   2.355   0.419  0.2981 -0.1837 -0.1908
 8232W        W24416   0.464  15.662   3.325 -0.2724 -0.2185 -0.2516
 8233W        W24417   3.771  10.162   2.040 -0.0796  0.0843 -0.0700
 8234W        W24418   5.554   5.289  12.408 -0.0733 -0.1211  0.0350
 8235W        W24419  14.661   7.034  12.312 -0.1900 -0.0506  0.0915
 8236W        W24420   0.678  14.763  13.905 -0.2428  0.0796  0.1085
 8237W        W24421   4.395   0.307   0.796  0.1360 -0.2039  0.3863
 8238W        W24422  10.516   7.471  12.815  0.3199  0.1942 -0.3035
 8239W        W24423  14.082   2.879   1.730 -0.4465  0.2556 -0.0096
 8240W        W24424   2.259  15.342   2.013 -0.0137  0.0757  0.0615
 8241W        W24425  14.438  11.774  14.402  0.1286  0.1309  0.2011
 8242W        W24426  12.381   5.768   2.529 -0.2007 -0.3841 -0.1254
 8243W        W24427  14.589   3.085  11.613 -0.1228 -0.1346 -0.0799
 8244W        W24428  18.912   2.757   4.804  0.2759 -0.1413  0.2132
 8245W        W24429  12.627  16.392  12.676  0.4707  0.1561  0.0862
 8246W        W24430   2.598   2.343  13.851  0.2875 -0.1254 -0.1501
 8247W        W24431  13.905   7.020   2.771 -0.2270 -0.1174 -0.0141
 8248W        W24432  15.925   9.203   1.371 -0.1448 -0.1392 -0.0330
 8249W        W24433   2.209   7.140   2.434  0.2447 -0.1983  0.0423
 8250W        W24434  15.027   8.468   2.967  0.1070 -0.1620 -0.0616
 8251W        W24435   7.249  10.805   5.941  0.2661  0.3307  0.1352
 8252W        W24436  11.215   3.778  12.703 -0.0208  0.1883  0.0149
 8253W        W24437   0.855  12.665   4.134 -0.3099 -0.2428  0.2010
 8254W        W24438   3.822   4.762   4.702 -0.0712 -0.0537 -0.2714
 8255W        W24439  17.545  12.691   4.779 -0.3840 -0.0506  0.4859
 8256W        W24440   5.800   1.093   1.595  0.0185  0.0680  0.0105
 8257W        W24441  17.390  13.061  15.240  0.0728 -0.0045  0.0054
 8258W        W24442  10.670   5.799   0.212 -0.2470 -0.1245 -0.3435
 8259W        W24443  15.384   0.390   0.466  0.2913 -0.1650  0.0025
 8260W        W24444   8.276  18.056   1.096  0.0221  0.1336  0.1662
 8261W        W24445  17.819   8.809   4.930  0.1710 -0.1090 -0.1913
 8262W        W24446  10.556   0.931  11.700 -0.1168 -0.1126  0.2627
 8263W        W24447   5.641   1.006  11.361  0.2557 -0.0856  0.1731
 8264W        W24448   5.560  13.865  10.962 -0.0280 -0.0389  0.0069
 8265W        W24449  18.518  18.804  12.187  0.0229 -0.1530 -0.1406
 8266W        W24450  16.197   9.992   4.161  0.2457 -0.3549  0.1592
 8267W        W24451  15.634   2.827   2.472 -0.1578  0.1032  0.3009
 8268W        W24452   3.942   0.349   2.717 -0.0367  0.1875 -0.2451
 8269W        W24453   6.824   2.423   3.715  0.2497  0.0427 -0.0649
 8270W        W24454  17.719   0.637   5.403 -0.4696  0.1865 -0.0679
 8271W        W24455   8.956   2.770  12.185  0.3802  0.0183  0.0779
 8272W        W24456   5.079   1.072  12.511  0.0184  0.0118  0.1862
 8273W        W24457   4.958  14.903  13.471 -0.1949  0.1065 -0.0186
 8274W        W24458   3.686  15.064   2.852 -0.0396 -0.0471 -0.0021
 8275W        W24459   3.757   8.187  12.196  0.0638  0.1345 -0.0203
 8276W        W24460  17.264   6.262  11.587  0.2844 -0.3414 -0.1169
 8277W        W24461  11.808   5.315  13.117 -0.3313 -0.0312 -0.0905
 8278W        W24462  16.014   0.172   1.776  0.3122  0.0435  0.0014
 8279W        W24463   1.481   5.977   3.121  0.1966 -0.1200 -0.0052
 8280W        W24464  14.469  11.366  11.889  0.4026 -0.1483 -0.2835
 8281W        W24465   7.496   4.964   1.805  0.1176 -0.0580  0.2591
 8282W        W24466   5.302  15.473   0.813  0.0994 -0.1869  0.0572
 8283W        W24467  10.296   0.018  11.021 -0.1189  0.0382  0.3465
 8284W        W24468   7.223  14.557   0.782  0.0869 -0.2189 -0.0101
 8285W        W24469  11.168   4.365  15.100 -0.0251  0.0135  0.1912
 8286W        W24470  15.698  10.134  12.452 -0.2357 -0.0961 -0.0574
 8287W        W24471   1.256   9.492   1.678 -0.0052  0.1556 -0.3402
 8288W        W24472   0.724   5.132   1.889 -0.2191 -0.1901 -0.1640
 8289W        W24473   9.563   1.829  15.015 -0.1206  0.1106 -0.3204
 8290W        W24474   2.670   5.524   3.134 -0.1239  0.2449 -0.2797
 8291W        W24475  17.315  14.795   1.833 -0.0078 -0.2285  0.2897
 8292W        W24476   0.558   7.779  10.350  0.1728  0.0505  0.1997
 8293W        W24477   2.488  15.911  12.155  0.3284  0.0394 -0.3712
 8294W        W24478  15.521   0.558   4.838 -0.2002  0.2382  0.0632
 8295W        W24479   1.576   1.660  11.911 -0.3104 -0.1702 -0.1223
 8296W        W24480   8.047  17.829  13.704  0.2226  0.1763  0.0078
 8297W        W24481  18.373   9.104  10.692 -0.2300  0.1862  0.1698
 8298W        W24482   7.660  17.117   4.402 -0.1491 -0.1387 -0.0045
 8299W        W24483   7.187   3.708   1.763 -0.4659  0.1397 -0.2567
 8300W        W24484   6.146   3.898   6.133  0.1035 -0.0805  0.2507
 8301W        W24485   7.362   9.372   1.702 -0.2799 -0.1359 -0.1055
 8302W        W24486  12.515  16.194   2.098 -0.0184 -0.2919 -0.1059
 8303W        W24487  12.895   0.629   0.505  0.1284 -0.1219 -0.0876
 8304W        W24488  11.718  11.837  13.742  0.1640 -0.0369  0.0411
 8305W        W24489  13.036   3.406   2.560  0.0146 -0.1028 -0.1479
 8306W        W24490  12.144   5.004   2.016 -0.1460 -0.1114  0.0855
 8307W        W24491  16.229   0.187   3.715 -0.1002 -0.0544  0.2496
 8308W        W24492  14.994   1.061  12.337  0.3272 -0.0865 -0.0465
 8309W        W24493  16.056   3.600  14.507 -0.1048  0.0176  0.2255
 8310W        W24494   4.795   2.036  12.197 -0.0716 -0.2541 -0.1499
 8311W        W24495   3.583  14.337  15.380 -0.2889 -0.0060 -0.2608
 8312W        W24496   3.969   7.782   0.093  0.0307 -0.0274  0.2082
 8313W        W24497  13.209   0.358  13.398 -0.1450  0.0647  0.1273
 8314W        W24498  16.709  11.255   3.755  0.1655  0.2999 -0.0313
 8315W        W24499   9.290   5.518   3.193 -0.0864 -0.0584 -0.4212
 8316W        W24500   9.781   9.393   3.519  0.0031  0.1159 -0.0928
 8317W        W24501   5.656  11.040   4.903  0.0393 -0.1377 -0.1101
 8318W        W24502   9.641  13.810  10.637 -0.1690 -0.0146  0.4766
 8319W        W24503  15.158   8.520  13.523 -0.2595  0.3482  0.1031
 8320W        W24504  12.699   9.558  14.965  0.1776 -0.2466 -0.1096
 8321W        W24505   4.335  14.897   1.733  0.1601 -0.0703 -0.0697
 8322W        W24506  17.684   2.170  11.624  0.2626 -0.0860 -0.1564
 8323W        W24507  15.271   5.780  12.877 -0.0099  0.0715  0.0696
 8324W        W24508  16.480  15.445   3.050  0.1357 -0.4588 -0.1348
 8325W        W24509  18.256   5.728   2.877  0.1234  0.1208 -0.1551
 8326W        W24510   2.769  15.019   2.800  0.1215 -0.0297 -0.0836
 8327W        W24511   8.374   2.486   3.971  0.0063 -0.3512 -0.1276
 8328W        W24512  11.038   3.231   0.789  0.0563 -0.0303 -0.1694
 8329W        W24513  16.306  13.398  14.029  0.1151 -0.0583  0.3328
 8330W        W24514   0.358   9.840  13.008  0.3220 -0.0706  0.2785
 8331W        W24515  10.659   9.673  11.171  0.1279  0.0141  0.2832
 8332W        W24516   4.349   1.868   4.083  0.1598 -0.1664  0.0734
 8333W        W24517   5.087   2.681   1.532 -0.1946  0.1940  0.1094
 8334W        W24518   1.970   9.659  14.857  0.1853 -0.1867 -0.4256
 8335W        W24519   6.174  14.079  12.201  0.2072 -0.3017 -0.2239
 8336W        W24520   1.893   9.831  12.306  0.2396 -0.0823  0.4727
 8337W        W24521  12.891  14.049  12.163 -0.0052  0.1925  0.2287
 8338W        W24522   1.373   8.092   2.315  0.0154 -0.0210  0.1469
 8339W        W24523   5.578  18.440   2.762 -0.2780  0.0222  0.2242
 8340W        W24524   0.990   2.918   1.254  0.0597  0.1417 -0.0650
 8341W        W24525   3.357  17.482   4.000  0.1249  0.0845 -0.4516
 8342W        W24526   3.259   7.090  12.205 -0.1058 -0.1790  0.0464
 8343W        W24527   7.036   2.423   1.831 -0.0258  0.1983  0.1761
 8344W        W24528   7.239   4.562  10.907 -0.2652 -0.1170  0.1666
 8345W        W24529   1.220  15.113  14.383 -0.0584 -0.1265 -0.1270
 8346W        W24530  13.257  14.959   1.931  0.0697  0.3082 -0.0676
 8347W        W24531  15.293  13.439  13.169 -0.1350 -0.0611  0.1175
 8348W        W24532   7.622   1.431   3.057 -0.0189 -0.0501 -0.1293
 8349W        W24533   3.255  14.437  11.143 -0.1372  0.1540 -0.0280
 8350W        W24534   3.329   2.652  10.987 -0.0683  0.1873  0.4900
 8351W        W24535  10.866  10.903  13.072  0.3739  0.1498  0.1959
 8352W        W24536  12.750  11.081  11.702  0.0546  0.2624 -0.1879
 8353W        W24537   1.285   8.007   3.195 -0.0065 -0.0812  0.0930
 8354W        W24538  15.699   7.184   1.315  0.1406 -0.2596 -0.1775
 8355W        W24539   5.245   5.016   4.854 -0.2480 -0.0356  0.2640
 8356W        W24540  11.425  12.221  13.802 -0.1189  0.1864  0.1339
 8357W        W24541  15.950   1.769  14.977 -0.5147  0.0913 -0.1788
 8358W        W24542  17.310   8.051  14.114  0.4025  0.2297 -0.0416
 8359W        W24543   6.812   1.536   1.753  0.3189 -0.0860  0.1731
 8360W        W24544  18.397   6.362  11.272 -0.0050  0.1478 -0.1222
 8361W        W24545   6.943   3.704   4.972 -0.0431 -0.0584 -0.0428
 8362W        W24546  18.903  10.267  13.663 -0.2174 -0.2675  0.1491
 8363W        W24547   7.671  16.124   2.806 -0.1581  0.0794  0.2550
 8364W        W24548   5.974  17.667  11.090  0.0788 -0.0196  0.1623
 8365W        W24549   8.354   0.127  13.220  0.0298 -0.2792  0.2180
 8366W        W24550   4.497   6.113   5.469  0.2012  0.0276  0.0201
 8367W        W24551  16.992   8.931  14.905  0.1094 -0.0959 -0.0936
 8368W        W24552   0.811   1.980   2.342 -0.0259  0.1548 -0.1806
 8369W        W24553   9.317  17.922   3.306  0.0493 -0.4851  0.3009
 8370W        W24554   6.045   6.630   2.412  0.1146  0.3406 -0.2199
 8371W        W24555  15.858   6.087  10.610  0.2843 -0.1094  0.1290
 8372W        W24556   3.003  15.318  10.809  0.0421  0.0107  0.1171
 8373W        W24557  13.683  14.356   0.328  0.3469 -0.1300  0.0425
 8374W        W24558   4.876  11.080   3.686  0.0476 -0.1891 -0.0055
 8375W        W24559   8.992  13.595  11.501 -0.1264  0.1840  0.0357
 8376W        W24560  16.929  14.950  11.212 -0.2431  0.0442  0.0844
 8377W        W24561  15.814  15.266  13.003  0.0497  0.2667 -0.0859
 8378W        W24562  13.158   5.127   3.988  0.1916 -0.1047  0.0235
 8379W        W24563   2.022  13.380   1.307  0.0749  0.1218 -0.2814
 8380W        W24564  10.905   9.442  12.845  0.0336  0.1589 -0.0235
 8381W        W24565  15.859   9.344  12.742  0.0885  0.0337  0.0656
 8382W        W24566   6.028   6.726  14.849  0.0889 -0.3688 -0.3618
 8383W        W24567   5.493   8.009  11.316 -0.2769 -0.2191  0.0800
 8384W        W24568   7.020  12.528   4.559  0.1481 -0.1725  0.4150
 8385W        W24569  11.680  10.364  13.523  0.0064  0.0311  0.0303
 8386W        W24570  13.708  11.516  12.036  0.0256 -0.2382  0.0971
 8387W        W24571   2.485  15.994  11.303 -0.0270  0.2345 -0.1062
 8388W        W24572   7.011  10.359  12.936  0.0987 -0.0023  0.2831
 8389W        W24573   4.371   3.602   5.347  0.1919 -0.2108  0.0307
 8390W        W24574   7.041  16.081  13.787  0.2792 -0.1249  0.0643
 8391W        W24575   7.722   3.096  11.891 -0.0323 -0.1290  0.2585
 8392W        W24576  10.150   3.314  12.592  0.1672 -0.0326  0.2649
 8393W        W24577   3.806  13.440  14.554 -0.0792  0.1182 -0.2493
 8394W        W24578   1.687   7.046  12.471 -0.1356 -0.0831 -0.2351
 8395W        W24579  10.277   2.513   3.012 -0.0405  0.1306 -0.0842
 8396W        W24580  13.695  13.468   1.540 -0.2536 -0.1434 -0.2132
 8397W        W24581  17.530   9.285   2.706  0.1926 -0.2295 -0.0103
 8398W        W24582  18.149   4.195  11.531  0.0479 -0.1082  0.0578
 8399W        W24583  15.828   9.288   0.903 -0.1611 -0.2979  0.0165
 8400W        W24584  14.006  15.513  10.241  0.0097 -0.3895 -0.1643
 8401W        W24585   0.218  16.814  10.891  0.2747  0.0497 -0.0917
 8402W        W24586  16.772   1.494   0.655  0.2042  0.0111 -0.0220
 8403W        W24587  17.514   7.003  10.824  0.1984  0.0126 -0.1321
 8404W        W24588  18.218   2.619  14.223  0.4704 -0.0279 -0.1353
 8405W        W24589  17.783  11.268   3.111  0.2333  0.3387  0.0468
 8406W        W24590   3.984   8.527   2.306 -0.0948 -0.1492  0.0219
 8407W        W24591   4.278  12.992   2.048 -0.2713  0.3293  0.3969
 8408W        W24592   9.835  16.016   1.976  0.0809 -0.0869 -0.0097
 8409W        W24593  12.516  17.218   0.620  0.0698  0.2315  0.0375
 8410W        W24594   7.912  11.129  11.244  0.1969  0.1165 -0.2311
 8411W        W24595   0.980  14.680  14.305 -0.2073  0.3103  0.4236
 8412W        W24596   2.619  13.180  13.060 -0.0205 -0.0450  0.1693
 8413W        W24597   9.567  13.012  15.098  0.0086  0.0108 -0.3230
 8414W        W24598   9.451   3.111   3.011  0.5220  0.1653 -0.0625
 8415W        W24599   6.922  13.014  12.762  0.2367  0.1341  0.1835
 8416W        W24600   0.789  10.805  10.204  0.0288 -0.0524 -0.1381
 8417W        W24601  13.420  10.858  12.320 -0.0740  0.1433  0.2236
 8418W        W24602  18.827   8.773   1.563  0.2910  0.2164  0.1738
 8419W        W24603   0.728  11.000  10.669 -0.0027  0.2469  0.1691
 8420W        W24604  14.316  18.343  15.106 -0.0465  0.4449  0.1339
 8421W        W24605   4.607  12.521   1.193  0.1448  0.1285  0.0299
 8422W        W24606   5.975  15.517   1.238 -0.0370 -0.3020 -0.0145
 8423W        W24607   4.085   5.729   2.429 -0.1580  0.0995  0.0731
 8424W        W24608   4.263   5.697   5.287 -0.0448 -0.0070  0.0534
 8425W        W24609  11.161   5.364  14.161  0.0273 -0.0400  0.1108
 8426W        W24610  12.679   8.098  10.573 -0.0333 -0.2405  0.2037
 8427W        W24611   7.528   3.613   5.756  0.2390 -0.1848 -0.0553
 8428W        W24612  13.303  10.279   2.776  0.0981 -0.2324  0.0775
 8429W        W24613   0.022  18.233  12.744  0.1478  0.2753 -0.1778
 8430W        W24614   4.224   4.480   2.741  0.1749  0.1571  0.1535
 8431W        W24615  15.855   2.991   3.835  0.0745 -0.2874 -0.4412
 8432W        W24616  17.278   3.061   4.894  0.1040  0.2045 -0.0621
 8433W        W24617  18.295   3.233   5.367 -0.0533 -0.1304  0.0348
 8434W        W24618   5.205   7.743  14.843 -0.1082  0.1233 -0.0578
 8435W        W24619   6.276   4.196   0.068  0.0948 -0.3933 -0.0420
 8436W        W24620  15.593  11.847   4.072  0.1741  0.0961  0.0401
 8437W        W24621   2.465  14.181  11.526 -0.1073  0.0677 -0.1398
 8438W        W24622   5.956   3.006  13.910 -0.0449 -0.0846  0.2155
 8439W        W24623   2.764  11.104  13.967 -0.4792 -0.2348 -0.4712
 8440W        W24624  16.637   9.753   0.301  0.3343 -0.2751  0.0071
 8441W        W24625  14.250  12.453   3.397 -0.2600 -0.0128  0.0621
 8442W        W24626   6.893   7.764  14.029  0.1804  0.3168  0.2179
 8443W        W24627  16.471  10.479  11.460  0.3932 -0.0120  0.2738
 8444W        W24628  10.627  12.024  14.396  0.2043 -0.2901 -0.1730
 8445W        W24629   0.493  14.985  15.317 -0.0165 -0.1060  0.2932
 8446W        W24630   3.659   0.710  14.607  0.2615 -0.0283 -0.1347
 8447W        W24631  18.333  11.560   1.379  0.0180  0.0585  0.1596
 8448W        W24632  16.862  12.589  13.566  0.1086 -0.0546  0.1300
 8449W        W24633  11.714   4.252  10.809 -0.1227 -0.1814 -0.3152
 8450W        W24634  11.471   3.160   2.255  0.1007 -0.0558  0.1051
 8451W        W24635  17.151  10.568   1.290 -0.1100 -0.0302 -0.3607
 8452W        W24636   1.759  11.598  13.374  0.1975 -0.0747  0.0049
 8453W        W24637  13.347  13.828   0.422 -0.0002 -0.0291  0.2123
 8454W        W24638  10.991  16.035  13.016  0.0637 -0.2793  0.0424
 8455W        W24639   1.918  17.758   0.715 -0.1235 -0.2571  0.0679
 8456W        W24640   0.826   4.110  12.656  0.1500  0.0131  0.1213
 8457W        W24641   7.908  13.499   5.444  0.0597  0.0022  0.0755
 8458W        W24642  11.022   0.960  14.916  0.0490 -0.0951 -0.1161
 8459W        W24643  10.881  15.646  10.055 -0.1596 -0.3342  0.1517
 8460W        W24644  15.596   8.075   2.459 -0.2235 -0.1374 -0.1137
 8461W        W24645   4.600   9.358   5.241  0.0574 -0.1518  0.0096
 8462W        W24646   6.649  12.593   4.241 -0.0718 -0.1114 -0.0705
 8463W        W24647  16.362  17.799  15.098 -0.2199 -0.2101 -0.0803
 8464W        W24648   3.864  11.614  11.558  0.0552 -0.1075 -0.1904
 8465W        W24649   7.464   8.510  14.478  0.1951  0.1125 -0.1996
 8466W        W24650  15.390  16.407   0.095 -0.0271  0.1672  0.0791
 8467W        W24651   5.400   6.808   5.010 -0.0439 -0.1764  0.0428
 8468W        W24652  10.601   5.370   1.413  0.0674  0.2276  0.2776
 8469W        W24653  10.503  16.801   1.546  0.2298  0.1254 -0.0563
 8470W        W24654   9.927   9.412  12.541  0.1322 -0.4388 -0.2214
 8471W        W24655   0.843  10.271   3.544 -0.3185 -0.0421 -0.2212
 8472W        W24656  17.197  10.925   4.195  0.0135  0.2547 -0.1514
 8473W        W24657  15.054   3.321  10.505 -0.1395  0.1231  0.0688
 8474W        W24658   6.682  10.780  13.894 -0.0546 -0.2372  0.2015
 8475W        W24659   1.737   3.319   3.130  0.1107 -0.1849 -0.3258
 8476W        W24660   8.298  15.747   5.933 -0.1408  0.0244 -0.0690
 8477W        W24661  10.781   3.203  15.086  0.1472 -0.0749  0.0701
 8478W        W24662   4.913  15.372  13.115  0.0856 -0.2496  0.0711
 8479W        W24663  17.824   7.650   2.795 -0.0519  0.0135 -0.0632
 8480W        W24664  10.646  12.329   0.180 -0.2811 -0.4933 -0.0932
 8481W        W24665  10.819   5.014  14.390 -0.0896  0.0677 -0.2348
 8482W        W24666  16.701   9.643   2.299  0.0282  0.4106 -0.1584
 8483W        W24667   8.902  13.403   2.259 -0.2860  0.2250 -0.0908
 8484W        W24668  13.498   4.627   3.852 -0.0065  0.0105  0.0052
 8485W        W24669   8.547   9.320   3.690  0.0162  0.1219 -0.1580
 8486W        W24670  12.385  17.769   1.264 -0.0500 -0.2734  0.1411
 8487W        W24671  14.005   8.372   2.480 -0.0804 -0.0169  0.2172
 8488W        W24672   2.946  13.581  13.726  0.0626  0.1470  0.0945
 8489W        W24673  17.092  12.731   0.751 -0.1480 -0.0169  0.1847
 8490W        W24674  13.297  14.503  12.458  0.2865 -0.1818  0.0876
 8491W        W24675   0.782  14.517   1.010  0.1158  0.1107 -0.0590
 8492W        W24676  16.429   1.585   4.400 -0.3413 -0.5255 -0.1262
 8493W        W24677  18.692   8.716  10.514  0.0884  0.0293 -0.0040
 8494W        W24678   1.287   5.730  13.014 -0.2536 -0.1350  0.0489
 8495W        W24679  15.777   1.100   2.571  0.0983 -0.3111 -0.0548
 8496W        W24680  13.434   2.285  12.236 -0.3841  0.1331 -0.0199
 8497W        W24681  10.994  16.818  11.721 -0.1185 -0.2745 -0.0468
 8498W        W24682  18.600   9.396   2.395  0.1487 -0.1427  0.0354
 8499W        W24683  14.847   9.181   2.068  0.0180 -0.0023  0.0736
 8500W        W24684   6.862  17.126  12.968 -0.2791 -0.0833 -0.1204
 8501W        W24685  16.784  12.130   3.350 -0.0148 -0.0110  0.2624
 8502W        W24686  18.887  10.090   3.121  0.1025  0.0547  0.2273
 8503W        W24687  13.534  15.146   9.910  0.1236  0.2778 -0.2090
 8504W        W24688   0.275   2.553  12.018  0.0211 -0.0676 -0.0871
 8505W        W24689  14.983  16.506  13.786  0.0495  0.0939  0.1165
 8506W        W24690  14.680  16.792   4.101  0.0716  0.0340  0.1861
 8507W        W24691   6.021   5.827   6.189 -0.3851  0.0201  0.2332
 8508W        W24692   9.578  15.734   1.021  0.0308 -0.0634 -0.1976
 8509W        W24693   9.145   7.852  11.372  0.2816 -0.2760 -0.3115
 8510W        W24694  10.061   8.148   1.261  0.1248 -0.0668 -0.0032
 8511W        W24695   8.562   0.776  13.898 -0.1766  0.3619 -0.0502
 8512W        W24696  15.793   9.207   0.421  0.0149  0.0544 -0.0453
 8513W        W24697   8.118   7.932   4.589  0.0408  0.0717  0.0174
 8514W        W24698   0.918   9.210   4.748  0.3112 -0.1695 -0.4364
 8515W        W24699  18.125   1.675   0.088 -0.2688  0.1306 -0.3796
 8516W        W24700  17.913   0.846   1.543 -0.0369  0.1632  0.1152
 8517W        W24701  14.687   5.388  13.386 -0.1185 -0.0079  0.2212
 8518W        W24702   1.247   4.409  11.788 -0.0109 -0.2161  0.1241
 8519W        W24703   5.563  13.585  14.171  0.0584  0.2315 -0.3224
 8520W        W24704   7.717   6.734   2.091  0.3397  0.2306 -0.2133
 8521W        W24705  11.958   7.613   3.013  0.1375 -0.4309  0.2526
 8522W        W24706   1.487  13.151  11.553 -0.0496  0.0475  0.1163
 8523W        W24707   1.440  17.112  14.992  0.1090 -0.0961 -0.0622
 8524W        W24708   1.038  13.313  11.729 -0.0859 -0.1973 -0.2309
 8525W        W24709  11.287   7.577  12.644  0.1763  0.0472  0.1281
 8526W        W24710  18.292   6.378   4.174 -0.3411  0.3875  0.1657
 8527W        W24711   3.517  10.884   5.539 -0.2233 -0.1266  0.0400
 8528W        W24712  12.633   0.863  12.434 -0.2969  0.0224  0.1685
 8529W        W24713  17.660  14.777   2.256 -0.0065  0.2042 -0.1026
 8530W        W24714   6.770  17.556   0.246 -0.1696 -0.1986  0.0888
 8531W        W24715  14.384  14.483   3.846  0.0553  0.2266 -0.2803
 8532W        W24716   4.848  12.515  14.820  0.0419 -0.4051  0.1921
 8533W        W24717   1.329   6.701   2.831  0.0020 -0.2780  0.0298
 8534W        W24718  16.876  12.378  13.069  0.1111 -0.2972 -0.3173
 8535W        W24719   0.499  14.317   0.488  0.0149  0.0722 -0.2345
 8536W        W24720   9.677   0.685   3.447 -0.0736 -0.1434 -0.0281
 8537W        W24721  18.625  17.112  12.513 -0.1390 -0.0641  0.4243
 8538W        W24722   1.302  16.003   3.769  0.3245 -0.0474  0.0987
 8539W        W24723   6.908  13.251  13.814 -0.0510 -0.0303 -0.0533
 8540W        W24724   9.493   6.738  10.951  0.1628  0.2318  0.2679
 8541W        W24725  13.804   3.647   3.533 -0.1932  0.2921  0.2032
 8542W        W24726   5.427   4.173   2.965  0.0385  0.0170  0.1474
 8543W        W24727   8.177   6.468  13.681 -0.0184  0.0990  0.1459
 8544W        W24728   0.135  16.292  15.199  0.2403 -0.0740  0.0382
 8545W        W24729  13.951  18.336   0.157  0.1523  0.3125 -0.2162
 8546W        W24730  14.605  12.499   1.253 -0.2876 -0.0273  0.2463
 8547W        W24731  17.286   9.817  13.025 -0.1737 -0.1419 -0.0116
 8548W        W24732   6.414  18.390   0.619  0.2598  0.2291  0.0324
 8549W        W24733   1.157   7.460  12.183 -0.0742 -0.1514 -0.1205
 8550W        W24734   1.392  15.501  12.885  0.1381  0.3516 -0.1590
 8551W        W24735   6.580  12.631   5.390 -0.0830 -0.1523 -0.1718
 8552W        W24736   4.743  13.637   1.332 -0.3199  0.0130  0.1726
 8553W        W24737  13.339   2.714   0.895  0.5050  0.0971 -0.3072
 8554W        W24738   2.374  10.820  13.217  0.2806  0.0154  0.0667
 8555W        W24739   6.602   3.020   4.558 -0.3020  0.2567  0.0865
 8556W        W24740  18.699   0.538  14.253  0.1752 -0.1251 -0.2645
 8557W        W24741   5.152   6.529  13.276 -0.0624  0.1791  0.1093
 8558W        W24742   8.171   2.959   0.977  0.1671  0.0907  0.0564
 8559W        W24743   6.659   7.513   2.056  0.1897 -0.3497 -0.0046
 8560W        W24744  12.041  12.559  12.611 -0.1491 -0.0872  0.1705
 8561W        W24745  14.668  16.744  11.484 -0.1515  0.1301 -0.0605
 8562W        W24746  16.966   1.179  14.450 -0.0341  0.2204 -0.1541
 8563W        W24747   4.979   7.643   1.698 -0.1654  0.0602  0.1260
 8564W        W24748  18.351   3.664   4.406  0.1220 -0.0846  0.0784
 8565W        W24749  18.600   3.219   1.250  0.0813 -0.1203  0.2995
 8566W        W24750   9.522   8.042  10.522  0.1614 -0.2240 -0.1238
 8567W        W24751  15.693   8.347   0.735 -0.2118 -0.0468  0.0681
 8568W        W24752   5.654   0.837  13.151 -0.2124  0.0253 -0.0462
 8569W        W24753   6.616  10.784   1.730 -0.1863 -0.1310 -0.1035
 8570W        W24754  18.903   3.459   1.584 -0.1724 -0.0419 -0.0116
 8571W        W24755  15.648  18.802  12.457 -0.0656 -0.1391  0.0839
 8572W        W24756   9.752  16.339   1.437  0.3213  0.2863  0.1939
 8573W        W24757   2.836  14.811  14.772 -0.1137  0.3352 -0.0077
 8574W        W24758   8.176  12.771  13.554 -0.1802 -0.0760  0.2580
 8575W        W24759  14.641   5.278   2.925 -0.1685  0.1113  0.0175
 8576W        W24760  11.523   0.011   2.585  0.2274  0.0843  0.0014
 8577W        W24761   0.792  15.527   0.012  0.0326 -0.1995 -0.1066
 8578W        W24762   3.255  10.074  12.085  0.1901 -0.0706  0.0550
 8579W        W24763  13.952   0.268  12.190  0.0343 -0.1612  0.2067
 8580W        W24764  17.541   6.297  13.472  0.0823 -0.3077  0.0232
 8581W        W24765   9.265   5.081  13.649  0.0078 -0.1860  0.2035
 8582W        W24766   1.127   2.711   2.846 -0.3070  0.1048  0.1660
 8583W        W24767  13.240   1.686   3.911  0.2921 -0.0540  0.2147
 8584W        W24768   2.347  18.801   3.524  0.2779  0.2280 -0.4814
 8585W        W24769  18.224   7.451   3.918 -0.0115  0.2135  0.1314
 8586W        W24770  12.604   9.415  14.525 -0.2657 -0.0055  0.2254
 8587W        W24771   9.933   1.705  13.524  0.0150 -0.0261 -0.0773
 8588W        W24772   7.007   5.623   2.468  0.0042  0.0864  0.0064
 8589W        W24773  16.346   8.966  10.753  0.2564 -0.1616  0.0208
 8590W        W24774  16.671   3.269   2.572  0.0587  0.2056 -0.0874
 8591W        W24775   7.612  15.107  14.865 -0.1013  0.2263 -0.0444
 8592W        W24776   5.148   3.641  13.893 -0.1518  0.2470 -0.2951
 8593W        W24777  13.466   8.610  13.458  0.0582 -0.2269 -0.1200
 8594W        W24778  16.572  11.092  13.380  0.1538  0.0176  0.0936
 8595W        W24779  12.050   5.603   4.836 -0.2315  0.2196  0.0811
 8596W        W24780   4.368  11.240  13.101  0.0105 -0.1498  0.2674
 8597W        W24781   6.140  18.061  13.297  0.2540  0.1447 -0.3085
 8598W        W24782  14.072   6.461   4.486 -0.0969  0.4505 -0.5144
 8599W        W24783  12.422   4.261   4.784 -0.2333  0.0490 -0.1339
 8600W        W24784   7.296  10.101   5.415  0.1543 -0.0270 -0.1931
 8601W        W24785   5.472  18.996  10.755  0.4713 -0.0121  0.2717
 8602W        W24786   0.430  14.775   1.922  0.2610 -0.0471 -0.0891
 8603W        W24787   5.917  12.290  13.141 -0.1441  0.0329 -0.0497
 8604W        W24788  14.580   6.184  12.284  0.0298 -0.0356 -0.0100
 8605W        W24789  14.529  18.561   1.219  0.2305 -0.1109 -0.1599
 8606W        W24790  15.970   7.322   0.811 -0.1605 -0.2968 -0.0393
 8607W        W24791  17.301   0.677  10.928 -0.0133 -0.0326 -0.1745
 8608W        W24792   3.167  15.488  14.199  0.3232  0.1157  0.2789
 8609W        W24793  18.708  16.656   1.712 -0.1930 -0.5048  0.3411
 8610W        W24794  13.789   9.749   0.834  0.1641  0.4548  0.1537
 8611W        W24795   4.390   3.655  13.979 -0.1417 -0.2085 -0.2341
 8612W        W24796   8.206  11.456  11.579  0.1540  0.1584  0.1099
 8613W        W24797  16.929   0.295  14.246  0.2880 -0.3614 -0.2101
 8614W        W24798  11.792   5.125   4.037 -0.0981  0.1209 -0.1458
 8615W        W24799   7.618  17.291   5.319  0.2881 -0.0409 -0.1725
 8616W        W24800   6.198   0.558   4.874 -0.0597  0.0142  0.1244
 8617W        W24801  13.679   7.414  12.107  0.0063 -0.1776 -0.5282
 8618W        W24802  13.291  10.685   5.613  0.0985  0.0086 -0.1212
 8619W        W24803  13.797  10.063   4.036 -0.0796 -0.2185  0.1465
 8620W        W24804  14.535   0.897  12.356 -0.5504 -0.1530 -0.0274
 8621W        W24805   2.464  10.859  11.066 -0.1681  0.2037 -0.3025
 8622W        W24806  11.561   9.117  13.349 -0.1914  0.4706 -0.1180
 8623W        W24807   5.230   7.278   0.047  0.1958  0.1961  0.0874
 8624W        W24808   2.089  15.548   2.443 -0.3274  0.5152 -0.1970
 8625W        W24809   1.250   9.915  13.373 -0.1216 -0.1732  0.0885
 8626W        W24810  10.800  13.955  14.611  0.1759 -0.2950 -0.0438
 8627W        W24811   2.542   8.054   5.661 -0.1645 -0.1800  0.0845
 8628W        W24812  16.164  13.874  14.674 -0.3427 -0.0395  0.1277
 8629W        W24813  11.977   5.981  15.235  0.1926 -0.0917 -0.1833
 8630W        W24814  10.714  16.309   1.517 -0.2246 -0.0927 -0.3234
 8631W        W24815   9.547   3.070  13.498 -0.3229 -0.2631 -0.0201
 8632W        W24816   2.187  13.886  13.231  0.2232  0.1509 -0.3364
 8633W        W24817  13.793   7.001   1.134 -0.0345 -0.0000 -0.2428
 8634W        W24818  13.097   3.076   1.273 -0.1988  0.0368  0.1965
 8635W        W24819  17.762  12.021  12.750  0.0885 -0.1500  0.1150
 8636W        W24820  18.942   9.859  10.669  0.0057 -0.0330 -0.0789
 8637W        W24821  17.230   2.180  14.926 -0.1581  0.1120  0.2361
 8638W        W24822  14.721   6.072   0.893  0.1898  0.2100  0.2583
 8639W        W24823   3.383  15.709  10.877 -0.0759 -0.3746  0.1204
 8640W        W24824  17.210  16.099   2.457 -0.3090 -0.1067 -0.1162
 8641W        W24825  13.455  10.227  14.750 -0.3285 -0.1133 -0.1147
 8642W        W24826   8.345   9.551  14.309  0.0102  0.1054  0.0571
 8643W        W24827   5.032   8.931  14.861  0.2104 -0.0891 -0.0003
 8644W        W24828  14.475   0.937   5.859 -0.2386 -0.0314  0.0277
 8645W        W24829   7.000  17.027   4.163 -0.3222 -0.1657 -0.0653
 8646W        W24830  18.280  18.053   4.206 -0.1096 -0.0580  0.1137
 8647W        W24831  13.003   0.750  11.876 -0.0250  0.1007  0.1054
 8648W        W24832  17.026  12.906  12.091  0.1376  0.1554  0.0382
 8649W        W24833  13.826  16.505   3.805  0.0832  0.3238 -0.0544
 8650W        W24834  10.502  14.929   0.847  0.0531  0.2386  0.0680
 8651W        W24835   2.657   2.150  13.331 -0.1117 -0.0312 -0.2300
 8652W        W24836  10.331  14.431   3.698  0.1438 -0.0414  0.0612
 8653W        W24837   7.691   2.585   4.015  0.0736  0.3118  0.2668
 8654W        W24838   1.495  11.408   0.671  0.0417 -0.2004  0.0733
 8655W        W24839  11.267   9.640   1.718  0.0114 -0.0653 -0.3374
 8656W        W24840   9.841  17.850   0.631 -0.4062  0.2777 -0.0696
 8657W        W24841  18.596   4.495  15.314  0.0584 -0.2992  0.0357
 8658W        W24842  15.138   4.178  12.368 -0.2222 -0.1382  0.0050
 8659W        W24843  12.525   8.095   3.598  0.0691 -0.0606  0.2636
 8660W        W24844  18.899  17.168  11.551  0.1729  0.0456  0.0588
 8661W        W24845  10.923  11.894  11.714  0.0369  0.1407 -0.3490
 8662W        W24846  14.875  12.042   3.726  0.0182 -0.1000 -0.0519
 8663W        W24847  13.359   0.064   1.866 -0.2730  0.0597 -0.3806
 8664W        W24848  12.727  15.909  12.659 -0.2434 -0.1234  0.0802
 8665W        W24849   0.284   0.684   5.132 -0.1886 -0.1121 -0.5219
 8666W        W24850   7.538  11.709  11.930 -0.3446 -0.0773  0.2148
 8667W        W24851   5.806   1.610  12.622  0.1446  0.5497  0.0662
 8668W        W24852  17.763   4.096  12.888 -0.2675  0.0338  0.1379
 8669W        W24853   9.674   3.345  10.350  0.0645  0.2258 -0.3201
 8670W        W24854   3.624  14.996  12.720 -0.3988  0.3988 -0.1062
 8671W        W24855   9.400   3.900  12.802  0.3876 -0.2655  0.2212
 8672W        W24856   6.040   9.872   1.039 -0.0978  0.1947 -0.1299
 8673W        W24857  13.193  15.826  14.132 -0.1430 -0.1021  0.3124
 8674W        W24858   6.603  18.305   0.090  0.1282  0.0132  0.2376
 8675W        W24859   9.222  15.485  12.491 -0.1704  0.4070  0.1186
 8676W        W24860  15.510  11.000   3.214 -0.0248 -0.3970  0.2534
 8677W        W24861   0.425  17.593   2.643  0.0562  0.1066 -0.1720
 8678W        W24862  15.337   6.638   2.497  0.1942 -0.0460 -0.3108
 8679W        W24863   7.562   3.267  15.239 -0.0780 -0.0878 -0.1580
 8680W        W24864  17.677  13.104  14.028 -0.0685 -0.2609 -0.1940
 8681W        W24865   6.155   5.885  10.360 -0.2442 -0.2063 -0.1889
 8682W        W24866   2.299   5.459   2.141 -0.0949  0.2253 -0.2829
 8683W        W24867  13.765  15.206   1.166  0.2059  0.1357  0.2899
 8684W        W24868   9.037  13.155   0.369  0.2307  0.3489 -0.0470
 8685W        W24869  13.487  13.628   4.830 -0.0805  0.1776  0.3018
 8686W        W24870  10.522   9.388  13.250  0.1303 -0.0306  0.2895
 8687W        W24871  12.339   1.489  10.645 -0.0791  0.3045  0.1630
 8688W        W24872  17.706   9.914  13.683 -0.2259 -0.0773 -0.0496
 8689W        W24873  13.789   5.105  15.153  0.1259  0.1960  0.1751
 8690W        W24874   9.535   1.616   0.486  0.0677  0.1144  0.1444
 8691W        W24875  15.702  16.576  13.295 -0.3934  0.0449 -0.0208
 8692W        W24876  10.253   9.570   4.772 -0.4162 -0.4108  0.0450
 8693W        W24877  18.941  10.067  15.305  0.2053 -0.2294 -0.3416
 8694W        W24878   7.584  12.222   1.750  0.2758  0.2285 -0.2306
 8695W        W24879  12.322  16.012   3.643  0.0464  0.3296  0.1950
 8696W        W24880   6.829   3.797  11.175 -0.0536  0.5197 -0.1401
 8697W        W24881  11.039   5.365   1.194 -0.1410  0.1702  0.4189
 8698W        W24882  14.211   8.319  14.511 -0.1073  0.2287 -0.0363
 8699W        W24883  15.117   6.714  13.139  0.0596  0.0437  0.0514
 8700W        W24884   5.531   5.931   1.428 -0.0240  0.2822 -0.0013
 8701W        W24885   6.590   1.256  15.111 -0.1035  0.1014  0.2540
 8702W        W24886   3.355   3.613   5.452  0.2331 -0.1560 -0.1218
 8703W        W24887   2.645   5.846   4.690  0.0714 -0.0696  0.2752
 8704W        W24888   8.819  11.701  12.689  0.1979  0.0523  0.1411
 8705W        W24889  11.080  16.403   2.943 -0.2148 -0.0718 -0.1220
 8706W        W24890  10.738   5.237  11.119  0.1222  0.1526 -0.0028
 8707W        W24891  18.091  18.234   3.175  0.1209  0.1328  0.0370
 8708W        W24892   1.537   7.507  13.737  0.2309 -0.0663  0.2157
 8709W        W24893   0.690  15.069   0.978 -0.3687  0.4678 -0.2625
 8710W        W24894   9.784  13.944  11.251 -0.5442 -0.0278 -0.0111
 8711W        W24895   9.650  13.409   1.293 -0.0267 -0.4311  0.1283
 8712W        W24896   8.508   0.899   3.842  0.4249 -0.2920  0.1558
 8713W        W24897   7.921  15.241  13.201  0.0234 -0.3583  0.0887
 8714W        W24898   8.096  14.531   4.322 -0.0392 -0.2025 -0.0084
 8715W        W24899   3.726   9.968   5.955 -0.1737 -0.1874 -0.1493
 8716W        W24900   0.653   8.691  15.278 -0.0200  0.0533 -0.0438
 8717W        W24901   7.153  18.780   3.245  0.1267  0.2601 -0.2776
 8718W        W24902  14.287  12.229  14.746  0.4244  0.0347 -0.2116
 8719W        W24903   5.610  12.910  11.490  0.2337 -0.0569  0.0581
 8720W        W24904   4.995   0.596   4.273  0.0557  0.0877  0.2315
 8721W        W24905  16.345  12.016   4.780  0.2010 -0.0563  0.1736
 8722W        W24906   6.107  18.989  11.991  0.2619  0.4069  0.2549
 8723W        W24907   4.354  12.511  11.077 -0.3130 -0.0266 -0.0848
 8724W        W24908   2.876  13.316  11.193 -0.0939 -0.0836  0.1610
 8725W        W24909   4.966   8.555  12.592 -0.0572 -0.0391 -0.0578
 8726W        W24910   7.799   7.361  12.303  0.1219  0.2810 -0.1571
 8727W        W24911   4.584   3.173   2.967  0.2780  0.4673 -0.3069
 8728W        W24912   4.157  13.161   0.759 -0.2637 -0.1355 -0.0538
 8729W        W24913  11.305   2.950   2.747 -0.1563  0.0589  0.2108
 8730W        W24914   2.496  15.335   3.763  0.1428  0.5364 -0.1235
 8731W        W24915   6.435   4.943   1.967 -0.0985 -0.2479  0.0246
 8732W        W24916   0.674  16.288  10.776 -0.0260  0.1290  0.0810
 8733W        W24917  17.597  12.616   4.308 -0.0815  0.2392  0.0007
 8734W        W24918   1.709   3.015   1.750 -0.0286  0.2787  0.2069
 8735W        W24919  12.824  11.903  15.130  0.0352 -0.2755  0.0788
 8736W        W24920   3.936   5.923  12.270 -0.3094  0.5389  0.0419
 8737W        W24921   6.926   7.752   2.373  0.0239  0.5117 -0.2139
 8738W        W24922   1.738  11.416  15.110 -0.0479 -0.1915 -0.2170
 8739W        W24923  15.774   3.663  13.178  0.0716 -0.0150  0.0346
 8740W        W24924  14.747  12.571  11.100 -0.2605  0.0384 -0.0001
 8741W        W24925   6.841  13.520   0.863 -0.1093  0.3003 -0.4017
 8742W        W24926   0.733  16.562   2.032  0.2863 -0.0456 -0.2194
 8743W        W24927  10.707   8.621  13.054 -0.2201  0.0241 -0.0110
 8744W        W24928   2.375  18.813  14.573  0.1009 -0.4038  0.0868
 8745W        W24929   1.087  15.770   4.234  0.0189 -0.1942 -0.2170
 8746W        W24930  18.571   4.992  13.368  0.0695  0.1762  0.1492
 8747W        W24931   1.887   1.352  13.055 -0.1774 -0.1109  0.3933
 8748W        W24932  18.206  18.497   3.967 -0.2495 -0.0972 -0.1490
 8749W        W24933   3.581  13.016  11.686  0.0655 -0.2600 -0.2855
 8750W        W24934   5.415  14.123  14.026  0.0266 -0.2483  0.2144
 8751W        W24935  12.516   8.625   1.335 -0.2403 -0.1437  0.2531
 8752W        W24936   1.564   7.211  14.171  0.2420 -0.3403 -0.2496
 8753W        W24937  11.172   6.392   2.380  0.2947  0.0809 -0.0562
 8754W        W24938   4.914   6.829   4.732  0.2676  0.1040 -0.1922
 8755W        W24939   9.259   0.337   4.784 -0.0910  0.1527 -0.2428
 8756W        W24940  11.251   3.535   2.498  0.1256 -0.1024 -0.0937
 8757W        W24941  18.621  16.823   4.936  0.0864 -0.1863 -0.1311
 8758W        W24942  18.821  11.165   2.091  0.2619 -0.0245 -0.2030
 8759W        W24943  10.537   2.138   0.083 -0.1790  0.2770  0.1020
 8760W        W24944   7.457  16.967   4.946 -0.0069 -0.1028  0.0451
 8761W        W24945  14.673   9.461   3.264 -0.1117  0.3535  0.0894
 8762W        W24946  17.115   6.106  12.071  0.0510 -0.0347  0.0312
 8763W        W24947  13.477   1.507   2.918  0.0728  0.2419  0.3723
 8764W        W24948   4.443  15.139  12.997  0.0835  0.1305 -0.1239
 8765W        W24949  16.403  14.985   2.892  0.0380  0.1259  0.1357
 8766W        W24950  16.394   6.378   1.050 -0.1190  0.1655  0.2538
 8767W        W24951  11.045  17.949   2.493  0.1112  0.1939 -0.2516
 8768W        W24952   4.376   3.191  10.441 -0.0340  0.1316  0.0651
 8769W        W24953  16.955  16.494   4.534  0.1100 -0.0696  0.0693
 8770W        W24954   0.149   3.348  13.115 -0.0069  0.0267 -0.1555
 8771W        W24955  17.212   6.079  13.717  0.0421 -0.2775  0.0807
 8772W        W24956  14.512   0.181  10.720  0.0949 -0.0573 -0.0761
 8773W        W24957  15.681  10.892  12.657  0.1282 -0.2311 -0.0127
 8774W        W24958  18.969  11.290   2.601  0.0766 -0.0866  0.2772
 8775W        W24959   3.889   7.707   1.291 -0.0606 -0.0923  0.1765
 8776W        W24960  16.436  13.701  13.222 -0.1960 -0.1731  0.1036
 8777W        W24961   0.424   9.858  14.326 -0.1502 -0.1488 -0.0243
 8778W        W24962  17.560   5.430   2.551 -0.2607 -0.1730 -0.2747
 8779W        W24963  18.840  13.831  12.368 -0.2065 -0.0421 -0.0543
 8780W        W24964  11.436  12.790  15.125 -0.0814 -0.0630 -0.1728
 8781W        W24965   9.779  13.061   4.074 -0.1529  0.1787 -0.0817
 8782W        W24966  17.410  17.911   3.718  0.3568  0.0244  0.0461
 8783W        W24967   4.638   0.920   0.213 -0.1696 -0.2319 -0.0834
 8784W        W24968   1.912  12.152  12.742 -0.0152 -0.2568  0.0109
 8785W        W24969  17.674  11.695   0.743 -0.1443  0.1801  0.0859
 8786W        W24970  17.892  12.028  11.009 -0.0779  0.0636 -0.0286
 8787W        W24971   1.368   2.999   3.368  0.1668  0.2602  0.0052
 8788W        W24972  11.129   0.406   2.027  0.1456  0.2655  0.3671
 8789W        W24973   9.713  14.182   3.328 -0.1355 -0.3161  0.2954
 8790W        W24974  14.591  15.441   3.044 -0.1677 -0.1627 -0.2636
 8791W        W24975   5.901   7.695   5.142  0.3267 -0.1569  0.0992
 8792W        W24976  16.703  13.480   4.577  0.1275  0.0984 -0.1772
 8793W        W24977  10.389   4.662   0.435  0.1035  0.0662 -0.1170
 8794W        W24978   4.245  18.505  13.768 -0.2546 -0.0375 -0.3236
 8795W        W24979  13.117   4.158   5.495 -0.1047  0.0420 -0.2339
 8796W        W24980   9.864  13.664  13.354 -0.2461 -0.2802 -0.0120
 8797W        W24981   7.725  14.971  13.855  0.3968  0.2039 -0.5110
 8798W        W24982  17.542  17.645   1.409  0.0688  0.0474  0.4125
 8799W        W24983   7.736  15.494  13.595 -0.2623 -0.0671 -0.2210
 8800W        W24984  10.754   4.032  12.665 -0.1526 -0.0847  0.0796
 8801W        W24985   9.334  17.949  13.230  0.0755  0.0908  0.3468
 8802W        W24986   3.426   7.974   1.208 -0.0683  0.1508 -0.3806
 8803W        W24987   6.420  10.410  14.180 -0.0250 -0.1166  0.0536
 8804W        W24988   4.727   7.876  14.819  0.0593 -0.0307 -0.1468
 8805W        W24989  14.420  11.717   3.063 -0.0258  0.0412  0.0451
 8806W        W24990   8.459   6.417  14.163 -0.1069 -0.0421  0.0257
 8807W        W24991  16.972   0.549   2.762 -0.3463  0.0686 -0.1413
 8808W        W24992   7.589  18.376   2.451  0.4225  0.0375  0.3159
 8809W        W24993  11.311   4.993  11.215  0.0802 -0.1073 -0.1150
 8810W        W24994   7.979   3.886   2.094  0.0845  0.1180  0.0414
 8811W        W24995  14.396  14.971   3.218 -0.4432  0.0283 -0.1754
 8812W        W24996   5.399  11.084   2.635 -0.2506 -0.1160  0.2404
 8813W        W24997   4.896   9.652  13.242 -0.0889  0.5260 -0.0363
 8814W        W24998  10.815   0.895   0.678 -0.2798  0.0177  0.1233
 8815W        W24999  16.418   1.705  11.339  0.2281 -0.1081 -0.0029
 8816W        W25000  15.711  11.617  13.176 -0.0141  0.2904  0.0583
 8817W        W25001  14.260  12.696   4.283 -0.0495  0.1192 -0.0513
 8818W        W25002   7.349  12.885   4.933  0.1543  0.0432 -0.1339
 8819W        W25003  14.095  15.064  14.188 -0.2047  0.0501 -0.0279
 8820W        W25004  15.396   3.661  10.683  0.0963 -0.0967 -0.0728
 8821W        W25005   2.269  12.952   0.131 -0.1521 -0.1408 -0.0808
 8822W        W25006   2.283   1.053  13.325 -0.0872  0.1059 -0.0841
 8823W        W25007  15.228  18.096  11.398  0.0874 -0.0167 -0.0771
 8824W        W25008   7.508   2.172   3.695  0.0630  0.1587  0.3474
 8825W        W25009  16.431  11.823  13.784 -0.0227 -0.2095  0.3578
 8826W        W25010  16.479   7.096   0.921  0.1756  0.2186  0.3172
 8827W        W25011   1.447  15.406   1.489 -0.0811  0.0388 -0.1232
 8828W        W25012  18.764   9.706   1.835  0.1698  0.0108 -0.1870
 8829W        W25013   1.033   9.635  13.731 -0.0751  0.0936 -0.2146
 8830W        W25014   4.978  15.571  15.188  0.1490 -0.2304  0.1261
 8831W        W25015   4.447   5.444   0.252 -0.0086 -0.2142 -0.2432
 8832W        W25016  10.412  15.907  11.387 -0.0312 -0.0524  0.2787
 8833W        W25017   2.031   2.362  12.087  0.0973 -0.2033  0.1960
 8834W        W25018  17.612   7.108   2.767 -0.0193  0.2775  0.0428
 8835W        W25019   2.009  13.678   3.128 -0.0726  0.1254  0.0300
 8836W        W25020   9.690  11.537  11.651 -0.1768  0.0801 -0.1832
 8837W        W25021   5.272   3.132   0.936  0.0117  0.0629  0.0959
 8838W        W25022  16.358  15.884  11.946 -0.1245 -0.0954  0.1294
 8839W        W25023  15.580  13.210   3.776 -0.0295 -0.3340  0.0507
 8840W        W25024  16.637   3.569  15.165 -0.0683 -0.0865 -0.0867
 8841W        W25025   9.015   3.065  15.207 -0.2697  0.0069  0.0125
 8842W        W25026   8.220  12.759  12.470  0.1596  0.0209  0.4294
 8843W        W25027  18.026   0.364   0.887 -0.1391 -0.0675 -0.4685
 8844W        W25028   4.245  14.739   3.765  0.0318 -0.1276 -0.1074
 8845W        W25029  18.064   4.574  12.145  0.0847  0.0377 -0.1020
 8846W        W25030   0.498   1.660   5.507 -0.2272 -0.1313 -0.0787
 8847W        W25031  13.888  15.984   0.790 -0.0083  0.1515 -0.1330
 8848W        W25032   0.232   4.053   2.163 -0.2525  0.2708  0.3153
 8849W        W25033  15.377  15.213   4.987  0.0060  0.0036  0.0352
 8850W        W25034  18.241   3.514   5.877  0.1972  0.2379 -0.1403
 8851W        W25035   2.126  12.098  11.865  0.0164  0.1310  0.2788
 8852W        W25036  11.916   7.825  11.963 -0.0572 -0.1314  0.0290
 8853W        W25037  14.392  10.835  13.786  0.0992 -0.2332  0.3306
 8854W        W25038   9.214   3.090  13.091  0.3892 -0.0942 -0.0580
 8855W        W25039  16.055   5.080  10.837 -0.2755 -0.4104 -0.0741
 8856W        W25040   2.761  12.129   4.876  0.0930  0.2390 -0.0184
 8857W        W25041  18.001   5.439   2.271  0.1006 -0.0545 -0.0577
 8858W        W25042   3.740  10.131   5.357  0.1265 -0.1095 -0.0284
 8859W        W25043  16.556   7.213  11.305  0.1165 -0.2595  0.2288
 8860W        W25044   1.985  11.090  14.245  0.4007 -0.1275 -0.4094
 8861W        W25045  10.522  14.496   2.193  0.1212 -0.0251 -0.0016
 8862W        W25046   7.547  10.996   0.810  0.2364 -0.2473 -0.0388
 8863W        W25047   6.225   3.169  14.408 -0.0450 -0.0973 -0.1124
 8864W        W25048  18.276  15.926  12.470 -0.0295 -0.1576 -0.1371
 8865W        W25049   2.081  10.135  13.894 -0.1952  0.0083  0.2771
 8866W        W25050  16.961  17.763  13.545 -0.0407  0.1704  0.1173
 8867W        W25051   4.318  16.094  15.110  0.0272 -0.5036 -0.0405
 8868W        W25052  17.620   0.618   0.019 -0.1313 -0.0358  0.1744
 8869W        W25053  10.417   6.494  10.710  0.0493 -0.1070 -0.5916
 8870W        W25054  17.797  12.892   0.107 -0.0525  0.1965  0.1330
 8871W        W25055  10.058   5.986  13.586  0.3876 -0.2480  0.2014
 8872W        W25056  13.134   4.983  14.362 -0.4175 -0.3151  0.0080
 8873W        W25057  16.845   7.371  12.783 -0.4489  0.1223  0.0417
 8874W        W25058  16.536   0.927   1.378 -0.0858 -0.0689 -0.0404
 8875W        W25059  13.622  14.602   5.173  0.1448 -0.1411 -0.0847
 8876W        W25060   2.222   6.720   4.770  0.4586 -0.5100  0.1969
 8877W        W25061  11.328   1.689   2.132 -0.1830  0.3291 -0.2593
 8878W        W25062   5.777  16.746  10.779  0.1805 -0.1343 -0.0093
 8879W        W25063  17.662  15.301  14.366  0.0492  0.1871 -0.1317
 8880W        W25064  11.596  15.260  11.608  0.2588 -0.0232 -0.0714
 8881W        W25065   4.625   2.549  11.251 -0.1281  0.1110  0.1659
 8882W        W25066   8.916   0.247  11.524 -0.4004 -0.0176  0.0892
 8883W        W25067  18.396  17.998  15.361 -0.3697 -0.3501  0.0442
 8884W        W25068   7.237  18.757  13.888  0.2782  0.0462 -0.0941
 8885W        W25069   7.109  18.396  12.885 -0.1158  0.1970  0.1690
 8886W        W25070  15.889  11.688  14.539 -0.2972  0.2966  0.2095
 8887W        W25071   9.523  15.552  12.098  0.1713 -0.0097  0.1776
 8888W        W25072   8.119  17.745  14.183  0.0283  0.1623 -0.0150
 8889W        W25073   2.944   3.325  12.599 -0.0537 -0.1379 -0.1528
 8890W        W25074   1.020  10.058   0.586  0.0920  0.3110 -0.3247
 8891W        W25075  15.637   0.910   3.874 -0.1619 -0.3553  0.3864
 8892W        W25076  16.107  11.299  10.945  0.1584 -0.1530  0.2187
 8893W        W25077  17.810  15.649   1.732  0.0878  0.1239 -0.1413
 8894W        W25078   9.707   8.701  12.101  0.1779 -0.1287 -0.0784
 8895W        W25079   8.969  11.969   1.662  0.0482  0.0491  0.1079
 8896W        W25080   8.395  14.396  11.326  0.3966 -0.4514  0.2839
 8897W        W25081  15.163   5.006  14.853 -0.0554 -0.0435 -0.1014
 8898W        W25082  15.611   1.022  14.187  0.1079  0.0660 -0.3116
 8899W        W25083   7.692   5.695   5.023 -0.3743 -0.3036 -0.0983
 8900W        W25084   5.883   4.048  14.664 -0.1304 -0.1529 -0.2777
 8901W        W25085  16.329   2.214   2.244  0.0830 -0.0088  0.2368
 8902W        W25086  16.610   0.000   3.532 -0.0472  0.4655 -0.0794
 8903W        W25087   1.409  17.458   1.292  0.0247 -0.1242 -0.0772
 8904W        W25088  10.901  14.184   2.305 -0.1052  0.1008 -0.4356
 8905W        W25089   5.679   2.641  14.954 -0.0855  0.4606 -0.1483
 8906W        W25090  15.186  18.201  11.879 -0.0379  0.1669  0.1644
 8907W        W25091   1.773  14.260   5.363 -0.2681  0.0109  0.2632
 8908W        W25092  17.364   4.551   3.684  0.1745 -0.3434  0.0471
 8909W        W25093   2.471   6.757   2.643  0.1465 -0.1176  0.0717
 8910W        W25094   1.576  18.840  15.296 -0.1300 -0.0362  0.1550
 8911W        W25095  14.094  11.911   4.417 -0.2099  0.2086  0.1402
 8912W        W25096  10.891   0.977  13.031  0.2434 -0.0127  0.0581
 8913W        W25097  16.972   6.134   4.397  0.0223  0.0363  0.2848
 8914W        W25098   8.712   3.490  12.710  0.4403  0.0625 -0.0933
 8915W        W25099   7.668   2.348   0.178 -0.2300  0.2750  0.1804
 8916W        W25100   3.174   1.089   3.907 -0.2192  0.0907 -0.0058
 8917W        W25101   7.418  18.854   5.042  0.0096  0.0851 -0.2577
 8918W        W25102  14.789   7.773  10.640  0.2906 -0.0400  0.1206
 8919W        W25103   4.502   4.363   3.538  0.1798 -0.2414 -0.1617
 8920W        W25104   0.101  12.836   5.255 -0.1790  0.0484  0.1337
 8921W        W25105  12.798   2.329   2.685 -0.1874 -0.1620  0.1143
 8922W        W25106   6.910  17.330  13.463 -0.3068 -0.4866 -0.0003
 8923W        W25107  12.008   1.199  14.464  0.0256  0.1518 -0.0132
 8924W        W25108   9.189   4.404   3.720  0.1460 -0.0323  0.2319
 8925W        W25109  10.893   2.090   3.655  0.0022  0.3123  0.2802
 8926W        W25110   2.038   6.649  15.298  0.1553 -0.4364 -0.1542
 8927W        W25111  16.046   2.529   1.172  0.1373 -0.0726  0.2958
 8928W        W25112   4.409  16.054   4.973 -0.0656 -0.1483 -0.0432
 8929W        W25113   2.971   2.544  13.011 -0.2863 -0.0777 -0.1141
 8930W        W25114  18.443   5.204   1.352  0.3207  0.1798  0.2227
 8931W        W25115   9.704  14.113   2.385 -0.4000  0.1941  0.1537
 8932W        W25116  13.022   1.491   1.705  0.0022  0.0910  0.0312
 8933W        W25117  18.447  16.089   1.181  0.3503  0.2770  0.1686
 8934W        W25118   6.584  17.131  10.735  0.1250  0.0008  0.1540
 8935W        W25119   7.658  16.843  12.271  0.2699 -0.1108  0.1007
 8936W        W25120  18.358  18.529   2.799 -0.2410  0.0074  0.0843
 8937W        W25121  12.918  11.819   0.361 -0.1439  0.0621 -0.3008
 8938W        W25122  10.061  18.916   0.270 -0.0745 -0.0938  0.1342
 8939W        W25123  14.089   2.417  11.720 -0.4451 -0.0973  0.2036
 8940W        W25124  11.611   2.576  10.340  0.0613  0.2630 -0.0541
 8941W        W25125  13.957  18.503   2.553 -0.1972  0.3945  0.2897
 8942W        W25126   4.375  10.146   1.052 -0.3651  0.2203 -0.3092
 8943W        W25127   9.368   4.620   1.724 -0.3164  0.0558  0.2935
 8944W        W25128   4.513   7.582   2.664 -0.2233 -0.1738 -0.0233
 8945W        W25129   0.346  11.138   5.062 -0.1875 -0.0489  0.0583
 8946W        W25130  17.572   2.768   2.120 -0.0860  0.1122 -0.4034
 8947W        W25131   3.144   9.718   5.197  0.3540  0.0878 -0.2894
 8948W        W25132   2.773   1.203   2.319  0.3579 -0.1055  0.0822
 8949W        W25133   6.236  18.484  12.847 -0.2494  0.1651  0.1134
 8950W        W25134   9.018   4.232  14.732  0.5374  0.2689  0.0744
 8951W        W25135  18.277  14.275   0.787  0.1739  0.1340 -0.1234
 8952W        W25136   1.998  14.176   4.455 -0.2533 -0.0475 -0.1793
 8953W        W25137  14.111  15.553   1.996  0.0975 -0.4577  0.3266
 8954W        W25138   8.333  17.552  11.782 -0.0966 -0.2066  0.0613
 8955W        W25139  11.492  15.620  14.133 -0.3328 -0.2204 -0.1613
 8956W        W25140  13.021   7.362   0.220 -0.0011  0.3074 -0.0232
 8957W        W25141   2.218  16.675  14.054  0.1872 -0.2725  0.2049
 8958W        W25142   1.014  12.712   0.850  0.0462 -0.1641 -0.3572
 8959W        W25143  16.908  18.443  11.278 -0.0636  0.0467  0.1163
 8960W        W25144   5.485   1.901   1.771  0.1247 -0.5891 -0.0554
 8961W        W25145  14.473  17.380  14.286 -0.4903 -0.2741 -0.0203
 8962W        W25146   0.654  16.906   0.175 -0.0771 -0.4765 -0.0018
 8963W        W25147   5.952   9.241  11.995 -0.0016 -0.0918 -0.1982
 8964W        W25148  16.928  10.166   1.029  0.0694  0.3476 -0.0153
 8965W        W25149  15.224  13.699  10.618 -0.0727 -0.1154  0.1024
 8966W        W25150  13.821   7.091   5.735 -0.1307 -0.0222  0.1607
 8967W        W25151   3.101   0.846  14.361 -0.0650  0.1505 -0.0455
 8968W        W25152   1.366   1.124  14.287  0.2010 -0.0137  0.2857
 8969W        W25153   2.666  18.391  14.680  0.1687 -0.3558  0.2346
 8970W        W25154   9.865   4.165  15.216 -0.1311  0.2365 -0.2256
 8971W        W25155   5.153  16.008  14.259  0.2888  0.2404  0.4618
 8972W        W25156  10.054  11.870  13.591 -0.0671 -0.1038  0.0676
 8973W        W25157   3.735  14.525   2.820  0.2342  0.2484 -0.3740
 8974W        W25158  15.191  12.428   1.453 -0.1726 -0.1405 -0.0891
 8975W        W25159  17.438   5.964   2.425 -0.1092 -0.1369  0.1209
 8976W        W25160   3.889   1.331   3.204 -0.0457  0.1610 -0.0766
 8977W        W25161   4.474   0.401  12.560 -0.0047  0.0495  0.2708
 8978W        W25162  11.995  16.238  10.775  0.1914 -0.3306 -0.0996
 8979W        W25163  16.189   9.339   3.739  0.2082  0.0690  0.1844
 8980W        W25164   2.084   8.911   4.959 -0.3334  0.0454 -0.2429
 8981W        W25165   8.380   0.893   5.421 -0.4915 -0.0826  0.0636
 8982W        W25166   8.770  11.657  12.201 -0.1450 -0.1275  0.0380
 8983W        W25167  18.522  14.884   0.303  0.1220  0.0165  0.1059
 8984W        W25168  16.116   6.018   1.330  0.3512 -0.1642  0.1089
 8985W        W25169  15.527  12.614  14.845 -0.0070 -0.0521  0.1395
 8986W        W25170  10.406  11.624   4.926 -0.3593  0.3949  0.1268
 8987W        W25171  16.413   3.541  12.841 -0.1250 -0.1401  0.2710
 8988W        W25172   5.532  17.634   3.537 -0.1404  0.2827  0.0229
 8989W        W25173  14.644   5.763   0.456  0.3738  0.0845  0.2796
 8990W        W25174  16.500   5.343   0.306 -0.3354  0.1196  0.1883
 8991W        W25175   4.472   9.295   1.563 -0.0255  0.1140  0.3995
 8992W        W25176  12.086   2.270   0.720  0.3188 -0.0207 -0.4987
 8993W        W25177   4.320   1.425   3.320 -0.0452  0.0106  0.1119
 8994W        W25178  11.575  15.843   2.996  0.0143  0.1223  0.0079
 8995W        W25179  17.338   3.605   2.259 -0.2196  0.3769  0.0218
 8996W        W25180   6.627   7.227  11.144  0.1400  0.0936  0.3676
 8997W        W25181   2.680  11.733   0.683  0.3471  0.0536 -0.2700
 8998W        W25182  17.953   0.965  13.963 -0.1731 -0.0369 -0.3967
 8999W        W25183  12.241   0.211   3.136 -0.3363 -0.1598 -0.1130
 9000W        W25184  14.026  12.558  11.620 -0.0361  0.0732 -0.0074
 9001W        W25185   7.790  10.598  11.123  0.2242  0.0081  0.1990
 9002W        W25186   8.801  15.345   0.858 -0.1641 -0.1411  0.0242
 9003W        W25187   3.084   7.731  12.526 -0.0061 -0.0566 -0.3517
 9004W        W25188  15.642  10.622   0.215  0.1530  0.2158  0.1362
 9005W        W25189  18.286  17.182  12.178  0.1021 -0.2465  0.2992
 9006W        W25190   4.357   1.397   3.761  0.1220 -0.5599 -0.0175
 9007W        W25191  14.634   8.282  14.174 -0.3147 -0.0821 -0.0010
 9008W        W25192   2.199  14.012  12.730  0.1576 -0.5785  0.2824
 9009W        W25193   0.425  12.133   4.486  0.1571 -0.4735  0.1569
 9010W        W25194  15.098   1.677   0.704 -0.2730 -0.0072  0.1120
 9011W        W25195  12.370   9.892   2.145 -0.0076  0.2089 -0.0053
 9012W        W25196  12.932   0.790  15.214 -0.0700 -0.3827  0.2051
 9013W        W25197   8.618  18.030   0.227  0.0764 -0.3125  0.3958
 9014W        W25198  10.819   4.317   1.475 -0.1968  0.0359 -0.1522
 9015W        W25199  15.644   3.924   4.001 -0.2203 -0.0080  0.2040
 9016W        W25200  15.111  16.121   3.845 -0.4131 -0.0687 -0.2357
 9017W        W25201   3.365   3.431  14.927  0.2754  0.2875  0.1600
 9018W        W25202  15.531  10.067  14.464 -0.3407  0.1242  0.2608
 9019W        W25203  12.384  12.844  15.100 -0.1665 -0.2308  0.1340
 9020W        W25204   1.313   0.449   4.255 -0.0748 -0.1063 -0.1749
 9021W        W25205  14.931   9.100  14.172 -0.1637 -0.0229  0.1402
 9022W        W25206  11.526  15.047   4.067 -0.0729 -0.0304 -0.1499
 9023W        W25207   9.243   4.628  12.132  0.1539 -0.0908  0.1094
 9024W        W25208  13.541   8.291  14.549 -0.1473  0.0027 -0.1382
 9025W        W25209   3.880  17.882   2.142 -0.0554 -0.1886 -0.1119
 9026W        W25210   3.096   9.580   3.740 -0.0743 -0.2622 -0.0896
 9027W        W25211   5.936  14.837   0.694 -0.1139  0.4332 -0.0232
 9028W        W25212   7.832  13.103   3.789 -0.4329  0.0981 -0.1418
 9029W        W25213   0.479  16.366   2.767  0.0356  0.1733  0.0891
 9030W        W25214  17.264  12.139  11.182 -0.3431  0.0660 -0.0576
 9031W        W25215   1.057  13.258   2.728  0.0176  0.1582  0.2795
 9032W        W25216   6.459  11.295   1.641 -0.1250 -0.1783 -0.0369
 9033W        W25217  18.718   0.136   4.491  0.1585  0.0097 -0.1203
 9034W        W25218   5.562  12.738   4.693 -0.1277 -0.1131  0.0686
 9035W        W25219  17.472  10.304  12.303  0.1400 -0.0532 -0.1569
 9036W        W25220  15.609  18.727   4.427 -0.0252 -0.0600 -0.1211
 9037W        W25221   5.539   4.080  11.924  0.0377 -0.1463 -0.0201
 9038W        W25222  10.838  16.504   2.499  0.0319  0.0808  0.0758
 9039W        W25223  15.663  13.892   5.203 -0.1257  0.1373  0.0108
 9040W        W25224   3.878  18.116  14.491 -0.3807  0.1388 -0.0320
 9041W        W25225   1.437   6.052   4.056 -0.0661 -0.1849  0.0781
 9042W        W25226   8.885  10.002   1.741  0.0640 -0.1387  0.0462
 9043W        W25227  12.900   4.352  13.266  0.2558 -0.0014  0.2190
 9044W        W25228   7.713  12.179  12.156 -0.1585  0.2029  0.1476
 9045W        W25229   9.333   1.228  14.700 -0.0273  0.1948  0.1885
 9046W        W25230   7.432   6.064   4.240  0.1734  0.0733  0.2048
 9047W        W25231  10.472  16.261   9.845  0.0253 -0.2552 -0.1472
 9048W        W25232   5.591   3.328  13.764  0.0052  0.2582 -0.2129
 9049W        W25233   2.664  14.195   0.786 -0.0129  0.0812  0.1693
 9050W        W25234   0.154  11.720   0.878 -0.1592 -0.0747 -0.0568
 9051W        W25235   7.308   5.492   2.899 -0.1952 -0.0427  0.3563
 9052W        W25236   0.157  17.797   3.966  0.0705 -0.2710 -0.0011
 9053W        W25237  12.891  17.208  13.789 -0.2523 -0.3231 -0.0110
 9054W        W25238  10.589  15.704  12.954 -0.0697  0.2402  0.0520
 9055W        W25239   7.530   0.043   1.013 -0.3250 -0.0421  0.1292
 9056W        W25240  13.664   2.852  11.417 -0.1144  0.2745 -0.1148
 9057W        W25241   3.381   3.401   0.862 -0.0870  0.1620 -0.3392
 9058W        W25242  17.951   8.047   1.522 -0.3106  0.0124  0.0262
 9059W        W25243   1.106   8.109  13.724 -0.1751  0.0865 -0.1661
 9060W        W25244   4.882  17.900  14.134 -0.0793  0.1614  0.1072
 9061W        W25245  16.362  18.815  15.362 -0.0712 -0.2303  0.0145
 9062W        W25246   3.193   5.870   1.900 -0.2706  0.3747  0.0275
 9063W        W25247   4.843   5.799   0.811  0.0644  0.3779  0.0972
 9064W        W25248  18.089  11.684   2.814 -0.0769  0.0122  0.0771
 9065W        W25249   3.802   7.750  11.331  0.0259  0.4032 -0.0042
 9066W        W25250   0.964   4.953   5.447  0.1122 -0.2656  0.2911
 9067W        W25251   6.219  13.924  14.498 -0.0393  0.1050  0.0386
 9068W        W25252  18.486   5.584   1.739  0.2007 -0.1440 -0.0753
 9069W        W25253   6.858   4.831   5.161  0.2001 -0.2643 -0.2398
 9070W        W25254   0.482  10.711  15.362 -0.0631  0.0515  0.1748
 9071W        W25255   9.115  12.199   4.605  0.3904 -0.2257  0.1551
 9072W        W25256   8.839   9.313   1.823 -0.3043  0.2390  0.1146
 9073W        W25257  13.442  18.095   1.850  0.3117 -0.2234  0.0993
 9074W        W25258  15.085  17.792   2.960  0.2154  0.1060 -0.0971
 9075W        W25259  14.489   2.661  12.512  0.0067 -0.0474 -0.0793
 9076W        W25260  11.535   3.650  13.725 -0.0753  0.0949 -0.0604
 9077W        W25261  17.569   4.048  13.471  0.1554 -0.2871  0.0180
 9078W        W25262   3.359  17.704  15.058 -0.0287 -0.0840  0.1515
 9079W        W25263   0.741  16.722  11.642  0.0192  0.2712 -0.0325
 9080W        W25264   3.408  10.698  11.058 -0.0837  0.0230  0.1214
 9081W        W25265   1.223   7.754   2.698  0.0141  0.7896 -0.2220
 9082W        W25266   8.701   7.557  13.054  0.1721 -0.0031  0.0170
 9083W        W25267   5.908   4.539  12.058 -0.2691 -0.2323 -0.2914
 9084W        W25268   2.975   4.347  12.374 -0.0663  0.0156 -0.3016
 9085W        W25269  13.414   6.062   1.379  0.2538 -0.0100  0.0164
 9086W        W25270   9.596  11.352   3.491  0.0430 -0.2161  0.0176
 9087W        W25271  13.021   8.160   3.236 -0.1569  0.0562  0.0122
 9088W        W25272   7.153   9.360  13.512 -0.0880 -0.2019 -0.1003
 9089W        W25273   9.171   8.716  12.437 -0.0694 -0.3621  0.2821
 9090W        W25274   0.636   3.537  10.979  0.0638 -0.0264 -0.0063
 9091W        W25275  18.870   4.333  12.699 -0.0134 -0.1771 -0.1188
 9092W        W25276   6.554   7.900   3.274 -0.2910  0.1645  0.1711
 9093W        W25277   9.433  16.303   2.158 -0.0350 -0.1666 -0.2964
 9094W        W25278   9.667  18.778  12.292  0.1134 -0.2810 -0.4157
 9095W        W25279  10.134   5.689  14.965 -0.1280  0.1469 -0.0336
 9096W        W25280  14.468  10.113  11.482  0.2102  0.0527  0.0139
 9097W        W25281  17.511  11.721  11.264 -0.0542 -0.1679 -0.2933
 9098W        W25282   9.678   4.550   2.065 -0.3826  0.0888 -0.3038
 9099W        W25283  13.534  16.316  12.493 -0.1710  0.0864  0.3163
 9100W        W25284  14.271  18.928   4.609  0.2721 -0.1167 -0.1787
 9101W        W25285  11.320   3.243  11.209  0.0084  0.0224  0.0710
 9102W        W25286  18.594  18.069   1.919 -0.1393  0.1439  0.0845
 9103W        W25287  17.627  14.573   4.737  0.1254 -0.1103 -0.2009
 9104W        W25288   1.025  14.614  11.910 -0.1041  0.2057 -0.1417
 9105W        W25289   1.255  15.794  10.391 -0.1254 -0.1012  0.1579
 9106W        W25290   5.759  17.411  15.324 -0.1349  0.4160  0.0582
 9107W        W25291  10.341   0.489  13.628 -0.1563  0.1505  0.2458
 9108W        W25292  18.194   5.256  15.225  0.3045  0.0452  0.3238
 9109W        W25293   7.423   0.097  14.235  0.2656 -0.4510 -0.2030
 9110W        W25294   3.183  11.435  12.582 -0.3685  0.1433  0.0141
 9111W        W25295   6.750  17.627  11.165  0.3017 -0.4392  0.2737
 9112W        W25296  10.387   8.735  14.502  0.2037  0.0769  0.0616
 9113W        W25297   9.126   2.804   1.692 -0.0141 -0.0299  0.1439
 9114W        W25298  10.722   7.280   1.032  0.1645  0.0449  0.2254
 9115W        W25299   2.302   6.556  11.340  0.2429 -0.0104 -0.0704
 9116W        W25300  16.630   1.234  11.221  0.0237 -0.0592  0.0210
 9117W        W25301   9.484  11.329  10.087 -0.0236  0.0712  0.0246
 9118W        W25302  13.969   1.612  13.650 -0.1460 -0.0907  0.2892
 9119W        W25303   4.839  15.243   0.700  0.0054  0.0557 -0.1357
 9120W        W25304  12.036   8.143   2.317  0.1755  0.1900 -0.2231
 9121W        W25305   2.485   1.755   3.624  0.0691 -0.1851 -0.0036
 9122W        W25306  13.935  15.471  10.796  0.4317 -0.3567 -0.3306
 9123W        W25307  15.545   5.481   0.716  0.1486  0.1418 -0.1891
 9124W        W25308   5.171   1.474   4.173  0.0395  0.1489  0.1340
 9125W        W25309   3.710   5.417  13.490  0.2687  0.0287  0.3216
 9126W        W25310  14.353  16.011   1.941 -0.1026 -0.1673  0.0511
 9127W        W25311   3.042  13.294   1.065  0.4881  0.0720  0.0703
 9128W        W25312  13.739   8.551   1.974  0.0403  0.1844  0.0534
 9129W        W25313  18.821  17.142  10.990 -0.1200 -0.0532  0.0092
 9130W        W25314  10.159  15.492  15.105  0.1620 -0.2925 -0.2366
 9131W        W25315  10.082   9.725   3.845 -0.1783  0.1483  0.0302
 9132W        W25316  13.392  14.794   3.843  0.1523  0.0015 -0.1093
 9133W        W25317  12.589  12.264   2.998  0.3258 -0.2957 -0.0582
 9134W        W25318  18.274  15.990  14.036  0.1856 -0.4724  0.1077
 9135W        W25319   2.538   7.313   1.652  0.2746  0.1221 -0.0402
 9136W        W25320   1.120  17.949  13.377 -0.5360 -0.0109 -0.1547
 9137W        W25321  12.660  16.832   3.199  0.2427  0.0461  0.2318
 9138W        W25322  12.426   5.324   4.682 -0.0812 -0.1685  0.3341
 9139W        W25323   8.009   0.308   3.144  0.2007  0.2146 -0.2942
 9140W        W25324   8.663   6.986  12.474 -0.1685  0.2279 -0.2493
 9141W        W25325   1.375  17.992  15.265  0.1273 -0.2079 -0.1278
 9142W        W25326  11.514  12.472  12.545 -0.4516  0.3404 -0.0266
 9143W        W25327  18.586  10.342   0.119  0.4679 -0.0657 -0.1309
 9144W        W25328  11.506  10.279   0.604 -0.1465 -0.2492  0.1803
 9145W        W25329   2.324  18.383  12.953 -0.1651  0.3559 -0.1483
 9146W        W25330  16.545   1.179   0.254 -0.1478  0.0943  0.0134
 9147W        W25331   9.978  11.063  13.162  0.1090 -0.1508 -0.2255
 9148W        W25332  16.455   1.666  12.819  0.2735  0.2458  0.1388
 9149W        W25333   8.348  15.348  12.462  0.2047  0.1163 -0.0073
 9150W        W25334  17.199   8.871   4.840  0.4238  0.0949  0.1123
 9151W        W25335  12.005  17.775  13.640 -0.0945  0.0743 -0.0906
 9152W        W25336  15.303  12.210  12.012  0.1970  0.1581  0.1798
 9153W        W25337  13.879   9.349  13.668  0.1243  0.0336  0.2129
 9154W        W25338  15.902  10.744  13.956 -0.2697 -0.3646  0.1034
 9155W        W25339   1.020   1.730   3.989 -0.2291  0.1581 -0.0495
 9156W        W25340   5.785   0.709  12.703  0.0256 -0.0848 -0.0560
 9157W        W25341   4.828   7.348  11.735  0.3695  0.0802 -0.1961
 9158W        W25342   0.116   9.320   4.890  0.1634 -0.0103 -0.0434
 9159W        W25343  14.105   8.380   0.890  0.0253 -0.1799 -0.0701
 9160W        W25344  15.747  17.845   2.055 -0.1479 -0.2834 -0.1199
 9161W        W25345  18.867   0.861  12.166 -0.0416 -0.0251 -0.1159
 9162W        W25346  17.163   7.578  14.043 -0.0211  0.0704 -0.1886
 9163W        W25347  18.360   3.764   1.827  0.0261 -0.5255  0.4544
 9164W        W25348   2.558  10.750   3.416  0.2214  0.0259  0.0346
 9165W        W25349   3.647  17.642  11.297 -0.0726  0.0383  0.1856
 9166W        W25350  12.143   1.602  15.229 -0.2470 -0.2352  0.0018
 9167W        W25351  12.596   4.766  13.920 -0.3647  0.0078  0.0268
 9168W        W25352   4.634  13.572   5.747  0.3538 -0.0813 -0.0144
 9169W        W25353  16.461  14.444   1.848  0.1285 -0.2863  0.0750
 9170W        W25354  16.233  13.677   2.415 -0.1658  0.1025 -0.2456
 9171W        W25355  16.598   0.764  14.321  0.3567 -0.1858 -0.4499
 9172W        W25356  15.259   2.576   0.881 -0.0692 -0.0341 -0.0625
 9173W        W25357   8.186  16.489   4.892 -0.0804 -0.0203 -0.0169
 9174W        W25358   6.988   5.982  12.923  0.3231 -0.1244  0.1120
 9175W        W25359   6.673  15.061  15.227  0.0759  0.2003 -0.0662
 9176W        W25360   3.016   1.247  10.872 -0.2268  0.0930 -0.0896
 9177W        W25361  18.129   2.703   5.455  0.0455 -0.1160 -0.3167
 9178W        W25362  11.253  12.019  10.533 -0.0461  0.5315  0.0411
 9179W        W25363  11.893  12.791   1.119 -0.0933  0.0813 -0.0730
 9180W        W25364   7.948   3.347  13.979  0.1024 -0.1014  0.0064
 9181W        W25365  18.676   0.618  11.645  0.0474 -0.1851  0.0894
 9182W        W25366   5.010   1.143   0.527 -0.1283  0.1394 -0.0977
 9183W        W25367  13.096  10.557   2.397  0.1738 -0.0131  0.2719
 9184W        W25368   7.956  11.994  13.132  0.1487  0.1919  0.2477
 9185W        W25369   1.079   0.218  14.552 -0.0361 -0.0277 -0.0602
 9186W        W25370  11.291   7.979  11.169 -0.1089 -0.0285 -0.0304
 9187W        W25371   7.955  13.040  15.341  0.2548 -0.3336 -0.0705
 9188W        W25372  14.868   0.892  13.608 -0.1355 -0.0944  0.0919
 9189W        W25373   5.636   9.055   5.213  0.1586 -0.0851 -0.0004
 9190W        W25374   9.287   9.607   3.643 -0.0975  0.0361  0.0043
 9191W        W25375  11.721  12.738   4.603 -0.1955  0.2576 -0.0770
 9192W        W25376  11.800  16.519  14.283 -0.0428 -0.1108 -0.1066
 9193W        W25377  12.764  10.170  11.893 -0.1213 -0.1874 -0.0774
 9194W        W25378  17.460   1.104  13.747  0.0908  0.0674 -0.3115
 9195W        W25379   7.672  18.628   1.977 -0.3018  0.0360 -0.2438
 9196W        W25380   5.867  15.365  14.115 -0.3380  0.1695  0.0160
 9197W        W25381  18.510   1.179   0.726 -0.0584 -0.0075  0.1141
 9198W        W25382   7.798  12.895  13.245  0.1375 -0.1661  0.1835
 9199W        W25383  15.901   5.807  12.006  0.0285  0.2059 -0.0737
 9200W        W25384   2.390   7.017  11.250 -0.0257  0.0185 -0.2422
 9201W        W25385  17.429  15.575   0.612 -0.1941 -0.0394  0.1920
 9202W        W25386   3.568   7.581   0.396 -0.2808  0.1628  0.2815
 9203W        W25387  15.090  13.216  10.404  0.1420  0.1741 -0.0675
 9204W        W25388  13.069   4.171  11.230 -0.4789  0.2564  0.0510
 9205W        W25389   0.282   7.821   3.023 -0.2483  0.1417  0.2936
 9206W        W25390   3.489   3.614   2.129 -0.0811 -0.1066  0.0857
 9207W        W25391  10.327  14.574  12.692 -0.1154 -0.0469  0.1673
 9208W        W25392   3.506   6.983  14.138  0.0626  0.0042 -0.4159
 9209W        W25393   0.651  12.882  14.618  0.0554  0.2097 -0.0237
 9210W        W25394  18.571  15.537  15.037 -0.0903  0.0321 -0.0989
 9211W        W25395   2.860  18.257   4.983  0.0419  0.2594 -0.2127
 9212W        W25396   9.504  12.506   4.691 -0.0470 -0.3233  0.1560
 9213W        W25397   5.598  11.716   5.957 -0.2648 -0.0894 -0.1608
 9214W        W25398  11.663  13.866   0.271  0.1638 -0.3009 -0.0641
 9215W        W25399   0.601   0.412  14.629 -0.0943  0.2159 -0.0286
 9216W        W25400   9.410   6.522   3.095 -0.1088  0.2030 -0.0771
 9217W        W25401  12.755   8.627   4.132 -0.4584  0.5055 -0.0644
 9218W        W25402   8.424  15.864  12.532  0.4354 -0.4174  0.1984
 9219W        W25403  15.879  15.113   1.204  0.2473 -0.3724  0.1699
 9220W        W25404  13.422   0.825  12.755  0.1354  0.0604 -0.1450
 9221W        W25405   2.777   0.415  14.466  0.0590 -0.5012 -0.1130
 9222W        W25406  17.420   7.460  15.305 -0.0122  0.2228  0.0986
 9223W        W25407   5.378  13.550  13.020 -0.0078 -0.0182  0.2315
 9224W        W25408   1.143  16.657   4.620  0.0745 -0.1353  0.3113
 9225W        W25409  14.465   5.819  11.513 -0.2320 -0.3260  0.0347
 9226W        W25410   3.239  13.189  15.137  0.0204  0.1896 -0.0976
 9227W        W25411   4.128  15.269  14.843 -0.1356  0.2097 -0.3819
 9228W        W25412  12.988  11.366   5.190  0.0625 -0.3772  0.2675
 9229W        W25413  13.720   3.787  14.813 -0.0945  0.1094  0.0104
 9230W        W25414   0.992  15.528  14.933  0.1984  0.1747  0.3158
 9231W        W25415   8.208   7.565   3.152  0.0558  0.1097  0.1819
 9232W        W25416  15.533   8.979   1.232 -0.1804  0.1382 -0.1122
 9233W        W25417  13.501  13.744  12.224 -0.3875  0.2352 -0.0369
 9234W        W25418  11.308  17.601  11.442 -0.3133  0.0945  0.0263
 9235W        W25419   1.863   1.804  13.326 -0.1709 -0.2961  0.0106
 9236W        W25420  15.843  10.864  11.806  0.0938 -0.1465  0.1807
 9237W        W25421   6.284   1.632  15.093  0.4024 -0.0117  0.2625
 9238W        W25422   3.951   4.201  13.788 -0.2156 -0.1309  0.0647
 9239W        W25423  10.971   3.385   4.606  0.0113  0.1426 -0.2038
 9240W        W25424  12.342  15.302   4.540  0.1367 -0.0871 -0.4687
 9241W        W25425   8.974  15.150  13.010  0.1243 -0.1662 -0.1130
 9242W        W25426  15.061  18.147   0.873 -0.3340  0.2453 -0.0795
 9243W        W25427  17.878  14.767   4.083  0.1581  0.4248  0.0655
 9244W        W25428  13.697  10.657   5.299  0.3264  0.1415 -0.1410
 9245W        W25429   1.900  17.006  11.726 -0.3596  0.0078  0.0499
 9246W        W25430   5.076   6.130  13.632 -0.5873 -0.1489  0.0287
 9247W        W25431   6.045   9.943   0.432 -0.2781  0.1513  0.1999
 9248W        W25432  17.128  10.503   4.512 -0.2590  0.2528 -0.0186
 9249W        W25433  16.080   9.260  13.232  0.1893  0.0378  0.1676
 9250W        W25434   1.806   8.308  12.869  0.3316 -0.1355  0.1816
 9251W        W25435   8.675   2.728  14.693 -0.1465 -0.1220 -0.0604
 9252W        W25436   7.031   7.909   1.882 -0.0032 -0.2493  0.2414
 9253W        W25437  15.675  10.370  11.836 -0.0664  0.0306  0.3677
 9254W        W25438   3.719  16.389   4.242 -0.1375 -0.0005 -0.1739
 9255W        W25439  14.308  16.536  12.937  0.2587  0.0090 -0.0437
 9256W        W25440   1.952  17.285   2.501  0.0706 -0.0784 -0.1813
 9257W        W25441   6.336  15.591  10.627 -0.0582  0.0395 -0.0730
 9258W        W25442   4.617   6.718   9.680 -0.1090 -0.0146  0.4374
 9259W        W25443  10.153  12.469  14.719  0.1631 -0.4768  0.0112
 9260W        W25444   9.855   1.223  10.343 -0.0602  0.1138  0.0049
 9261W        W25445   5.777  12.036  15.065  0.0251 -0.2552 -0.0974
 9262W        W25446  12.785   5.047  13.127 -0.4295 -0.0477 -0.0147
 9263W        W25447   5.897   9.947  14.912 -0.0979  0.0868  0.0255
 9264W        W25448  14.344  12.191  14.144 -0.0901 -0.0340  0.1506
 9265W        W25449   7.143   5.473  10.514  0.1645  0.1739  0.1872
 9266W        W25450  12.296   1.544  11.173  0.3580 -0.0501  0.2755
 9267W        W25451  12.114  15.084  14.536 -0.1479 -0.0212  0.0306
 9268W        W25452  12.437  12.136   3.594 -0.0363 -0.0602  0.2464
 9269W        W25453  13.207  11.464  14.935  0.1477 -0.1655 -0.0475
 9270W        W25454  14.587   2.480  14.800  0.0234  0.2430 -0.2552
 9271W        W25455  18.256  14.853  13.537  0.0913  0.2973 -0.3896
 9272W        W25456   0.148  17.694   4.444 -0.1957 -0.1403  0.0986
 9273W        W25457   0.937  16.184   4.564 -0.0882 -0.2503 -0.1777
 9274W        W25458   2.820  16.340   1.251  0.0025 -0.2287  0.0941
 9275W        W25459   8.702   8.994   1.444  0.1473 -0.0016 -0.1255
 9276W        W25460   8.628  17.305  14.881  0.1509  0.0121  0.0216
 9277W        W25461  12.850  13.553  13.682 -0.0100  0.2184  0.1450
 9278W        W25462   4.148  18.276   1.297  0.0011 -0.0107  0.3344
 9279W        W25463   6.986  12.850  12.213  0.1937  0.0573  0.2610
 9280W        W25464   6.802   5.415  10.868 -0.0457  0.1382  0.0057
 9281W        W25465   9.725  15.721  15.109 -0.1891 -0.4269  0.1946
 9282W        W25466  15.202   3.331  12.904 -0.0502 -0.2864 -0.0091
 9283W        W25467  13.473  13.296  11.118  0.1146  0.1077 -0.0182
 9284W        W25468   8.649  12.442   3.731 -0.0324 -0.0285 -0.0157
 9285W        W25469   9.893  16.640   2.930 -0.4261  0.4271  0.0858
 9286W        W25470   7.940  10.967   3.276  0.1993 -0.1783  0.0516
 9287W        W25471  12.171   4.324   3.908 -0.4305  0.0769  0.1663
 9288W        W25472   4.292  18.559  11.377  0.1944 -0.0299 -0.1228
 9289W        W25473   9.978  11.053   4.438 -0.1143  0.0683 -0.1116
 9290W        W25474   4.235  13.241   3.201 -0.0349 -0.1744 -0.2753
 9291W        W25475   9.344  17.320   0.467 -0.0329 -0.0478 -0.0253
 9292W        W25476   9.127  17.657   4.099 -0.1208  0.3000  0.2702
 9293W        W25477  17.422   8.271   4.199  0.0839  0.1031  0.0489
 9294W        W25478   2.477  13.218  10.944  0.1352 -0.0710 -0.0994
 9295W        W25479   9.770  15.491   2.163 -0.2128 -0.1354  0.0161
 9296W        W25480  17.708  13.813   5.299 -0.1337 -0.0496 -0.0636
 9297W        W25481   7.977  16.948  13.302  0.0813 -0.1960  0.0742
 9298W        W25482  15.100  10.587  14.924  0.3140  0.0843 -0.3332
 9299W        W25483  13.380   0.009  10.579  0.2436 -0.0633 -0.2788
 9300W        W25484   7.595  12.101  12.766  0.1729  0.0563 -0.1305
 9301W        W25485  15.273  17.803  14.261 -0.2551  0.1277  0.1167
 9302W        W25486  15.975   9.823   2.899  0.1347 -0.0372 -0.2213
 9303W        W25487  12.195   4.993  13.786 -0.0510 -0.3385  0.0109
 9304W        W25488  15.779   1.891  13.579  0.2441  0.3342  0.3927
 9305W        W25489   6.551   4.660   5.561 -0.1328  0.3359 -0.2400
 9306W        W25490  16.365   9.798   3.207 -0.1795 -0.1097  0.2056
 9307W        W25491  11.822  13.435  13.921  0.2339 -0.1466  0.3506
 9308W        W25492   2.203  15.985   3.867 -0.0947  0.0033  0.0917
 9309W        W25493  15.364   6.209  13.920  0.0715 -0.2665 -0.1192
 9310W        W25494   2.929  12.949  14.823  0.0671 -0.0472 -0.0211
 9311W        W25495   6.645  11.995  15.172  0.1158  0.0784  0.3626
 9312W        W25496   9.516   0.597  13.890  0.2551 -0.1128  0.1475
 9313W        W25497  13.741  11.458  12.567 -0.0796  0.1543  0.1921
 9314W        W25498  10.523  14.922   2.723  0.2421  0.1520  0.0341
 9315W        W25499   5.218  14.669   3.332  0.2258 -0.0595 -0.0255
 9316W        W25500   9.455  11.562   5.080 -0.3566  0.0253 -0.2659
 9317W        W25501   0.070   7.090  11.940 -0.0382 -0.1192 -0.0707
 9318W        W25502   9.815   7.499   0.742  0.1240 -0.3522 -0.3664
 9319W        W25503   4.076  16.768  13.489 -0.0874 -0.1350 -0.3952
 9320W        W25504   9.108   3.117  11.251  0.3439  0.0980  0.1546
 9321W        W25505  11.262  11.385  14.414 -0.3485 -0.0213 -0.2659
 9322W        W25506  10.596  15.031   3.946 -0.2169  0.0292  0.1683
 9323W        W25507   4.295  17.045   5.904  0.0719 -0.3212  0.1686
 9324W        W25508   6.608   0.851  12.215 -0.3244  0.1492 -0.1060
 9325W        W25509  14.683   8.447  13.635 -0.1233  0.1241 -0.1154
 9326W        W25510   3.986  18.042  14.003 -0.1851 -0.5831  0.1163
 9327W        W25511   7.352  11.023   2.304  0.0050  0.2415  0.3109
 9328W        W25512  15.112   6.514  10.729  0.1691  0.0919  0.0490
 9329W        W25513  18.379   1.004   1.295  0.1855 -0.2729 -0.0706
 9330W        W25514  13.584   9.580  14.217 -0.2498 -0.0479 -0.1651
 9331W        W25515   7.984   1.705  14.058  0.1072 -0.2642  0.1537
 9332W        W25516  12.397   6.537  14.359  0.0019  0.2082  0.0140
 9333W        W25517   7.514   8.919   0.944  0.1491  0.1729  0.2801
 9334W        W25518   5.176   6.432  14.575  0.2424 -0.1907 -0.0171
 9335W        W25519   6.252  15.060  13.174 -0.1917 -0.1478  0.0571
 9336W        W25520   4.552  13.511  14.000  0.2099 -0.1586 -0.1205
 9337W        W25521   4.766  15.414   3.684 -0.2608 -0.0108  0.4561
 9338W        W25522   1.107   6.166  15.088  0.2879  0.1695 -0.0867
 9339W        W25523  15.735  16.047   1.950 -0.2474  0.3952  0.0649
 9340W        W25524   4.482  14.677  13.216  0.2428 -0.1580  0.1358
 9341W        W25525   5.876  11.622  12.462  0.0621  0.1034 -0.3968
 9342W        W25526  15.818   0.025   3.997 -0.0435 -0.1709 -0.3877
 9343W        W25527  16.892  18.288  10.536 -0.4020 -0.1250  0.0289
 9344W        W25528  11.586  17.517   3.187 -0.2266 -0.1967 -0.1103
 9345W        W25529  11.944  13.126  13.381 -0.1018 -0.2929  0.1122
 9346W        W25530   4.511  18.465   5.705  0.4267 -0.1666  0.2722
 9347W        W25531  13.051  13.290  13.020 -0.2139 -0.1269  0.1242
 9348W        W25532  12.973  10.824   0.268  0.4241  0.0297  0.1851
 9349W        W25533  12.903   4.524  12.787 -0.1679  0.1641 -0.1392
 9350W        W25534  15.798   5.333   4.582  0.3597 -0.1247  0.1912
 9351W        W25535   2.132   7.040   3.356  0.2128 -0.1015 -0.1036
 9352W        W25536  16.929   8.694  13.154 -0.0867  0.1538 -0.0902
 9353W        W25537  18.215  14.371   5.900  0.1923 -0.0775  0.4415
 9354W        W25538   4.084   5.387   0.591 -0.0337 -0.1286 -0.2067
 9355W        W25539   7.517  11.770  13.806  0.4379 -0.0096  0.2901
 9356W        W25540   7.038   8.234  14.183 -0.1446 -0.0927 -0.4839
 9357W        W25541   8.129  14.550  13.228  0.0318 -0.0579 -0.0059
 9358W        W25542  17.099  16.004  14.323  0.0447 -0.0614  0.1535
 9359W        W25543  12.199  11.187  14.205 -0.2727  0.0162  0.0214
 9360W        W25544  18.725   5.483   2.782 -0.2373 -0.1866 -0.0400
 9361W        W25545   6.972   1.492  14.280 -0.0273  0.0874 -0.1172
 9362W        W25546   4.812   7.031   0.189 -0.1552 -0.0521  0.0115
 9363W        W25547  10.508   0.115  14.843  0.2219 -0.0060 -0.0327
 9364W        W25548   7.872  13.143   0.764  0.4116 -0.0811 -0.2039
 9365W        W25549  14.296   5.328   0.019  0.0743 -0.1683  0.1343
 9366W        W25550   8.372   2.609   0.439  0.0621 -0.0203  0.0767
 9367W        W25551   9.926   8.353   4.111  0.0808  0.1282  0.0646
 9368W        W25552  15.768  11.562   0.522 -0.1804  0.0891 -0.1514
 9369W        W25553  14.120   6.622  14.612 -0.1307 -0.0101 -0.1588
 9370W        W25554   3.244   4.146   4.277 -0.1116  0.1530  0.0124
 9371W        W25555   2.640  12.712  12.876 -0.0702  0.1081  0.1829
 9372W        W25556   4.988   6.957  15.124 -0.4412 -0.1789 -0.0539
 9373W        W25557   8.389  15.203  12.984  0.0564  0.0363  0.1591
 9374W        W25558  13.352   5.610   3.985  0.2037  0.1823  0.1838
 9375W        W25559  10.584  11.681  13.691 -0.0664  0.2391  0.2921
 9376W        W25560  15.823  11.786   5.827 -0.4113 -0.1103  0.2824
 9377W        W25561   5.539   7.384   2.756 -0.0043  0.1342 -0.0241
 9378W        W25562  11.026  11.153   4.332 -0.0453  0.1175 -0.1397
 9379W        W25563   8.610   0.060  12.424 -0.3173  0.1759 -0.0007
 9380W        W25564   8.773   6.571   4.701 -0.1129  0.1945  0.2895
 9381W        W25565  18.010  18.593  13.378 -0.2124  0.0391 -0.3410
 9382W        W25566   7.345   3.697   1.263 -0.0234  0.1133 -0.3809
 9383W        W25567   2.357   4.901   2.314 -0.2943 -0.0489 -0.0170
 9384W        W25568  13.999  12.336  10.813  0.1701 -0.1327  0.2845
 9385W        W25569  14.841   2.217  13.264 -0.0656  0.0888 -0.1607
 9386W        W25570  11.096  10.044   2.206  0.0401  0.4012 -0.0928
 9387W        W25571  17.690  13.268  14.855  0.0603 -0.0769 -0.0850
 9388W        W25572   7.658   0.109   2.359  0.2212 -0.2251  0.1908
 9389W        W25573   7.648  14.171  12.871 -0.1010  0.0058 -0.1006
 9390W        W25574   1.497   9.898  14.064  0.2597  0.0086 -0.3477
 9391W        W25575   9.157   2.698  14.884 -0.1603 -0.3415 -0.2717
 9392W        W25576   4.364   3.724  15.138 -0.2096  0.0722 -0.1155
 9393W        W25577  16.573   0.157  10.532 -0.0481 -0.1964 -0.3309
 9394W        W25578   5.028   8.825   2.241  0.1774 -0.1869  0.4939
 9395W        W25579   0.134  10.424  11.486 -0.1891 -0.1935 -0.2439
 9396W        W25580   5.967  18.121   2.440 -0.3689  0.4191 -0.1566
 9397W        W25581  11.108   6.863  13.462 -0.1045  0.2426  0.0016
 9398W        W25582  15.356   7.137  13.277  0.0570  0.0854 -0.0182
 9399W        W25583   2.858   4.569   0.037 -0.4658 -0.1311 -0.1995
 9400W        W25584   6.295  12.632   2.576  0.1413  0.0085 -0.0339
 9401W        W25585   6.480   3.846   9.701 -0.3204  0.0548  0.1996
 9402W        W25586   1.349  10.958   0.868  0.0181  0.1065 -0.0558
 9403W        W25587   5.845   5.913  12.900  0.1193 -0.1568  0.0458
 9404W        W25588  15.970   5.330   5.745 -0.0628 -0.2294 -0.0572
 9405W        W25589   9.434  15.371  14.060 -0.1251  0.2762  0.0633
 9406W        W25590  10.619  13.409   2.786  0.0360  0.1907 -0.2678
 9407W        W25591  13.658  18.969  14.591  0.0101 -0.0323  0.0733
 9408W        W25592  14.686   7.271   1.328 -0.0981 -0.0630  0.2831
 9409W        W25593  12.632  10.785  10.890 -0.1143 -0.3369  0.0638
 9410W        W25594  14.675   7.830   0.471  0.0915 -0.1701  0.1134
 9411W        W25595   7.684  14.984  14.354  0.1926  0.1147  0.0759
 9412W        W25596  18.301  10.357   3.769  0.2824 -0.2394  0.0238
 9413W        W25597  15.378  18.735  14.505 -0.0435 -0.1468  0.1294
 9414W        W25598   1.748  18.293  14.113 -0.3154  0.0149 -0.0364
 9415W        W25599   0.715   7.189   1.724 -0.1781 -0.4286  0.3359
 9416W        W25600   5.210  16.371   2.874 -0.2346 -0.3016 -0.1675
 9417W        W25601  12.050   9.805   2.963  0.0337 -0.1560  0.2619
 9418W        W25602   3.822  16.213  11.952  0.2386  0.0955  0.1960
 9419W        W25603   7.817  13.529   1.292 -0.1478  0.0195 -0.0675
 9420W        W25604  16.832  17.386  10.643 -0.0863  0.1197 -0.0043
 9421W        W25605  15.971   3.770  12.591 -0.0042  0.2533  0.4893
 9422W        W25606   3.525   6.038  11.528  0.0515 -0.2658 -0.1622
 9423W        W25607  17.588  11.271  12.618  0.1130  0.1247  0.0540
 9424W        W25608  13.636   4.259   4.976 -0.0660  0.0191 -0.1220
 9425W        W25609   8.354  10.021  13.164 -0.2462 -0.0991  0.0487
 9426W        W25610   3.698   3.175   9.880  0.2201  0.0150 -0.0819
 9427W        W25611  17.441   4.703  14.479  0.0476 -0.1851  0.0031
 9428W        W25612  17.282  10.156   2.783 -0.2691 -0.0260 -0.1394
 9429W        W25613   7.386  18.116  10.673  0.2533 -0.1037  0.1798
 9430W        W25614   1.428  11.352   1.240  0.0017  0.2992 -0.2137
 9431W        W25615   8.156  10.204  13.843  0.1949  0.1074  0.0824
 9432W        W25616   1.286  12.284   1.563  0.1212  0.3091  0.3874
 9433W        W25617   0.816   6.714  13.537 -0.1549 -0.2923 -0.4301
 9434W        W25618  18.224  13.103   0.283 -0.1435  0.0999 -0.0844
 9435W        W25619  14.008   7.694   3.626 -0.1785 -0.1350  0.1654
 9436W        W25620   4.051  13.820  12.702 -0.1336 -0.1540  0.0865
 9437W        W25621  14.609   9.640   2.391  0.2134 -0.1977 -0.2416
 9438W        W25622   0.485   2.389   2.072 -0.2045 -0.0787  0.0307
 9439W        W25623   5.640   8.161  13.805  0.1029 -0.0138 -0.1973
 9440W        W25624   2.689   2.091   2.445 -0.0041  0.2247 -0.0764
 9441W        W25625  17.849   9.531   0.212 -0.0795 -0.2006 -0.0594
 9442W        W25626  12.171  18.142   0.835  0.1695 -0.5267  0.5576
 9443W        W25627  17.853  18.185   3.734  0.1377  0.1295  0.1310
 9444W        W25628   1.548  13.040   2.584  0.2173 -0.1072  0.2919
 9445W        W25629   3.031   6.652  15.077 -0.1122  0.0680 -0.1194
 9446W        W25630   3.003   3.833   3.791 -0.1096  0.3026 -0.0351
 9447W        W25631   1.507   2.311  12.736 -0.2750 -0.1532  0.0135
 9448W        W25632   5.635  12.977   3.172 -0.1241 -0.0409  0.0627
 9449W        W25633  16.443   2.281  14.267 -0.2147 -0.0725  0.1163
 9450W        W25634   7.563  16.935  13.784  0.2710 -0.0010 -0.1468
 9451W        W25635  12.845   9.382   1.664 -0.3578  0.2617  0.1319
 9452W        W25636  13.800  16.335  11.890  0.1445 -0.1906  0.0918
 9453W        W25637  14.044   2.937  12.364  0.4900 -0.2611  0.1681
 9454W        W25638   3.110   1.354   5.071 -0.0079 -0.1669  0.1761
 9455W        W25639  15.740   2.398   0.378  0.0051 -0.0556  0.3672
 9456W        W25640  11.710   2.314  12.751  0.1466 -0.0934  0.1742
 9457W        W25641   7.505  15.135   2.407 -0.0364 -0.0030  0.3220
 9458W        W25642   6.314   7.123  14.188  0.0899 -0.0177  0.1784
 9459W        W25643   8.969   9.014  14.126 -0.1294 -0.1565  0.0936
 9460W        W25644  12.168   9.136  14.694 -0.1419 -0.2444 -0.1045
 9461W        W25645  11.660   4.186   3.048  0.0797  0.0366 -0.0512
 9462W        W25646  17.415  10.324  12.874  0.3611  0.1097 -0.0608
 9463W        W25647   4.385  14.318  13.550 -0.1603 -0.0372  0.3996
 9464W        W25648  13.640   2.020   3.041 -0.1520  0.0865  0.0860
 9465W        W25649  12.407   2.952  10.721  0.3597 -0.1698  0.0672
 9466W        W25650  15.913  12.197   4.022  0.0350 -0.1925 -0.1678
 9467W        W25651  16.278  16.113  13.544  0.0832 -0.2703  0.2293
 9468W        W25652  17.592  14.031   3.447 -0.0279  0.1468 -0.6069
 9469W        W25653  16.331  14.379   4.367 -0.2267  0.0537 -0.1405
 9470W        W25654   8.019   2.113   3.839 -0.0640  0.1233 -0.0161
 9471W        W25655   8.202  17.658   4.565 -0.0691 -0.3264  0.1242
 9472W        W25656  10.067   0.465   0.102  0.0456 -0.3723  0.2696
 9473W        W25657  13.188  16.593   0.310  0.2546  0.0866 -0.1633
 9474W        W25658   3.971   7.430   4.235 -0.0121 -0.1487 -0.2396
 9475W        W25659  10.601   0.637   3.583 -0.0777  0.1590 -0.1023
 9476W        W25660   6.743  16.383  13.333 -0.0988 -0.1429  0.1507
 9477W        W25661   8.969   7.114   4.838 -0.0341  0.3465  0.4020
 9478W        W25662  11.201   9.665   2.516  0.1851 -0.0063  0.1397
 9479W        W25663  16.994  16.445  15.054  0.1427 -0.0069  0.1718
 9480W        W25664  16.406  13.507  12.648 -0.2930  0.0797  0.0584
 9481W        W25665  11.376   4.170   3.854 -0.1920 -0.0551 -0.1183
 9482W        W25666   2.842  10.429   1.601 -0.0473 -0.1501  0.0107
 9483W        W25667  11.133   7.010   1.911  0.3226  0.0204  0.1694
 9484W        W25668   0.124   6.572  14.156 -0.0273  0.1330  0.0092
 9485W        W25669   0.306  16.895  11.438 -0.1757 -0.1840  0.0492
 9486W        W25670   9.978   8.348   0.547 -0.3375 -0.1035  0.0032
 9487W        W25671  15.407  13.876  15.270  0.0406  0.1708  0.3245
 9488W        W25672  18.086  14.370   4.413  0.0397 -0.2457  0.1964
 9489W        W25673   2.872  18.354   1.439  0.0932 -0.2137 -0.2868
 9490W        W25674   6.577  18.471   3.990 -0.3010  0.2770  0.0826
 9491W        W25675   8.522   3.123   4.158 -0.2301  0.0066 -0.1718
 9492W        W25676   2.990   4.807  14.952 -0.2518  0.1072 -0.0993
 9493W        W25677   6.454  11.006   4.042  0.0489 -0.0618  0.4752
 9494W        W25678   1.685  15.834  14.181  0.0624 -0.0003 -0.1020
 9495W        W25679   0.833   8.621   1.964  0.1043  0.0874 -0.0846
 9496W        W25680  16.448  15.299  12.458  0.1261 -0.0558 -0.2120
 9497W        W25681   6.295  18.366  11.162 -0.1923 -0.3945  0.3565
 9498W        W25682  12.858   8.551  14.818  0.1259 -0.0070 -0.0735
 9499W        W25683   8.140  15.891  13.908  0.0523 -0.0752 -0.0886
 9500W        W25684   6.210  14.745  13.854 -0.1562 -0.2556 -0.0015
 9501W        W25685  13.313  11.222  12.667  0.0841 -0.4295  0.0602
 9502W        W25686  18.144  12.984  12.652 -0.0048 -0.0503  0.4151
 9503W        W25687  14.089   0.555   2.881 -0.0716  0.2022 -0.2407
 9504W        W25688   9.386  15.037   2.684  0.0520  0.3458  0.0455
 9505W        W25689   7.654   0.416   5.870 -0.3527  0.0929  0.0232
 9506W        W25690   9.818   9.713  10.737 -0.2954  0.1348 -0.1788
 9507W        W25691   6.920  17.326   3.022  0.0772  0.1549  0.0225
 9508W        W25692   3.666   5.056   0.985 -0.2239  0.0819 -0.0413
 9509W        W25693   3.154  10.927  12.550 -0.1881 -0.1974  0.2251
 9510W        W25694  14.901  11.506   4.476  0.2574 -0.3704  0.0642
 9511W        W25695   0.602   4.445   2.409  0.0218 -0.1390 -0.1601
 9512W        W25696   4.052   7.416   0.535  0.0310 -0.0067  0.2395
 9513W        W25697   4.112  13.494   0.316  0.2030  0.0546 -0.0386
 9514W        W25698   1.916  13.449  11.076 -0.2918 -0.1778 -0.0689
 9515W        W25699  10.284  18.460   1.147  0.0312  0.1910  0.2120
 9516W        W25700   7.424  11.358   2.886 -0.2556  0.1417 -0.2223
 9517W        W25701   0.316  18.789  10.776 -0.0584  0.0653  0.0905
 9518W        W25702   8.483  14.459   0.471  0.1627 -0.0261 -0.3447
 9519W        W25703  12.974   3.235   0.400  0.1434 -0.1054  0.0560
 9520W        W25704   7.931   1.159  14.851  0.1546  0.1992 -0.1022
 9521W        W25705  17.344  12.921  14.434  0.0998 -0.2918 -0.1735
 9522W        W25706   3.742  17.447   2.405  0.0651 -0.0654  0.1664
 9523W        W25707   6.560   6.859   3.381  0.2265  0.0046  0.1926
 9524W        W25708  14.460  13.127  12.595  0.0117 -0.1785  0.0154
 9525W        W25709   6.036   2.625  14.333  0.2420 -0.0272 -0.0684
 9526W        W25710   1.463  15.329   0.998 -0.0131 -0.0873  0.1277
 9527W        W25711  14.696  13.871   1.679  0.2766 -0.0483 -0.1431
 9528W        W25712   0.005  10.534  15.130  0.0476  0.0463  0.0944
 9529W        W25713  16.467  15.978  14.387  0.0712 -0.2416  0.0352
 9530W        W25714  11.907   4.620  11.630 -0.0019 -0.2490 -0.0974
 9531W        W25715  15.282   0.847  13.244  0.1473  0.0535 -0.2478
 9532W        W25716   1.168   1.187   4.819  0.0247 -0.2716  0.0536
 9533W        W25717   9.067   3.316   1.636 -0.3709 -0.2404 -0.1255
 9534W        W25718  16.355   2.154   1.186  0.0883 -0.0820  0.0178
 9535W        W25719   1.211   6.396   0.139  0.2112  0.0849  0.2196
 9536W        W25720  16.898   1.672   4.640  0.1077 -0.0240  0.2275
 9537W        W25721  13.390   9.556   4.668  0.2409  0.2920  0.1706
 9538W        W25722  12.746  14.617  14.223 -0.6504  0.1255 -0.0468
 9539W        W25723  12.921   8.898   1.508  0.0967 -0.2756 -0.0916
 9540W        W25724   9.379  11.046  13.245  0.1417 -0.4408  0.0633
 9541W        W25725  15.954   6.057  13.302  0.0158  0.0367  0.2387
 9542W        W25726  10.103  12.614   2.160 -0.1373 -0.0327  0.1532
 9543W        W25727   0.323  13.355   5.391 -0.0374 -0.0143 -0.1350
 9544W        W25728  12.181   6.724  11.682 -0.0822 -0.2555 -0.1432
 9545W        W25729  18.200   8.217  12.666  0.2036 -0.2202  0.0508
 9546W        W25730   3.982  17.526  11.710  0.3099 -0.0160  0.0140
 9547W        W25731  10.516   4.684  10.251 -0.2937 -0.0685 -0.0228
 9548W        W25732  10.661   9.815  14.569  0.0480  0.1398 -0.0522
 9549W        W25733   1.898  15.734  14.668  0.0083  0.1693  0.2394
 9550W        W25734  15.470   0.028  11.472  0.1488  0.0157 -0.1055
 9551W        W25735  11.385  10.315  14.609 -0.2936 -0.0563  0.0668
 9552W        W25736   7.828   8.886   9.664  0.0811  0.0476 -0.1509
 9553W        W25737   9.977   4.030  12.713 -0.0074 -0.2546  0.2689
 9554W        W25738  13.125   0.441  14.138 -0.0931 -0.1052 -0.0212
 9555W        W25739   0.663   4.676   4.504 -0.1618  0.2311  0.3711
 9556W        W25740   7.444  14.297  13.740 -0.1326  0.1990 -0.1223
 9557W        W25741  16.913   5.063  12.873 -0.0244 -0.2474  0.1860
 9558W        W25742   9.649  17.019  11.621  0.1269 -0.1011  0.0868
 9559W        W25743   9.186   4.303  12.500  0.4178 -0.0910 -0.1478
 9560W        W25744   7.817  11.109   0.338 -0.0182 -0.0806 -0.3463
 9561W        W25745   4.520   4.205   3.070 -0.1154 -0.2993  0.1741
 9562W        W25746  16.350  14.992  11.778 -0.1485  0.0645 -0.2099
 9563W        W25747   0.240   4.775  15.052  0.0912 -0.3577 -0.2020
 9564W        W25748   6.702  10.278  13.690 -0.1174  0.0066  0.1611
 9565W        W25749  14.882   0.322   0.921 -0.1401  0.0631 -0.0421
 9566W        W25750   5.096  17.736  11.463 -0.2081 -0.2273 -0.5769
 9567W        W25751  17.942  18.408  14.714 -0.0648  0.1400  0.1325
 9568W        W25752  16.388  11.351   4.390 -0.1228 -0.2913 -0.2251
 9569W        W25753  14.774   6.016  13.745 -0.1492  0.3270 -0.0142
 9570W        W25754   4.690  12.081  12.116 -0.0569  0.4788 -0.0617
 9571W        W25755   7.801  14.726  10.014 -0.2348 -0.0227 -0.0317
 9572W        W25756   2.143  12.367   1.910 -0.0202 -0.2247  0.1739
 9573W        W25757  13.607  10.622  13.217 -0.0471  0.1812 -0.1959
 9574W        W25758   6.790  13.100   4.173  0.0035  0.1726  0.2648
 9575W        W25759   5.622  11.936  11.762  0.4481  0.0147  0.1577
 9576W        W25760  17.248  14.589  11.422  0.0093  0.0028  0.1739
 9577W        W25761  10.617  13.644  10.647  0.2950  0.0089  0.2548
 9578W        W25762  17.425   2.542   2.562 -0.0308  0.0963  0.0642
 9579W        W25763   9.242  12.856  12.963  0.5024 -0.0417  0.0125
 9580W        W25764  15.481  18.037   0.636 -0.1221  0.2789  0.0561
 9581W        W25765  12.867   7.458  13.454  0.1000  0.0390  0.0175
 9582W        W25766   6.311   0.168  13.271  0.0041  0.5448 -0.0036
 9583W        W25767   7.232  14.357   3.313 -0.5830  0.0083 -0.0613
 9584W        W25768   4.568   0.520  12.026 -0.0595 -0.1500  0.1362
 9585W        W25769   6.975  11.734   0.109  0.1720 -0.0803  0.1215
 9586W        W25770   7.511   9.035  14.812  0.2589 -0.1369  0.1405
 9587W        W25771   6.255   7.587  13.236 -0.0078  0.1078 -0.1704
 9588W        W25772  17.840   2.603  11.922 -0.0604  0.2629  0.2594
 9589W        W25773  18.917   0.276  15.150 -0.2832 -0.3050  0.0952
 9590W        W25774  14.569   2.157   2.949  0.0894 -0.2038  0.3249
 9591W        W25775   5.582  18.543  11.860 -0.1228 -0.0213  0.0799
 9592W        W25776  16.843   2.009   2.196 -0.0387 -0.1893  0.2385
 9593W        W25777   4.281   7.159   1.431  0.0362 -0.0001  0.4263
 9594W        W25778  10.977   9.621   4.369 -0.0376 -0.2255 -0.0958
 9595W        W25779  15.046   2.417   4.882 -0.0519 -0.2035 -0.0106
 9596W        W25780   6.365  10.821  11.367 -0.2170 -0.1796  0.2236
 9597W        W25781   1.874   1.384   2.408  0.0672 -0.0874  0.5541
 9598W        W25782  12.037  15.199   0.777 -0.3561 -0.0492  0.2347
 9599W        W25783  14.333  14.538   2.956 -0.1391  0.0400 -0.0839
 9600W        W25784  12.941  15.163  13.059  0.1108  0.0137  0.0231
 9601W        W25785   6.285   4.019   1.885 -0.2888 -0.1271  0.0883
 9602W        W25786   6.633  15.957   1.582  0.1224 -0.1901 -0.0038
 9603W        W25787   3.317  10.024   1.270  0.2315  0.1290 -0.1966
 9604W        W25788   3.769   7.882  11.783 -0.0793 -0.3284 -0.1319
 9605W        W25789  14.868  16.732   5.371  0.0718 -0.0068 -0.0092
 9606W        W25790  17.275   3.207  10.679  0.0924  0.2672  0.0857
 9607W        W25791   0.939   0.233  11.850 -0.3615  0.0608 -0.0004
 9608W        W25792  14.234  17.912   4.868 -0.3172 -0.1911 -0.1826
 9609W        W25793  16.439  13.693  10.635  0.0837  0.1248 -0.2602
 9610W        W25794  17.252   9.800   9.910  0.0740 -0.2009 -0.0494
 9611W        W25795  12.904   5.339  12.118 -0.1610 -0.1883 -0.0526
 9612W        W25796  14.259  10.729  11.065 -0.1929 -0.0198  0.0858
 9613W        W25797   7.415   6.953   1.793  0.0001 -0.2849 -0.0107
 9614W        W25798   9.847   8.731   4.494  0.0552 -0.3088  0.1150
 9615W        W25799  15.485  15.637   3.041 -0.3777  0.1292 -0.2427
 9616W        W25800  10.580  14.049  11.011  0.1627  0.0743  0.3695
 9617W        W25801  18.505  15.810   0.123 -0.0179 -0.4152 -0.4018
 9618W        W25802   0.422   4.655   1.671  0.1243 -0.1224  0.1569
 9619W        W25803  10.364   3.970  15.328  0.1487 -0.0618 -0.0214
 9620W        W25804   5.351   7.249  14.138 -0.3402  0.2752  0.3660
 9621W        W25805  16.689  17.124   3.927  0.0447 -0.0116 -0.1643
 9622W        W25806  15.033  15.835   2.990  0.1443  0.0382  0.2842
 9623W        W25807  10.637  13.517  11.187 -0.2607 -0.0410 -0.0332
 9624W        W25808   0.922  16.927  15.130  0.2197 -0.0623  0.4533
 9625W        W25809   5.584   2.721   4.364 -0.2128  0.0706  0.1568
 9626W        W25810   3.431   3.190   0.417  0.2437  0.0626 -0.2543
 9627W        W25811  16.903   2.168   1.654  0.1782 -0.2846  0.1705
 9628W        W25812  14.583   6.209   0.172  0.0103  0.2792  0.1742
 9629W        W25813  14.353  12.906  13.318 -0.0147  0.4206  0.0633
 9630W        W25814  15.885  15.806   2.780 -0.0431  0.1479  0.0033
 9631W        W25815  12.316   0.275  15.283  0.5888  0.0640 -0.1587
 9632W        W25816   5.497   4.357  10.839 -0.1024 -0.0369  0.1692
 9633W        W25817   2.860   0.419  11.026  0.4365 -0.0668 -0.3429
 9634W        W25818  14.347   0.626   3.435  0.1161 -0.3447 -0.0064
 9635W        W25819  16.457  13.402   5.371  0.2216  0.0533 -0.2766
 9636W        W25820   5.383   0.412   5.692 -0.2036 -0.1040 -0.0338
 9637W        W25821  14.987   2.442   2.557 -0.1249 -0.1778  0.0812
 9638W        W25822   0.710   1.127   2.729  0.1129  0.0889  0.0260
 9639W        W25823   0.206  12.831   1.695  0.0111  0.1207 -0.0937
 9640W        W25824   1.919  10.767   4.227 -0.0340  0.1624  0.2823
 9641W        W25825  16.694  12.824   2.715 -0.0166  0.1680 -0.3115
 9642W        W25826   0.023  16.160  13.488 -0.1335  0.1158 -0.0538
 9643W        W25827   2.067  18.782  13.162  0.1247 -0.0052 -0.2992
 9644W        W25828   6.875  18.969  10.840 -0.0645  0.1288  0.1766
 9645W        W25829   5.292  12.963  13.302 -0.3001 -0.1930 -0.2887
 9646W        W25830   0.136  15.577   1.711  0.1970  0.0268 -0.1248
 9647W        W25831   3.840   6.780   5.115  0.1485  0.0796 -0.0984
 9648W        W25832   7.193   4.423  11.399 -0.2853  0.1929  0.5292
 9649W        W25833   1.189  12.761  14.591 -0.2934 -0.1819 -0.1663
 9650W        W25834  14.450  13.017  15.109  0.1255 -0.1038  0.1157
 9651W        W25835   5.202   2.525   4.031  0.4807  0.2283 -0.1221
 9652W        W25836   6.365  18.506  12.149  0.1525  0.3261 -0.2554
 9653W        W25837   5.709   2.112  14.991  0.2475  0.2215 -0.1988
 9654W        W25838  12.587  16.414   0.157 -0.0533  0.2353  0.0207
 9655W        W25839  15.074  11.769  14.761 -0.0031 -0.1811 -0.2395
 9656W        W25840   9.516   1.583   2.893  0.0468 -0.0754 -0.1673
 9657W        W25841  18.447  18.539  14.910 -0.3005  0.0822  0.2382
 9658W        W25842   1.424   3.410   5.295 -0.1417 -0.2742 -0.1594
 9659W        W25843  14.709  16.473  15.334 -0.1348 -0.0388 -0.0481
 9660W        W25844   4.148  12.700  14.073  0.0976 -0.0961 -0.0846
 9661W        W25845  10.792   4.429  12.166 -0.2068 -0.0836  0.0526
 9662W        W25846  16.110   5.880  12.621  0.1895 -0.3246 -0.1012
 9663W        W25847   3.613   2.162  12.637 -0.0686  0.0771 -0.1255
 9664W        W25848   6.409   4.393  13.550 -0.0751  0.0884 -0.2470
 9665W        W25849  11.960  12.739   6.000 -0.2943 -0.1114 -0.0477
 9666W        W25850   7.089   4.597   2.833 -0.1834 -0.0824  0.1001
 9667W        W25851  17.388  17.438   0.086 -0.0017 -0.0853  0.0206
 9668W        W25852  15.707   1.760   4.394  0.1028  0.0258  0.1295
 9669W        W25853   0.130  16.047   2.454  0.1331 -0.0527  0.0152
 9670W        W25854   6.868   4.291  11.017  0.2831  0.3026 -0.1249
 9671W        W25855   8.132   8.867   5.975  0.1781  0.0228  0.0107
 9672W        W25856   5.053   3.198   2.326 -0.1864 -0.1106 -0.0138
 9673W        W25857   7.027   8.942  13.970 -0.1680  0.2610 -0.0813
 9674W        W25858  18.113  15.296   4.742 -0.1256 -0.2156 -0.2746
 9675W        W25859  18.950   5.112   3.605 -0.1570  0.5068  0.1271
 9676W        W25860   9.921   1.357  11.164 -0.3705  0.3583 -0.2081
 9677W        W25861   2.771  13.089   0.060 -0.2566  0.1288  0.1520
 9678W        W25862  13.853   0.014   2.335 -0.0172 -0.1041  0.0267
 9679W        W25863   6.163  10.325   4.648  0.2808  0.1791 -0.1974
 9680W        W25864   5.954   1.137   2.117 -0.0643  0.0430 -0.0943
 9681W        W25865   1.569  14.066   1.423  0.1139  0.2025  0.0550
 9682W        W25866   1.003   3.465   1.324 -0.0211 -0.0793  0.2329
 9683W        W25867  14.956   6.727   4.173 -0.1389 -0.4369 -0.2297
 9684W        W25868  16.520  18.388  12.199  0.0949 -0.5087  0.1044
 9685W        W25869  17.907   5.439  14.732  0.1451 -0.1297 -0.3410
 9686W        W25870   8.372  12.114   0.962 -0.1163  0.0027 -0.1829
 9687W        W25871  16.757  18.036   1.582 -0.2822  0.3633 -0.0212
 9688W        W25872  12.360  11.473   3.499 -0.1210  0.0854  0.0368
 9689W        W25873   4.426   2.061  12.575 -0.2565  0.2009  0.0514
 9690W        W25874  14.251   9.676   5.553 -0.0754 -0.0508 -0.0300
 9691W        W25875   7.109   1.916   9.892 -0.2493  0.0245 -0.0621
 9692W        W25876   5.443  11.051   3.133  0.3724  0.1848 -0.1443
 9693W        W25877   8.816  14.089  10.571  0.2331 -0.0562 -0.1098
 9694W        W25878   9.376   9.184  13.161 -0.0944  0.0960 -0.0325
 9695W        W25879  18.287   0.568   2.447  0.1764  0.0248  0.1349
 9696W        W25880  16.402   2.940  14.814 -0.0959 -0.3022 -0.2623
 9697W        W25881   1.033  15.554   3.799  0.2975  0.1931  0.1721
 9698W        W25882  14.280  17.710  10.797 -0.3274  0.1920 -0.0317
 9699W        W25883   0.404   1.245   5.640 -0.0753  0.1025 -0.0495
 9700W        W25884  13.481   0.160   0.881 -0.0550 -0.3038 -0.3152
 9701W        W25885  11.029  12.407   0.927  0.0715 -0.0491 -0.1776
 9702W        W25886  18.851   4.992   5.622 -0.0297 -0.1404  0.2271
 9703W        W25887  17.373   2.182  12.012  0.0840 -0.4568 -0.0877
 9704W        W25888  16.473   2.940   3.573  0.0910  0.0583 -0.0857
 9705W        W25889   9.104   9.542  11.663  0.4790  0.5116  0.0889
 9706W        W25890  12.388  10.568   3.041  0.0816  0.0556 -0.1930
 9707W        W25891   5.935   0.279  14.126  0.1771  0.0349  0.5621
 9708W        W25892   0.145  17.383  14.144 -0.0717 -0.4596  0.1475
 9709W        W25893  11.406   6.777   2.648  0.1176 -0.0092 -0.0735
 9710W        W25894   6.197   7.406   5.930  0.2275 -0.2326  0.0444
 9711W        W25895  13.347  15.718   1.633 -0.2392 -0.2427 -0.2439
 9712W        W25896  17.606   2.824  10.526 -0.0890  0.1636  0.2617
 9713W        W25897  12.731  14.676   0.264  0.1946  0.0476 -0.2808
 9714W        W25898  15.628   8.808  13.325  0.0788  0.0959  0.1069
 9715W        W25899  13.634   2.532  13.099  0.2193  0.1095  0.0720
 9716W        W25900  13.121  18.876   0.085  0.2586  0.0658 -0.0175
 9717W        W25901  10.140  11.010  11.024  0.2042  0.0970  0.3174
 9718W        W25902   8.953  16.523  15.361 -0.0825 -0.2905  0.2144
 9719W        W25903   3.463  12.810   2.698  0.1200 -0.1450 -0.0742
 9720W        W25904  15.321  10.367   2.599 -0.1749 -0.1786  0.3223
 9721W        W25905   8.874   4.772   1.618  0.0008  0.2877 -0.1622
 9722W        W25906   7.759  14.025  12.305 -0.1691 -0.1597  0.0551
 9723W        W25907   8.119  11.649   1.128  0.1506 -0.0085 -0.4276
 9724W        W25908  10.745   1.217   9.701  0.2107  0.3263  0.0758
 9725W        W25909  10.174   4.465  12.998  0.2162  0.1427 -0.1587
 9726W        W25910   8.945   5.214  12.412 -0.0389 -0.1322 -0.0907
 9727W        W25911   8.135   6.413   1.437  0.1043  0.3084  0.1255
 9728W        W25912  11.253   1.603   3.509  0.0615  0.2469  0.4002
 9729W        W25913  12.886   1.938   3.510 -0.0023  0.0840 -0.2337
 9730W        W25914   4.267  17.969   3.653  0.1073  0.1474  0.1375
 9731W        W25915   1.637  16.378  14.639  0.0849  0.1251 -0.1613
 9732W        W25916   9.888   6.195   2.217  0.0382  0.2521  0.2769
 9733W        W25917   2.073   7.220  11.662 -0.0087  0.0312  0.0228
 9734W        W25918  12.854  12.056  11.981  0.1322 -0.0098  0.0644
 9735W        W25919  12.013  18.226   2.406  0.0910 -0.2342 -0.2578
 9736W        W25920   8.467   2.325  14.874 -0.0986 -0.0418 -0.1212
 9737W        W25921   6.016   1.516  10.665  0.4699  0.1324 -0.0691
 9738W        W25922   9.950  12.302   1.831 -0.1828  0.2615  0.5021
 9739W        W25923   7.011  11.036  13.500 -0.2773 -0.0749  0.1237
 9740W        W25924   1.114   0.033  10.567  0.1098  0.2219  0.1079
 9741W        W25925   2.225  18.019   3.364 -0.6931  0.3063 -0.0379
 9742W        W25926   9.948   9.920  11.263  0.1434 -0.1690  0.4518
 9743W        W25927  11.033  10.377   0.930  0.0820  0.1743  0.1283
 9744W        W25928  11.883  10.830  10.731 -0.1096  0.3934 -0.0042
 9745W        W25929   4.594   7.058  12.276 -0.1717 -0.0924 -0.0034
 9746W        W25930   0.103   5.098  14.630  0.4641 -0.0172 -0.0351
 9747W        W25931   5.117   3.995  10.926 -0.2359  0.3238  0.0269
 9748W        W25932   2.910   6.323  14.144  0.1023 -0.1192  0.0384
 9749W        W25933  12.351  16.890   0.202 -0.0737  0.1111  0.0206
 9750W        W25934   4.762  11.523   1.043 -0.1973  0.1601 -0.2306
 9751W        W25935   5.404  12.207  14.349 -0.4429  0.2944  0.0332
 9752W        W25936   0.883   2.133   2.833 -0.0388 -0.1454 -0.1250
 9753W        W25937   9.724   1.457   0.084 -0.0970 -0.0374  0.4784
 9754W        W25938  18.291  15.289  10.786 -0.1187  0.2379  0.1694
 9755W        W25939  15.155   1.630   2.056 -0.1852  0.3091 -0.0320
 9756W        W25940   8.405  14.545   1.030 -0.5170 -0.1216  0.0464
 9757W        W25941  10.306  18.566   0.658 -0.1254  0.1137 -0.1153
 9758W        W25942  14.841  13.569  12.960 -0.0768  0.1575  0.1783
 9759W        W25943   8.088  10.464   3.407  0.1966  0.1408  0.1478
 9760W        W25944   4.844  10.966   4.253 -0.0890  0.3271  0.4561
 9761W        W25945   3.470  18.477   2.120 -0.3718  0.0194 -0.3661
 9762W        W25946   2.027   7.403  13.919 -0.0799 -0.2928 -0.1895
 9763W        W25947   5.191  17.474   2.524 -0.0404 -0.3200  0.1136
 9764W        W25948   7.065   3.487  12.192 -0.0931  0.0597 -0.2562
 9765W        W25949  11.930   3.070   2.437  0.0301 -0.0385  0.0177
 9766W        W25950   5.141   6.914  14.652 -0.3065 -0.0713  0.2013
 9767W        W25951   3.819  16.275  14.781  0.0630 -0.1511 -0.2108
 9768W        W25952   9.279  15.608   9.127 -0.1182  0.0937 -0.1704
 9769W        W25953   0.088   5.252  15.104  0.3946 -0.0118 -0.0869
 9770W        W25954   3.663   3.793  14.824 -0.1279 -0.1023 -0.0767
 9771W        W25955   5.789   7.045  15.156  0.1573  0.2158  0.1127
 9772W        W25956   5.402  17.372   4.928  0.3863  0.1757  0.3136
 9773W        W25957  16.227  16.627   3.129  0.1524 -0.1820  0.1265
 9774W        W25958   7.815  13.883   0.361 -0.2653 -0.0962 -0.0607
 9775W        W25959  15.795  16.755   0.998  0.0638  0.0070 -0.0528
 9776W        W25960  15.666   4.718  14.052 -0.0496 -0.0361  0.3119
 9777W        W25961  15.603  16.828   3.799 -0.0123 -0.2168 -0.3319
 9778W        W25962   5.277  13.879  14.490 -0.2263 -0.0354 -0.0707
 9779W        W25963  10.979   9.398   0.237  0.0059 -0.0659  0.0701
 9780W        W25964   1.668  17.239   4.777  0.3102  0.1629  0.2073
 9781W        W25965   2.480  13.987   0.046  0.4120  0.3596 -0.1999
 9782W        W25966   3.264   4.271   1.112 -0.1182  0.0652 -0.0940
 9783W        W25967  10.524  18.312  14.519  0.2060 -0.1059 -0.0966
 9784W        W25968  18.048   6.540   5.307 -0.2696 -0.2746 -0.0659
 9785W        W25969  18.336   0.535   1.487 -0.3500  0.1368  0.2570
 9786W        W25970   5.986   9.224   4.007 -0.3010 -0.1522 -0.0640
 9787W        W25971   3.460   9.234  12.827  0.0985 -0.6021  0.1829
 9788W        W25972   2.535   1.314  10.840  0.2895  0.0536  0.0762
 9789W        W25973   4.598  17.604  14.855 -0.5045 -0.0203  0.0674
 9790W        W25974   9.356   8.696   4.648  0.0427  0.0722  0.2290
 9791W        W25975  15.540  15.448   4.537  0.1681  0.0440 -0.0254
 9792W        W25976   7.774  17.864  15.042  0.0051 -0.2075 -0.5554
 9793W        W25977   8.303   5.694   2.522 -0.0252 -0.1621 -0.2684
 9794W        W25978   2.139   0.767   2.983  0.1053  0.2387  0.1601
 9795W        W25979  18.198  15.053  12.215  0.1406  0.2400  0.1858
 9796W        W25980  13.665   8.070   1.921  0.3645  0.1415  0.1662
 9797W        W25981  17.572   0.779  11.331 -0.2195 -0.0706 -0.0901
 9798W        W25982  17.499   4.370   3.196 -0.1688 -0.1751  0.1621
 9799W        W25983  15.603   4.233   2.605 -0.0507  0.0703  0.1205
 9800W        W25984   5.804   6.411  15.188  0.4105  0.1537  0.2273
 9801W        W25985   0.953   5.742   4.834  0.2094  0.1336  0.3132
 9802W        W25986   1.237  11.082   3.399 -0.1533  0.0657 -0.2124
 9803W        W25987  12.130   0.798  14.067 -0.3620  0.1831  0.0989
 9804W        W25988   3.844  17.239  12.127 -0.0810 -0.0450  0.4132
 9805W        W25989  10.500  13.586   4.447 -0.0713 -0.4374 -0.2796
 9806W        W25990   1.422   2.063  11.565 -0.3383  0.1055 -0.0689
 9807W        W25991  10.811   7.125   1.522  0.1831 -0.0824 -0.0562
 9808W        W25992   7.298   2.508  12.040 -0.0062 -0.3302 -0.1900
 9809W        W25993   1.055   8.322   0.805 -0.1805  0.2650 -0.0166
 9810W        W25994   9.166   8.759   4.152  0.0965  0.1400  0.1114
 9811W        W25995   4.713   7.495  11.279  0.2150  0.0826 -0.2019
 9812W        W25996  14.455   2.667   0.881 -0.1336  0.2088  0.0253
 9813W        W25997  14.653  17.964  11.377 -0.0228 -0.1719  0.0195
 9814W        W25998   2.399  17.885  13.415 -0.1695 -0.0979  0.2679
 9815W        W25999   4.912   5.546  14.286  0.0503  0.0277  0.0815
 9816W        W26000   5.446  18.434  14.310 -0.1143  0.0675 -0.0297
 9817W        W26001  15.374  14.882  12.888 -0.1510  0.1459 -0.3423
 9818W        W26002   8.889   7.790  15.058  0.5020 -0.3150 -0.0714
 9819W        W26003  16.772   8.008   4.632  0.0419 -0.2182 -0.1813
 9820W        W26004  12.590   9.009  13.249  0.1157 -0.0051  0.0063
 9821W        W26005   3.818   1.744   4.119  0.3726 -0.2386  0.0285
 9822W        W26006  14.810  12.892   1.555  0.2045  0.2112  0.0720
 9823W        W26007  10.029  14.982   4.487  0.1839 -0.1246  0.0679
 9824W        W26008   5.439   1.889   9.735  0.0348 -0.0441 -0.4279
 9825W        W26009   2.377   3.550   0.620 -0.5043 -0.2139 -0.1244
 9826W        W26010  15.009  18.966  13.230  0.0321  0.0273 -0.0016
 9827W        W26011  18.612  16.380  11.791 -0.3109  0.1045  0.1416
 9828W        W26012  12.101   8.816   3.933 -0.1470 -0.1795  0.1350
 9829W        W26013   8.678   9.102  14.538  0.3120  0.0686  0.1020
 9830W        W26014   7.393  18.113  14.359 -0.1858 -0.2198  0.0651
 9831W        W26015  15.234   8.820   5.006  0.0702 -0.1908 -0.1113
 9832W        W26016  11.832   6.331   4.155 -0.1785  0.1122  0.0193
 9833W        W26017   5.183  14.364   3.746 -0.1638  0.0968 -0.0674
 9834W        W26018   3.874   1.302   3.821 -0.1816 -0.2018 -0.0389
 9835W        W26019  17.654  15.400   5.271  0.1727 -0.0617 -0.0881
 9836W        W26020   2.435  14.862   2.286 -0.0742 -0.0827 -0.1467
 9837W        W26021  14.472   6.183  12.793  0.1681  0.0775 -0.2214
 9838W        W26022  10.834   8.373  12.658 -0.2426 -0.0148  0.1034
 9839W        W26023   9.880   6.849   5.670  0.7936 -0.0797  0.1844
 9840W        W26024   8.398  11.515   3.799  0.0463 -0.4932 -0.2079
 9841W        W26025  17.009   6.319  14.962 -0.1205 -0.0387  0.4881
 9842W        W26026   8.972  12.888  10.274  0.0236 -0.0550 -0.1654
 9843W        W26027  15.677   4.371  14.877  0.0102 -0.1650 -0.1707
 9844W        W26028  18.727  14.730  13.463  0.1752 -0.3152 -0.2260
 9845W        W26029  13.412  13.911   4.373  0.1066 -0.1684 -0.4002
 9846W        W26030  16.060  17.134   3.080 -0.1571 -0.2184  0.2491
 9847W        W26031  11.841   8.291   4.649 -0.1795 -0.1304 -0.1234
 9848W        W26032   1.738   3.776  11.004 -0.0223 -0.3275 -0.1040
 9849W        W26033  10.165   6.528   0.814  0.1241 -0.2397 -0.1247
 9850W        W26034  15.710  17.894   4.534  0.0527  0.1516  0.0519
 9851W        W26035   9.495   9.248  11.639  0.0360 -0.1922  0.1941
 9852W        W26036   4.318   8.410   1.390  0.0917 -0.2603 -0.1309
 9853W        W26037  13.164  14.667   3.334 -0.3819 -0.0326 -0.1161
 9854W        W26038  15.441  15.521  14.818 -0.2292  0.1999 -0.0719
 9855W        W26039   5.914   4.315   1.000 -0.1193 -0.1492 -0.1371
 9856W        W26040  14.818   9.248  11.231  0.3827  0.1801  0.1935
 9857W        W26041  11.947  13.279   2.978  0.3120 -0.1901  0.1736
 9858W        W26042   2.994   9.589  11.253  0.0994  0.0072 -0.1685
 9859W        W26043  16.141  11.273   0.843  0.1015  0.1518  0.2663
 9860W        W26044  10.700  18.954   4.166 -0.0348  0.0477 -0.1119
 9861W        W26045   7.700  14.356   2.153  0.2460  0.0748  0.3050
 9862W        W26046   6.718   2.521  15.114  0.1705 -0.0784 -0.0618
 9863W        W26047  13.200  16.001   1.207  0.0925 -0.0953 -0.0891
 9864W        W26048   0.855   8.289   2.383  0.2657  0.4984  0.3549
 9865W        W26049   7.852  10.058   2.211  0.0082  0.0128 -0.2139
 9866W        W26050   0.064  12.332  13.515 -0.0039 -0.2598  0.2363
 9867W        W26051   0.831   6.783   0.430  0.0414 -0.3179  0.3555
 9868W        W26052  10.433   6.975  12.563  0.1507 -0.1538 -0.0227
 9869W        W26053   1.790  11.194  10.833  0.0646  0.0642  0.0308
 9870W        W26054   0.098  10.427  13.028 -0.1679  0.1210 -0.2374
 9871W        W26055   9.471  12.208   3.669 -0.3715  0.0814 -0.0856
 9872W        W26056   9.434   8.041   5.292  0.0367 -0.2704  0.0445
 9873W        W26057   2.914  14.101  10.992  0.3783 -0.0352 -0.4673
 9874W        W26058   8.557   3.014  15.334 -0.0871 -0.0169  0.0699
 9875W        W26059   8.050  13.680  14.917 -0.3029  0.1988 -0.3303
 9876W        W26060  14.117   7.787  14.800  0.3028  0.1729 -0.0641
 9877W        W26061  12.094  12.420   4.886  0.1042  0.2021  0.1829
 9878W        W26062  13.465  10.130   1.898  0.0531 -0.0221 -0.1344
 9879W        W26063  11.372   1.653   5.624  0.0555 -0.0758  0.2133
 9880W        W26064  16.360  15.894   2.601 -0.1890  0.1842  0.5396
 9881W        W26065  13.052   4.115   2.206  0.0180 -0.3240 -0.2900
 9882W        W26066   1.214   7.337   2.483 -0.0930 -0.0113 -0.1732
 9883W        W26067  16.924   9.691   5.100 -0.2304  0.1366 -0.2023
 9884W        W26068   7.601   7.317   0.447 -0.4090  0.1234 -0.0301
 9885W        W26069  10.982  13.564   4.934  0.0980  0.3520 -0.1665
 9886W        W26070  18.944   2.301   4.336  0.1468  0.0027  0.1130
 9887W        W26071   6.074   3.509  11.894  0.0529  0.1773 -0.1300
 9888W        W26072   7.661  11.546   0.621  0.1645  0.0530  0.0721
 9889W        W26073  18.501   7.940  11.757  0.0447  0.5026  0.0039
 9890W        W26074   0.106   6.831   4.026 -0.1410 -0.0337  0.5905
 9891W        W26075  17.295  18.565  14.728 -0.1219 -0.1249  0.3843
 9892W        W26076  10.555   7.739  14.260 -0.0826 -0.3121 -0.0145
 9893W        W26077   5.137  18.538  10.532  0.1442  0.2257  0.2491
 9894W        W26078   5.696  15.554  13.604  0.3042  0.1433  0.0932
 9895W        W26079   0.889  13.194   5.196 -0.0497 -0.0239  0.1578
 9896W        W26080   4.809  11.414  13.877  0.0539 -0.1697 -0.0242
 9897W        W26081  17.481   6.395  12.874  0.2059  0.1253 -0.1224
 9898W        W26082   6.750   8.223   2.273  0.3596 -0.0950 -0.0262
 9899W        W26083  18.026   8.144  10.985  0.3604 -0.1611 -0.1293
 9900W        W26084   7.905   1.298   1.143  0.2161 -0.2657 -0.2763
 9901W        W26085   8.696  12.173   4.913 -0.0658  0.4000 -0.0419
 9902W        W26086  13.583   2.074   4.578 -0.0692 -0.2521 -0.1596
 9903W        W26087  17.363   8.066   0.647  0.2899 -0.1038  0.2488
 9904W        W26088   2.642  16.678  14.368 -0.0253  0.3978  0.2484
 9905W        W26089   5.383  17.466   0.426  0.0865 -0.0693  0.2987
 9906W        W26090   0.432  14.258   3.469 -0.0999  0.0782  0.0537
 9907W        W26091   1.728   9.114   3.542  0.2750  0.0491  0.2742
 9908W        W26092  17.265   4.507   1.177  0.0758  0.2840  0.0352
 9909W        W26093  12.909   2.333  12.380  0.1313 -0.0021 -0.3894
 9910W        W26094  15.351   6.441  11.881 -0.0303 -0.0265 -0.1256
 9911W        W26095  15.298  15.187  14.436 -0.0191 -0.1173 -0.2067
 9912W        W26096  18.782  18.866  10.376  0.3039 -0.3004  0.0471
 9913W        W26097   4.211   0.397   3.261 -0.1996 -0.2787  0.0898
 9914W        W26098   1.170   3.001   2.416 -0.1190  0.0863 -0.1589
 9915W        W26099  14.000  10.158   3.570 -0.1510  0.1584  0.1508
 9916W        W26100  12.687  14.393  10.543 -0.2239  0.0110  0.0109
 9917W        W26101  12.394  11.971  11.531  0.0323  0.0700 -0.0005
 9918W        W26102  14.272   9.068  12.894 -0.1518 -0.0650 -0.1279
 9919W        W26103  15.736  13.476  12.362 -0.0566  0.0687 -0.0522
 9920W        W26104   3.819  11.070  13.141 -0.1855 -0.0190  0.2302
 9921W        W26105   2.503   8.899   0.068  0.2877  0.1446 -0.2721
 9922W        W26106  16.859   3.049   5.167  0.2438  0.2567 -0.0131
 9923W        W26107  11.781  13.778  14.339 -0.0538  0.0165  0.1522
 9924W        W26108   8.161  18.977   1.972  0.1429  0.2558 -0.1908
 9925W        W26109  13.975  11.395   3.498  0.0097 -0.0178 -0.1241
 9926W        W26110  13.963   2.605  15.069 -0.0462 -0.1863  0.0481
 9927W        W26111   7.038   6.143   4.662  0.0494 -0.2718  0.1080
 9928W        W26112  11.052  11.461   3.839  0.2964 -0.0264  0.0547
 9929W        W26113  10.790  13.318  12.359 -0.1249 -0.1687 -0.0478
 9930W        W26114   6.358  18.248   5.272  0.0084  0.2147 -0.1376
 9931W        W26115   2.660   1.583  13.930  0.3521 -0.0233  0.3530
 9932W        W26116  18.577   8.861  11.846  0.2898  0.2111 -0.0420
 9933W        W26117  11.404  16.844   1.259  0.0932  0.0546 -0.4474
 9934W        W26118  11.700   7.488   3.507 -0.1327 -0.0149 -0.1050
 9935W        W26119  14.771   9.362   3.774 -0.1075 -0.1173  0.0659
 9936W        W26120  18.755   7.911   5.170  0.0381 -0.0781 -0.0299
 9937W        W26121   4.796  18.570  11.674  0.0564  0.2060 -0.0364
 9938W        W26122   6.787  10.655   1.278  0.1170 -0.1632  0.0867
 9939W        W26123   9.473   9.197   2.689  0.0847  0.0319 -0.0251
 9940W        W26124  13.972  18.203  11.974  0.0274 -0.3584 -0.0768
 9941W        W26125   8.562  13.519   0.452  0.3123  0.0459 -0.2034
 9942W        W26126   0.312  11.076   3.231  0.0600 -0.0007  0.0724
 9943W        W26127   8.477   5.932   3.442 -0.3517 -0.1892  0.2644
 9944W        W26128   4.806   7.032   6.056 -0.3615 -0.1868 -0.1196
 9945W        W26129  14.962   6.044  11.016 -0.0863 -0.2598 -0.2102
 9946W        W26130  16.624   0.517  13.904  0.2083  0.0716  0.2194
 9947W        W26131  15.823  12.631   1.620 -0.1480  0.0359 -0.1991
 9948W        W26132  12.329   1.668   2.359 -0.1079 -0.0613 -0.0449
 9949W        W26133  10.532   9.074  10.902  0.1634 -0.0629  0.2641
 9950W        W26134  17.608  13.734   1.217 -0.0495 -0.0243  0.0853
 9951W        W26135  16.213  18.559   0.924  0.2882 -0.3304  0.2711
 9952W        W26136  11.316  11.962   0.898 -0.0813  0.1380 -0.2498
 9953W        W26137   0.453  15.926  11.060 -0.0592  0.0170 -0.1837
 9954W        W26138   3.773  10.669   3.511  0.3260  0.6134  0.1538
 9955W        W26139   1.036  15.936  13.269  0.1605  0.0324 -0.0699
 9956W        W26140  12.720  16.204   1.226 -0.1495 -0.0146 -0.2404
 9957W        W26141  14.344  13.125   2.776 -0.1330 -0.1780 -0.0895
 9958W        W26142  11.277  10.294  11.317 -0.1735  0.0492 -0.2206
 9959W        W26143   0.461  11.987   1.720  0.0055  0.0289 -0.1859
 9960W        W26144  10.009   7.757   1.600  0.0021 -0.0171  0.3007
 9961W        W26145  14.705  15.945   4.668 -0.0972 -0.0136  0.1497
 9962W        W26146   6.029   4.552   4.755 -0.1359 -0.1136 -0.2212
 9963W        W26147   5.570   4.997   9.936  0.0676 -0.1108 -0.1843
 9964W        W26148   1.591  14.157  15.006 -0.0867  0.1023  0.0244
 9965W        W26149   0.447  16.223   4.704 -0.2255  0.0412  0.1696
 9966W        W26150  14.668   5.900   2.786 -0.1601 -0.0246 -0.0530
 9967W        W26151   6.333  14.561  14.478  0.1366  0.1634 -0.1528
 9968W        W26152   6.779  17.684   2.013  0.5472  0.1397  0.2000
 9969W        W26153   4.803   7.941  15.314 -0.0318  0.0381  0.1259
 9970W        W26154  14.546  16.171   2.982 -0.3086  0.3861  0.2328
 9971W        W26155   7.417   6.041   0.162  0.2011 -0.2319  0.0585
 9972W        W26156   4.466  10.693  12.217  0.2002  0.2133  0.1946
 9973W        W26157  17.313  10.140  13.902  0.1618  0.0870  0.1280
 9974W        W26158  15.093   3.320  10.992  0.1232 -0.1163 -0.1718
 9975W        W26159  18.780   0.401  12.445  0.1313  0.4327 -0.0009
 9976W        W26160   3.905  13.237   5.178  0.0427  0.1296 -0.2668
 9977W        W26161  12.386  15.280  11.709  0.0180 -0.2492 -0.2299
 9978W        W26162   4.084  15.346   9.610 -0.1651 -0.1561 -0.0240
 9979W        W26163   1.302   2.306   5.294  0.1485 -0.2767 -0.0493
 9980W        W26164   5.941  13.513   3.095  0.1079 -0.1527 -0.0048
 9981W        W26165  15.318  14.247  12.019  0.0159 -0.1107  0.1975
 9982W        W26166   0.129   4.721  12.341  0.1470  0.0389  0.1438
 9983W        W26167   9.750   3.241  12.272 -0.2289  0.0088  0.0027
 9984W        W26168  11.470   7.044  12.284 -0.0306  0.0323  0.1135
 9985W        W26169  13.829  14.391   0.780  0.0371  0.1231 -0.2381
 9986W        W26170  16.976  16.591   0.654  0.0470  0.1533 -0.0168
 9987W        W26171   9.342   1.925   3.278  0.2171  0.0481  0.2668
 9988W        W26172  17.603  10.721   1.654 -0.0712  0.0169  0.0578
 9989W        W26173  18.630   9.108  13.168 -0.0300 -0.0151 -0.3204
 9990W        W26174  10.700  15.918  13.428 -0.0585 -0.0717 -0.1882
 9991W        W26175  12.244  16.990   3.469  0.0146 -0.0051  0.2443
 9992W        W26176  16.882   7.625   4.890 -0.1008 -0.0538 -0.2204
 9993W        W26177  13.362  13.902   2.531 -0.1552  0.0387 -0.2590
 9994W        W26178  14.946   0.632   1.307  0.0862  0.0468  0.3030
 9995W        W26179  10.325  17.840   3.290  0.2249 -0.2820 -0.1075
 9996W        W26180  15.749  18.552  11.677 -0.2047 -0.2646 -0.1036
 9997W        W26181   8.327   8.312   1.820 -0.3100  0.0656 -0.0563
 9998W        W26182   5.132   7.886   3.966  0.2568 -0.0319  0.1003
 9999W        W26183   8.197  14.132   0.772  0.0134 -0.1379  0.1573
10000W        W26184  13.567   8.286   1.034  0.1962  0.3738 -0.1108
10001W        W26185  17.003   0.698   4.508  0.0849  0.0484 -0.1110
10002W        W26186   3.307  18.303  12.281 -0.4836 -0.0006  0.1723
10003W        W26187   0.162   1.152   4.169  0.0071 -0.0351  0.0827
10004W        W26188   9.332   2.013   3.966 -0.0267  0.2276 -0.2007
10005W        W26189  12.537  12.959  13.071 -0.2859  0.1268  0.0685
10006W        W26190   6.531   5.799   0.332 -0.1050 -0.1114  0.1237
10007W        W26191   7.670   8.771   5.199  0.0985  0.0441 -0.0111
10008W        W26192  11.836  14.779  12.259  0.1350 -0.1072 -0.1639
10009W        W26193   0.398   3.331  14.193  0.0975 -0.2191 -0.2746
10010W        W26194   5.414   7.750   0.994  0.1566 -0.2419  0.0225
10011W        W26195   7.215   5.194  12.918 -0.3502 -0.0346 -0.5398
10012W        W26196  10.903  15.634  12.058  0.1681 -0.1862 -0.1107
10013W        W26197   8.248   7.960   0.054  0.1298 -0.0473  0.0912
10014W        W26198   9.452   8.480   0.495  0.2640 -0.0370  0.3307
10015W        W26199   0.375  15.904   2.040  0.1879  0.1500  0.1288
10016W        W26200  17.122   7.445  11.353  0.1256  0.1532 -0.0420
10017W        W26201  13.588  14.402   1.245 -0.2980  0.0472  0.1402
10018W        W26202   6.084   2.714   5.721  0.0731 -0.2097  0.0194
10019W        W26203  15.363  10.135   2.123 -0.1047 -0.0186 -0.0231
10020W        W26204  10.452  17.621   0.636 -0.0845 -0.0946 -0.1622
10021W        W26205   4.638  13.734   2.308 -0.1152  0.2674  0.1672
10022W        W26206  16.534  15.558   3.550  0.0328 -0.2365  0.5376
10023W        W26207  12.834   6.536  11.448 -0.2541  0.1141  0.0537
10024W        W26208   1.147   2.497   4.210  0.0704  0.1095  0.0789
10025W        W26209   8.298  16.431  13.279 -0.0152  0.1691  0.1801
10026W        W26210  16.052  13.609   5.183 -0.2611 -0.0508 -0.0455
10027W        W26211  17.297   4.674  13.288 -0.3353  0.2308 -0.1433
10028W        W26212  16.205   2.093   3.673  0.0381 -0.0258  0.1972
10029W        W26213  16.857   7.678   5.414 -0.2654  0.1475 -0.1763
10030W        W26214   3.759   7.352  13.157  0.0833 -0.2889  0.0058
10031W        W26215  13.518  16.890  14.384 -0.1265  0.1177 -0.1480
10032W        W26216  18.556  13.927   3.317  0.2160 -0.0464  0.0293
10033W        W26217  18.866   2.931   1.641  0.1502 -0.1016  0.1642
10034W        W26218   8.908   7.283   5.732  0.1388 -0.2980  0.0629
10035W        W26219   7.251   3.062  10.172 -0.2189  0.0884  0.0078
10036W        W26220  12.896   5.859   5.323  0.0845 -0.0109 -0.0713
10037W        W26221  17.536  10.540   4.819 -0.0595  0.1418 -0.2475
10038W        W26222   7.941   9.311  11.075 -0.0825 -0.2877  0.2934
10039W        W26223   1.807  12.006   5.014 -0.0901  0.1319 -0.1072
10040W        W26224  10.597   9.045  12.061  0.2356 -0.0718  0.0132
10041W        W26225   9.726   7.478  13.935 -0.0155  0.2641 -0.2610
10042W        W26226   8.359  13.990   4.418 -0.0009 -0.1336 -0.1333
10043W        W26227  17.819  15.537   4.282  0.1769 -0.2924 -0.1089
10044W        W26228   6.933   8.255  15.134  0.0929  0.0830  0.0219
10045W        W26229  16.485  15.555   4.351 -0.1757 -0.3567 -0.0858
10046W        W26230  15.173   6.758   5.605 -0.3172 -0.1694 -0.0259
10047W        W26231  17.939   4.721   4.752 -0.0712  0.0815  0.1070
10048W        W26232  12.321   7.909   0.038  0.1963 -0.2225  0.3630
10049W        W26233   7.072  14.110   1.902  0.6415 -0.0537 -0.0274
10050W        W26234  17.794   5.819  13.522  0.0179 -0.0147 -0.0158
10051W        W26235  18.199  10.093   1.317 -0.0555 -0.1050 -0.1127
10052W        W26236   2.175   9.003  15.042  0.1564 -0.0520  0.0254
10053W        W26237   9.169  12.395  13.145  0.2088 -0.0225  0.0438
10054W        W26238  14.354   7.923   2.707 -0.0746  0.2309 -0.1268
10055W        W26239  11.500   8.638  10.660  0.0598 -0.2122 -0.0915
10056W        W26240  15.795   9.298  14.125 -0.2415  0.2903  0.1122
10057W        W26241   7.629  16.694   0.573 -0.4026  0.0245  0.0323
10058W        W26242   2.273   7.355   4.106  0.0226  0.0138  0.2404
10059W        W26243  17.920  16.586   1.518 -0.0360 -0.2115  0.3163
10060W        W26244   1.551  12.504   5.166 -0.2320 -0.1628  0.2376
10061W        W26245   3.151   0.149  13.402  0.2227 -0.1576 -0.5132
10062W        W26246  13.105  12.570  11.208 -0.0265  0.2217  0.1079
10063W        W26247  16.730   0.247  15.084  0.0475  0.2998 -0.0850
10064W        W26248   1.226  14.853  10.961  0.0525 -0.3474  0.0662
10065W        W26249   9.688   2.061   3.626 -0.2667  0.0242 -0.2205
10066W        W26250   3.834  10.490  14.711 -0.0245 -0.0317 -0.0206
10067W        W26251   2.963   2.256   0.294  0.0718 -0.0399  0.1310
10068W        W26252  13.487   6.238   5.716  0.0038  0.1932 -0.1797
10069W        W26253  14.910  17.275   4.601 -0.0523 -0.4277  0.1798
10070W        W26254   7.275  12.413  12.321 -0.1627  0.1778 -0.2549
10071W        W26255   8.153   3.274  15.132 -0.0908 -0.1966 -0.1436
10072W        W26256  18.473   3.229   0.063  0.1768 -0.0389  0.1401
10073W        W26257  15.094   3.418   3.492 -0.0694  0.1507  0.0610
10074W        W26258   0.946   5.458   1.483  0.1698 -0.0259  0.0262
10075W        W26259   5.748  14.790  13.333  0.1698  0.1912 -0.0357
10076W        W26260  16.132  10.513   4.237  0.0953  0.3229 -0.0398
10077W        W26261   1.673  17.077  11.234 -0.0169 -0.0397  0.2122
10078W        W26262   7.601   4.436   1.730 -0.0674  0.2320  0.2487
10079W        W26263   8.089  14.848  14.977 -0.2407 -0.0378 -0.0819
10080W        W26264   9.320   3.376  12.584 -0.0739  0.0064 -0.2946
10081W        W26265   0.145   9.030  15.065 -0.1030 -0.0049  0.1222
10082W        W26266  16.327  12.531   0.113  0.0183  0.0920  0.4087
10083W        W26267   7.473  17.561   1.444 -0.0523  0.5493 -0.1237
10084W        W26268  14.134   5.491  10.972 -0.0824 -0.0561  0.0439
10085W        W26269   3.003   3.532  10.592  0.0608  0.0780  0.1324
10086W        W26270  16.529  10.204   0.381 -0.0504  0.1765  0.0297
10087W        W26271   9.702   9.888   3.489  0.1450 -0.1345 -0.0717
10088W        W26272   9.349   0.315  13.497  0.2494 -0.0047  0.0385
10089W        W26273  13.327   1.299   0.364  0.1716  0.1603  0.0421
10090W        W26274   1.430   0.810  10.811  0.0585 -0.2173  0.1024
10091W        W26275   5.844   5.037   4.083  0.3382  0.0450 -0.0756
10092W        W26276  16.624  17.553   1.888 -0.1603 -0.0667 -0.0450
10093W        W26277   4.159   8.057   0.491  0.2612 -0.1037 -0.2885
10094W        W26278  17.449   6.149   3.194  0.0656 -0.0533 -0.0821
10095W        W26279   1.925  10.831  15.237  0.5043 -0.1444  0.0532
10096W        W26280   5.203   1.939  12.461 -0.4392  0.1095  0.1146
10097W        W26281   4.893   1.751   5.108  0.1430 -0.0400 -0.2395
10098W        W26282  10.404   2.887  15.033  0.4015 -0.2217  0.1385
10099W        W26283   3.858   1.118  14.930  0.0300 -0.1492 -0.1791
10100W        W26284   5.774  18.849  13.529  0.0350  0.0796 -0.0185
10101W        W26285   9.876   4.004  14.671 -0.1965  0.1237  0.0133
10102W        W26286  16.070   1.482   4.676  0.4454 -0.2723  0.1615
10103W        W26287  18.638  15.566   1.827 -0.0376  0.0720  0.1740
10104W        W26288   6.743  14.317   2.446  0.2043 -0.1311  0.0499
10105W        W26289   7.807   8.064   5.237  0.0684 -0.0769 -0.0921
10106W        W26290   7.330  12.534   0.328 -0.1539  0.3149 -0.0525
10107W        W26291   7.837   9.985  15.011 -0.0294 -0.4412 -0.1469
10108W        W26292   0.097  16.074  14.520  0.0144 -0.0451 -0.0237
10109W        W26293   1.218  16.022  11.343  0.2459 -0.0888 -0.4118
10110W        W26294  10.747  10.721   1.140  0.0694  0.1255 -0.0364
10111W        W26295  16.593  10.769   3.671 -0.0646 -0.0300  0.1549
10112W        W26296   8.256   0.534  14.286  0.2228 -0.1079 -0.2143
10113W        W26297   0.472  10.017   1.135  0.0994  0.0556  0.1431
10114W        W26298   8.409   7.257  11.680 -0.1513  0.1211  0.2610
10115W        W26299  10.840  14.782  11.302 -0.2663  0.1064 -0.2095
10116W        W26300   4.800   1.043   1.562 -0.1295 -0.0454  0.0790
10117W        W26301   5.654   2.578  12.813 -0.0261 -0.0507  0.1162
10118W        W26302  16.017   4.661  13.699 -0.0102 -0.1104  0.0777
10119W        W26303  16.925  11.300   0.641 -0.0842  0.3522  0.0056
10120W        W26304   7.243   5.667  15.199 -0.0291  0.0208 -0.5079
10121W        W26305   0.423  16.326  14.767 -0.1826 -0.0592 -0.1955
10122W        W26306   6.692  12.536  14.718 -0.1731 -0.1524 -0.0083
10123W        W26307   6.022   9.406   2.537  0.4190 -0.1968  0.2699
10124W        W26308   0.761   6.227  14.701  0.4336  0.2519 -0.2058
10125W        W26309  13.252  17.216   5.446  0.0467  0.1855 -0.2973
10126W        W26310  16.581   1.088   0.860  0.0839  0.3195 -0.4184
10127W        W26311   2.904   6.177  13.498 -0.3609  0.1753  0.3546
10128W        W26312   1.018  18.857   4.794 -0.1005 -0.0460 -0.0168
10129W        W26313  17.625  17.920  12.893 -0.0922 -0.2294  0.1682
10130W        W26314   6.196   5.675   3.641 -0.5346 -0.1896  0.0285
10131W        W26315   9.736  17.261   1.666 -0.0418  0.1436 -0.1567
10132W        W26316   4.147  12.231  11.885 -0.0752 -0.3350  0.1102
10133W        W26317  16.274  16.853   5.080 -0.1111  0.0677  0.0797
10134W        W26318   4.422   5.788   3.082  0.2231 -0.0477 -0.0486
10135W        W26319   9.267  13.971  11.069  0.0571 -0.1722  0.1516
10136W        W26320   7.059  16.611   2.397 -0.0174 -0.0817 -0.0051
10137W        W26321   7.632   6.769   4.094 -0.2713  0.0923 -0.2024
10138W        W26322   8.204   5.041  11.859 -0.1204 -0.1375  0.5272
10139W        W26323  12.823   1.562  13.360  0.0206  0.1884  0.1264
10140W        W26324   3.295  11.274  10.876  0.2178  0.0536 -0.1884
10141W        W26325  15.956   0.864  15.083  0.1236 -0.1154 -0.1677
10142W        W26326  18.500  18.140  12.285 -0.7378 -0.0478  0.1790
10143W        W26327   2.869  12.959   2.927  0.2302  0.1619 -0.0082
10144W        W26328   0.943  16.818  14.272  0.0060 -0.0828 -0.2167
10145W        W26329  11.403   5.627  11.521  0.1454  0.1085  0.0134
10146W        W26330   5.858   7.511   0.551 -0.0839  0.1275 -0.0537
10147W        W26331  16.807  17.554  14.018 -0.0354  0.1536 -0.0686
10148W        W26332  17.409   8.320  12.338  0.1418 -0.1185  0.3090
10149W        W26333   7.229  17.846   4.302  0.3188  0.0107 -0.5109
10150W        W26334   1.843  12.155  10.593  0.0098 -0.2941 -0.2465
10151W        W26335  10.162  12.630   1.473 -0.1935  0.0817  0.0944
10152W        W26336  17.514  16.947   4.315 -0.1392 -0.3605  0.1114
10153W        W26337   0.180  17.583  13.202  0.3907  0.1732  0.0415
10154W        W26338  14.483  16.333  10.661 -0.4140  0.2576  0.0568
10155W        W26339  17.731  15.074   3.375 -0.1509  0.1004 -0.0521
10156W        W26340  16.628   2.880  14.307  0.1227 -0.1542  0.0699
10157W        W26341   9.584  17.108   2.449  0.3950  0.4673  0.0643
10158W        W26342  18.490  16.837  13.434  0.1609 -0.0592  0.0132
10159W        W26343  13.274  10.179   4.531 -0.1185 -0.1702 -0.0387
10160W        W26344   5.446   2.961   0.453  0.0705 -0.1289 -0.0577
10161W        W26345  14.699   1.795   3.903  0.0952  0.0081 -0.0828
10162W        W26346  10.221  11.594   3.965 -0.5751 -0.2211  0.0083
10163W        W26347   8.070  14.697   2.921  0.2791  0.2031  0.4044
10164W        W26348   3.345   8.158  12.552 -0.2039  0.2574 -0.0087
10165W        W26349   5.042  16.310   4.852 -0.1428 -0.0293  0.1534
10166W        W26350   5.351   4.617   5.188  0.5251 -0.2087 -0.0339
10167W        W26351  16.369  18.340   3.991 -0.0226 -0.0351  0.1615
10168W        W26352   3.719  17.954  12.973 -0.0815  0.5799 -0.1585
10169W        W26353  17.424  12.889  12.347 -0.0165 -0.0407 -0.2743
10170W        W26354   0.404   3.559   0.200  0.2185 -0.0925  0.5179
10171W        W26355  15.638  13.812   5.771 -0.3215  0.1695  0.1266
10172W        W26356  13.074   3.456   0.875 -0.0260  0.1522  0.0635
10173W        W26357   9.970   5.780   2.955 -0.3582  0.2174  0.1672
10174W        W26358  12.815  14.183  12.983  0.1366 -0.1237 -0.2097
10175W        W26359  17.694  13.118   2.655  0.0131 -0.2149 -0.2689
10176W        W26360  15.223   7.409   3.642  0.0085 -0.2404  0.1758
10177W        W26361   6.438  12.383  13.748  0.1696  0.1515  0.1276
10178W        W26362   9.303  12.419  12.028  0.0482 -0.1411  0.0037
10179W        W26363  10.622  18.390   4.302  0.1127  0.1782  0.1535
10180W        W26364   8.349   7.912   1.470  0.1113  0.1206 -0.1739
10181W        W26365   9.168   7.270   3.583 -0.2584 -0.1663  0.1217
10182W        W26366   9.210  13.393   1.844 -0.1559  0.1191  0.1533
10183W        W26367  11.538  12.649   3.908  0.2838  0.0773 -0.1989
10184W        W26368   1.651  13.275  14.057 -0.0567 -0.0085  0.1189
10185W        W26369   9.067  11.230  10.345 -0.1910 -0.3540 -0.1447
10186W        W26370  18.497  10.524  13.220 -0.3108  0.0434  0.1096
10187W        W26371  15.048   0.061   2.798 -0.0193  0.6740  0.0546
10188W        W26372  13.672   7.785  11.564  0.0132 -0.1373 -0.2523
10189W        W26373   9.935   7.868   5.032  0.0805  0.1853  0.1970
10190W        W26374   3.401   9.940  13.192  0.3052 -0.0596  0.2591
10191W        W26375   6.973   8.222  11.778  0.0195  0.2255 -0.0490
10192W        W26376   2.950  18.547  10.833  0.1341  0.1186 -0.2157
10193W        W26377   6.904  18.077  10.849 -0.0926 -0.1611 -0.0312
10194W        W26378   5.438  12.182  13.845  0.0374  0.0247  0.0860
10195W        W26379  15.994   0.909   3.474 -0.0670 -0.1138  0.1134
10196W        W26380   8.373  10.378  14.467 -0.1255 -0.0703  0.1602
10197W        W26381  17.768  16.410   5.291  0.0062 -0.2061 -0.0959
10198W        W26382  12.848  15.465   3.486 -0.0148 -0.0614  0.2232
10199W        W26383  12.990  14.679   2.463 -0.1375  0.3229 -0.3685
10200W        W26384  13.514   4.386  11.070 -0.1087 -0.2512  0.0007
10201W        W26385  14.958   2.935   1.810 -0.2199  0.1062 -0.2838
10202W        W26386   2.922   7.000  14.694  0.0691 -0.3251 -0.1152
10203W        W26387  12.036   2.270  11.791  0.1869 -0.1685  0.0228
10204W        W26388  10.931   1.564  10.944  0.0762 -0.0071  0.0029
10205W        W26389  15.165   6.063  12.510  0.5091  0.0016  0.1839
10206W        W26390  11.463   2.068  10.180 -0.1817 -0.1341  0.1074
10207W        W26391  17.032  10.424  12.093  0.2149  0.0153 -0.1166
10208W        W26392   6.868   5.629   1.413  0.0062 -0.0766 -0.0975
10209W        W26393  16.675  13.423  12.210 -0.3646  0.1489 -0.0459
10210W        W26394   0.407   4.984   3.390  0.0860 -0.2345  0.3170
10211W        W26395  10.365  16.964  14.376 -0.0087 -0.2106  0.1133
10212W        W26396   3.403   9.000  12.191 -0.1472 -0.2411  0.1233
10213W        W26397   3.404   6.987  11.093 -0.1598  0.0829 -0.2088
10214W        W26398  17.078   4.960   4.551 -0.0417 -0.1049  0.0166
10215W        W26399   5.651   8.088   5.302  0.0473  0.0319 -0.2156
10216W        W26400  10.831  15.536   4.667 -0.2001 -0.1290  0.1840
10217W        W26401   5.383   3.990   2.477 -0.0846  0.0225 -0.0957
10218W        W26402   6.725  13.871   4.758  0.3071  0.0464 -0.0109
10219W        W26403  17.738   6.727  13.974 -0.0216  0.0162 -0.2310
10220W        W26404   1.209  12.801  15.127  0.0637  0.0654 -0.0658
10221W        W26405   1.578  14.901   2.591  0.0891  0.2059 -0.5223
10222W        W26406   6.262   5.284   4.309 -0.1297 -0.3449  0.3054
10223W        W26407  11.648  12.356   0.841  0.1583  0.1266 -0.1545
10224W        W26408  14.244   9.213  15.031 -0.0708 -0.1573  0.0961
10225W        W26409   8.941   5.739  12.302  0.0048 -0.1588  0.1423
10226W        W26410   6.485   3.405   2.984 -0.1091 -0.0256 -0.1292
10227W        W26411   0.491   8.194   1.886 -0.1333 -0.0481 -0.0469
10228W        W26412  14.122   0.196   3.726  0.0064  0.1775  0.1405
10229W        W26413  13.964   4.050  15.242  0.0231 -0.5908 -0.2950
10230W        W26414  16.265   9.241  13.732 -0.0686  0.2198  0.0612
10231W        W26415   6.328   6.308  14.109  0.0458 -0.1306  0.0105
10232W        W26416   1.494  10.421  13.474  0.3347  0.1351  0.0045
10233W        W26417   2.209  17.633   1.706  0.0946 -0.2183  0.3163
10234W        W26418  18.199  13.756   3.900 -0.1354  0.1376 -0.2435
10235W        W26419  14.149  16.311   1.250 -0.0425 -0.0013  0.3323
10236W        W26420  16.089  15.875  11.485  0.1146 -0.3909 -0.0250
10237W        W26421   9.107   8.099  10.894  0.0935  0.1466 -0.2688
10238W        W26422  16.788  11.451  13.658  0.0550  0.2138  0.1194
10239W        W26423  12.422   9.234   1.282 -0.4382 -0.0716 -0.1672
10240W        W26424  18.974   7.166   4.384 -0.0995  0.2761  0.0697
10241W        W26425   9.529  16.230  12.476  0.0692  0.1829  0.1176
10242W        W26426   2.605   3.409  14.108 -0.3130  0.3010  0.0246
10243W        W26427   7.549  11.351  14.858  0.2268 -0.3151 -0.2235
10244W        W26428  15.498  17.702   1.649 -0.1064  0.1549 -0.0129
10245W        W26429   6.887   9.201   3.367 -0.2378  0.0596  0.0307
10246W        W26430  16.233   1.603  10.874  0.0898 -0.0787 -0.0986
10247W        W26431   1.974   6.476   1.345  0.1799 -0.0963 -0.1172
10248W        W26432  14.067   7.491  10.827 -0.4270  0.2487 -0.1208
10249W        W26433   4.380   0.388  13.989 -0.1685 -0.0573 -0.2129
10250W        W26434  13.546   1.499  13.965 -0.4026  0.2556  0.0548
10251W        W26435  14.516   4.065  14.459 -0.0963 -0.0459 -0.5251
10252W        W26436  14.253   5.668  13.062  0.1619  0.0618  0.0272
10253W        W26437  10.230  18.352  13.641 -0.0353 -0.2109 -0.1029
10254W        W26438   5.219   9.277   2.193 -0.0981 -0.0013 -0.3433
10255W        W26439  11.618  11.622  11.283 -0.2123  0.1347 -0.0386
10256W        W26440  15.339   3.189   2.112 -0.0960  0.3817 -0.0983
10257W        W26441  15.994  11.766   1.653  0.2151  0.2814  0.0247
10258W        W26442  16.257   0.818  11.832  0.3570  0.5373  0.0236
10259W        W26443  10.201  10.333  11.575 -0.0631 -0.0453 -0.0786
10260W        W26444  14.298  15.078   2.108 -0.1287  0.2014 -0.0099
10261W        W26445   8.442  14.022   5.473 -0.0636 -0.3343 -0.1903
10262W        W26446   7.268  17.716  11.084 -0.0396  0.0858 -0.2126
10263W        W26447   7.790  13.155  12.315  0.0436 -0.0552  0.0254
10264W        W26448  13.798   0.798   5.133  0.0556 -0.0762 -0.3665
10265W        W26449   0.594   9.707  12.443 -0.0841  0.1425  0.0588
10266W        W26450  18.650  13.628   5.463 -0.2143  0.1862  0.3656
10267W        W26451   3.026  12.133  12.289  0.1292  0.1217 -0.0707
10268W        W26452  13.594   4.103   3.769  0.0653 -0.1767  0.2503
10269W        W26453  10.222  18.371  11.881 -0.0851  0.0666 -0.2979
10270W        W26454   3.463  18.786  11.592  0.2710  0.3515 -0.5578
10271W        W26455  13.722   5.044   0.570 -0.1734  0.3881 -0.2153
10272W        W26456  12.527  11.841   2.160  0.2272 -0.0921 -0.0949
10273W        W26457  18.435   6.989  11.920  0.1996  0.1379 -0.2391
10274W        W26458   8.247   2.199   4.746 -0.2308 -0.0336 -0.1614
10275W        W26459   3.245   8.000  14.010  0.0172  0.0676  0.2740
10276W        W26460  12.532  18.302   2.669  0.1391 -0.2184  0.0344
10277W        W26461   6.471  16.037  11.144  0.2808 -0.2576 -0.3310
10278W        W26462   4.861  18.392  14.308  0.4252 -0.0972 -0.1331
10279W        W26463  11.448   3.122  12.455  0.0344 -0.4316  0.2262
10280W        W26464  13.233  10.066  11.772 -0.0730  0.1911 -0.1485
10281W        W26465  14.153   1.056   0.524  0.0786  0.1719  0.1095
10282W        W26466   7.313   1.651   4.225 -0.0705 -0.0622  0.0300
10283W        W26467  13.860  14.365  13.740 -0.1235 -0.0843 -0.0147
10284W        W26468  11.177   4.270   3.355 -0.0007  0.0240 -0.1857
10285W        W26469   9.544  11.264  10.617 -0.0667  0.0229 -0.1122
10286W        W26470   8.578  15.123  13.813 -0.0121  0.0343  0.1188
10287W        W26471  13.134   5.382  12.821 -0.1327  0.1357  0.2071
10288W        W26472   2.272  18.252  11.492  0.2227  0.1718 -0.0628
10289W        W26473   4.181   1.085   0.370  0.2943 -0.0318 -0.2134
10290W        W26474   2.430   4.165  13.529 -0.3509 -0.0124 -0.0418
10291W        W26475   7.633  15.610   5.001 -0.1859 -0.0513 -0.0354
10292W        W26476   4.367   4.968   2.767  0.1536 -0.1640 -0.1302
10293W        W26477  14.921  17.931   2.507 -0.1789 -0.5743  0.1659
10294W        W26478   1.327   6.412  14.147  0.2837 -0.1551  0.1250
10295W        W26479   5.386  17.891   0.023  0.0052  0.2086 -0.0758
10296W        W26480  11.845  15.692   0.311 -0.0092 -0.1299 -0.4101
10297W        W26481  13.517  14.194   3.991 -0.1732 -0.0017  0.1136
10298W        W26482  16.424   6.442   5.695 -0.0092  0.0297  0.3617
10299W        W26483  15.399   3.347  13.957 -0.1617  0.2166  0.0578
10300W        W26484  14.170   1.258  12.230  0.1289  0.3382  0.3971
10301W        W26485  10.947  12.635  12.009 -0.3173 -0.3216  0.0519
10302W        W26486   2.956   5.099   0.094 -0.4108 -0.2475 -0.2952
10303W        W26487   9.763  15.964   0.131  0.3036  0.3244  0.2033
10304W        W26488   5.026  15.130   2.409  0.1591 -0.0395 -0.0122
10305W        W26489   0.051   5.604  11.109 -0.0914  0.0673 -0.0073
10306W        W26490   7.285  18.185  11.238  0.0461 -0.2268 -0.4551
10307W        W26491  16.615   3.943   9.933 -0.1357 -0.4056 -0.1656
10308W        W26492  12.599  15.528  13.029  0.2131 -0.1911  0.1174
10309W        W26493  17.573  12.268   5.448  0.2809  0.2951 -0.0229
10310W        W26494  13.138  13.613   2.090  0.0108  0.2963  0.0312
10311W        W26495  18.643  10.734  12.817 -0.1233  0.1623 -0.2556
10312W        W26496   9.295   9.806  14.771  0.0783  0.3084 -0.0150
10313W        W26497  16.804  10.236  13.526  0.0170  0.0800 -0.1375
10314W        W26498  10.465  18.850  13.529 -0.2073 -0.0015 -0.1563
10315W        W26499   6.122  16.426   0.233  0.2370  0.2107 -0.1701
10316W        W26500  10.845   7.296  12.524 -0.1039  0.0987 -0.0197
10317W        W26501   3.987  14.838   2.387  0.1763 -0.1652  0.2537
10318W        W26502  13.275   0.885   1.303  0.1169 -0.1146  0.2682
10319W        W26503   8.767   5.586  12.786  0.0535 -0.3632 -0.1915
10320W        W26504   0.287  17.807  12.747  0.2380 -0.1320  0.1736
10321W        W26505   3.656  15.480  14.161 -0.2459 -0.0061 -0.2501
10322W        W26506   7.958   8.728  14.628  0.0377  0.2141 -0.1155
10323W        W26507   4.505  16.012  12.866  0.0396  0.4575 -0.1105
10324W        W26508   1.375  10.488   1.140 -0.2674 -0.0430 -0.0656
10325W        W26509  12.719   3.436   1.361 -0.0395  0.3026  0.0713
10326W        W26510  18.314   9.871   4.248  0.0738  0.0889 -0.1916
10327W        W26511  12.197   6.464   4.424  0.3377  0.1879 -0.1330
10328W        W26512  15.368  15.246   1.159 -0.1729 -0.1083  0.1073
10329W        W26513  17.432   0.411   2.475 -0.0747  0.2563 -0.2137
10330W        W26514   6.542  14.368   4.826  0.3004 -0.3767 -0.1742
10331W        W26515  15.323  15.898   3.447  0.1109  0.0295  0.4940
10332W        W26516   5.888  14.498   5.064 -0.1127  0.2493 -0.0026
10333W        W26517   3.198  15.630  14.830 -0.0316 -0.0702 -0.2717
10334W        W26518  18.424  17.749   5.117  0.0225 -0.0593  0.1767
10335W        W26519   1.581  14.245   4.912  0.2327  0.0125  0.3116
10336W        W26520  17.473   9.469   1.452 -0.0031 -0.0808 -0.1086
10337W        W26521  17.556   8.336   2.593  0.1332 -0.2310  0.3136
10338W        W26522   7.121   7.017   5.032 -0.1244  0.1913 -0.1610
10339W        W26523   6.276   8.859  12.283 -0.0829 -0.4061 -0.0167
10340W        W26524   7.811  17.944   0.206  0.0444  0.2549  0.2311
10341W        W26525   3.364   1.452   1.551  0.2067  0.1130  0.1183
10342W        W26526   4.544   8.333  10.570 -0.0338  0.1869  0.2183
10343W        W26527   3.226  12.823   0.340 -0.2102 -0.0401  0.2339
10344W        W26528   3.959   8.463  14.336 -0.0345  0.0084 -0.0181
10345W        W26529  10.574  15.957   2.437  0.0828 -0.3633  0.0240
10346W        W26530   0.365  11.279   3.795 -0.1508  0.1810 -0.2326
10347W        W26531   2.464  17.325  13.605 -0.0491  0.4413  0.2170
10348W        W26532  11.174   8.424   1.880  0.0111  0.1510 -0.2259
10349W        W26533   4.311   3.930  12.550  0.0439 -0.2117  0.1421
10350W        W26534   5.832  15.448   3.148 -0.3336 -0.3199 -0.1402
10351W        W26535  18.993   0.104  10.855  0.2053 -0.1039 -0.3916
10352W        W26536  13.316   6.586  13.453 -0.2841  0.0761  0.0423
10353W        W26537  17.908  16.310  12.579 -0.1073  0.0497  0.4045
10354W        W26538   1.427   8.434   3.497 -0.2098  0.3128 -0.4292
10355W        W26539   5.376  10.701  11.079 -0.1361  0.0788  0.0428
10356W        W26540  12.891  18.088   2.917  0.2240 -0.4899 -0.2597
10357W        W26541   2.051  18.814   3.962  0.1223 -0.2384 -0.1114
10358W        W26542   1.967  12.626   2.437  0.1206  0.1742 -0.0050
10359W        W26543  18.151   4.371   1.404 -0.3712  0.1555  0.4108
10360W        W26544  17.295  18.055  10.398  0.3358 -0.0254 -0.0802
10361W        W26545  15.145   0.179   1.508  0.1202  0.0266 -0.2530
10362W        W26546  15.853  17.657   0.521 -0.0398 -0.2153  0.0733
10363W        W26547  11.618  11.225  10.939  0.2949  0.1182 -0.1088
10364W        W26548   9.293  13.475  14.764  0.3053 -0.3578  0.1716
10365W        W26549   4.107  13.558   4.827  0.3575  0.2824 -0.1322
10366W        W26550  12.437  15.137  14.125 -0.2976 -0.2624 -0.0027
10367W        W26551   1.948   7.182   4.712 -0.1040 -0.0422 -0.1296
10368W        W26552   3.414  17.833  14.566  0.0259 -0.0065 -0.1565
10369W        W26553   3.129   5.507  14.247 -0.0005  0.4990 -0.2736
10370W        W26554   1.157   0.001   3.374  0.2948 -0.0571 -0.0397
10371W        W26555   1.490  12.779  13.574 -0.2521 -0.1263  0.0097
10372W        W26556   8.363   0.988  11.243  0.0318 -0.0313 -0.0373
10373W        W26557  12.194   6.816  15.204 -0.3567  0.0782 -0.3015
10374W        W26558  16.854  14.288   2.168 -0.1872  0.2159  0.0171
10375W        W26559   3.015   3.915   0.876 -0.1435  0.4482  0.1733
10376W        W26560  11.521   8.348   2.342  0.0263  0.0659 -0.1352
10377W        W26561  12.182   0.531  11.117  0.2827  0.0657  0.3817
10378W        W26562   4.070  14.920   3.308  0.1912  0.0900 -0.2456
10379W        W26563  11.908  12.270   3.854 -0.3183  0.0863  0.3295
10380W        W26564  12.895  16.374  14.812 -0.3959  0.2367 -0.0454
10381W        W26565   6.088  15.294  12.560 -0.1341  0.1516 -0.3516
10382W        W26566   0.490   8.437  13.579  0.0574  0.0453 -0.0179
10383W        W26567  11.143  14.278  11.331  0.1915 -0.1743 -0.0054
10384W        W26568   1.612   9.219  11.564 -0.0311 -0.0957  0.1427
10385W        W26569  14.404   0.363   1.825 -0.2855  0.0296  0.0498
10386W        W26570   1.397   0.649   0.327  0.1193 -0.0889  0.0677
10387W        W26571   1.954   9.351   5.188  0.1492  0.4174 -0.0491
10388W        W26572   3.492  15.377   4.066  0.4161  0.0487  0.2420
10389W        W26573  16.397   4.579  12.682 -0.1223  0.0795 -0.1264
10390W        W26574  15.643  10.480   5.452 -0.4378 -0.0306  0.1559
10391W        W26575   8.632  16.584   1.597  0.0148 -0.2308 -0.3605
10392W        W26576   4.074  18.931  13.960  0.1176 -0.0661 -0.0039
10393W        W26577   6.542   7.752   3.726 -0.3168 -0.2581 -0.0958
10394W        W26578  13.102  16.528  10.787 -0.2975 -0.0951 -0.0877
10395W        W26579  18.439   1.124  12.338  0.1438  0.1962 -0.0191
10396W        W26580  15.801  17.325  11.661 -0.0227 -0.1745  0.0896
10397W        W26581  10.989   5.908  10.485 -0.0270  0.1704  0.0906
10398W        W26582  17.543   4.761   4.395 -0.1399  0.2941 -0.1185
10399W        W26583  15.903   0.549   0.325  0.1073  0.1774 -0.0692
10400W        W26584  17.128  10.881   3.718 -0.0277  0.0040 -0.0106
10401W        W26585  14.279  12.630  13.915 -0.0157 -0.1158 -0.1079
10402W        W26586   5.577  17.038   0.231 -0.0916 -0.4454 -0.0036
10403W        W26587  16.801   5.861  13.462 -0.0270 -0.0968 -0.3444
10404W        W26588  16.329   3.451  13.305 -0.2336  0.1954 -0.0611
10405W        W26589   3.676   3.630   2.868  0.0672 -0.0743 -0.1599
10406W        W26590   9.829   5.260   1.915 -0.2410 -0.1277  0.2039
10407W        W26591  14.366  10.982  12.358  0.0912  0.1710 -0.0395
10408W        W26592   1.609   3.227   4.243 -0.2732  0.0490 -0.1331
10409W        W26593   9.346   5.079   1.714  0.1950 -0.0779  0.0610
10410W        W26594   4.196  11.657   0.042  0.1425 -0.2744 -0.0549
10411W        W26595   0.674   3.721   0.534 -0.0759  0.1528 -0.2487
10412W        W26596   8.572   2.978  11.455  0.0679  0.2500 -0.0255
10413W        W26597  13.516   5.261  13.930 -0.1896 -0.0045 -0.0120
10414W        W26598  10.203   9.636  12.910  0.3335 -0.0188 -0.1876
10415W        W26599   4.228   5.156   3.945 -0.2073 -0.0515 -0.1947
10416W        W26600   4.841  17.446   2.095 -0.0918 -0.0782 -0.1290
10417W        W26601   7.913  18.958   5.833 -0.1802  0.0636  0.1202
10418W        W26602   2.846   5.333   6.098 -0.0959  0.1244 -0.2655
10419W        W26603  16.973   5.934   2.104 -0.1853 -0.2030  0.2421
10420W        W26604  11.958  10.070   1.935  0.2192  0.0838  0.1896
10421W        W26605   1.122   3.700   0.271 -0.2946  0.0892  0.0632
10422W        W26606   2.792   0.227   4.261  0.1479 -0.2672 -0.1219
10423W        W26607  17.052  18.688  11.791 -0.3846 -0.0313  0.2722
10424W        W26608  13.384   6.731   3.760  0.1781 -0.0327  0.0509
10425W        W26609   7.505   5.761  10.781 -0.1239  0.0152  0.2199
10426W        W26610  14.783  18.799   3.432  0.0618 -0.0912 -0.0067
10427W        W26611  12.032   4.485  12.545 -0.3136  0.0456  0.0099
10428W        W26612   8.656  16.687   0.386 -0.0522  0.1252 -0.0947
10429W        W26613   8.689   7.571  13.620  0.1922 -0.1217 -0.1704
10430W        W26614   5.911   5.335  11.196  0.1436 -0.1700  0.3591
10431W        W26615  16.679  16.822   5.744 -0.1097  0.3611  0.0246
10432W        W26616  11.566  11.544  15.349 -0.2177  0.0139 -0.3352
10433W        W26617   1.890  12.603  12.581  0.1387 -0.0196  0.3857
10434W        W26618  13.306  16.456  13.244  0.2830 -0.2673 -0.0817
10435W        W26619  11.718   6.692  15.251  0.1841  0.2337 -0.0691
10436W        W26620   0.713   0.164   3.799 -0.2628 -0.0397  0.4213
10437W        W26621   3.582  18.155   0.114  0.2150  0.1614  0.1634
10438W        W26622  12.420  16.234  11.074  0.3247  0.0473 -0.0407
10439W        W26623  18.749  18.318   3.027 -0.0889  0.0166 -0.2270
10440W        W26624   3.751   8.216   3.134 -0.1077 -0.2181  0.1039
10441W        W26625  18.059   4.397  15.326 -0.1713 -0.1524 -0.2320
10442W        W26626   5.866   4.293   2.057 -0.0667 -0.0651  0.4696
10443W        W26627  16.852   3.785  14.545 -0.0342  0.0269  0.3170
10444W        W26628   8.366   9.746   2.875  0.2579 -0.0200  0.0175
10445W        W26629   1.797   4.659  11.832 -0.4044 -0.1211 -0.2880
10446W        W26630   9.970   9.839   5.627 -0.2675 -0.0774 -0.3392
10447W        W26631   6.724  10.815  15.332  0.0243 -0.1412  0.0724
10448W        W26632  15.221  13.023  12.164  0.1859 -0.2084  0.0178
10449W        W26633  13.947   4.161   4.087 -0.3564 -0.1599  0.3638
10450W        W26634  18.247   9.452   3.972 -0.2497 -0.2110  0.2157
10451W        W26635   2.031   3.781  11.452 -0.1089 -0.2300  0.0144
10452W        W26636   7.696   0.494  14.297 -0.1463  0.3780  0.2149
10453W        W26637   2.063  17.637  13.823  0.1493 -0.0424 -0.1300
10454W        W26638   9.590   8.057  13.216 -0.0063  0.1246 -0.1967
10455W        W26639   3.979   6.540   0.062 -0.0007  0.1516  0.4256
10456W        W26640  10.120   3.866  10.636  0.0292  0.3897 -0.1541
10457W        W26641  12.477  16.770  11.151 -0.0223 -0.2988  0.1244
10458W        W26642   5.098  15.442  10.400 -0.0078  0.0397  0.1892
10459W        W26643  11.840   0.217   0.076 -0.2377 -0.0498 -0.1851
10460W        W26644  15.106  14.787   1.880 -0.0868 -0.0866 -0.0876
10461W        W26645   0.824   1.118  14.047 -0.1904  0.1987 -0.3530
10462W        W26646  15.010  14.080  12.386 -0.0003 -0.1965  0.1090
10463W        W26647  12.782  16.667  13.090  0.6028  0.0269  0.1256
10464W        W26648   2.859   5.639   3.691 -0.1031 -0.0399  0.2714
10465W        W26649   8.924  10.910   0.363 -0.2933  0.1146 -0.2893
10466W        W26650   6.371   6.521   2.840 -0.2529  0.3808  0.1563
10467W        W26651   8.333   9.697  13.844  0.1518 -0.1191 -0.3268
10468W        W26652  11.111  11.720  11.283  0.2077  0.1120 -0.0833
10469W        W26653   8.622   5.507  12.005 -0.1379 -0.0822  0.0111
10470W        W26654   7.146  13.454   4.279 -0.1605 -0.0006  0.4098
10471W        W26655   0.842  15.623   0.511 -0.0841  0.1070  0.4572
10472W        W26656   8.736  12.179  12.501  0.3013 -0.0099  0.1230
10473W        W26657   4.355   7.983   5.226  0.0670  0.2045  0.0346
10474W        W26658  17.894  12.581  12.402 -0.0206  0.1661  0.2896
10475W        W26659  15.402  17.514   0.856 -0.0739 -0.0786 -0.1110
10476W        W26660   2.866   3.322   0.415 -0.0460 -0.1022 -0.0708
10477W        W26661   9.135   6.457   2.102 -0.3997  0.0520  0.0220
10478W        W26662   1.000  18.687   3.728 -0.1646  0.2162 -0.0795
10479W        W26663  18.114  10.877  15.309 -0.0693 -0.1156 -0.0844
10480W        W26664   0.178  11.337   0.568 -0.0507  0.2425  0.1103
10481W        W26665   4.237  15.159   2.829 -0.1328 -0.3917 -0.2051
10482W        W26666  10.784  18.675   0.373 -0.2182  0.0732 -0.3194
10483W        W26667  17.605  17.875  11.237  0.1036  0.1273  0.1985
10484W        W26668   2.604  12.391   1.172  0.1175  0.0112  0.3226
10485W        W26669  13.980   3.268   2.941  0.0750  0.0052  0.2668
10486W        W26670  16.282  14.961   1.447  0.3391 -0.2005  0.0030
10487W        W26671   6.900   9.393   2.896  0.1169 -0.1531  0.1633
10488W        W26672   2.512  10.675  13.876 -0.1151  0.2280  0.2899
10489W        W26673   3.779  17.475   0.800 -0.1071  0.0088  0.0020
10490W        W26674  16.147  17.218   2.554  0.0069  0.0915  0.0591
10491W        W26675   6.395   4.017  11.406  0.2274 -0.0452 -0.4335
10492W        W26676  18.581  15.894  13.543  0.4190  0.0185 -0.1655
10493W        W26677   6.718  11.533   6.124  0.1182 -0.1209 -0.0152
10494W        W26678  16.071   7.009   4.588  0.1428 -0.0173 -0.1186
10495W        W26679  11.705   0.842  14.288  0.2463  0.1042 -0.2934
10496W        W26680   2.868  10.603   3.738  0.2228 -0.0503 -0.0866
10497W        W26681   1.672  13.637  11.482 -0.0083 -0.2145 -0.2293
10498W        W26682   3.480   0.287  12.074 -0.0212 -0.1826  0.2656
10499W        W26683   4.329   4.340   1.074 -0.3589 -0.0361  0.0717
10500W        W26684   3.273  10.292  15.327 -0.0474 -0.4559  0.1629
10501W        W26685  10.833   6.894   2.326 -0.1280 -0.1512 -0.4224
10502W        W26686   4.390  17.484   5.607 -0.0670 -0.0317  0.3335
10503W        W26687  14.863   2.640   3.043 -0.1103 -0.2471  0.0328
10504W        W26688   7.148   8.975   5.270  0.0360 -0.1821  0.1020
10505W        W26689   6.261   3.557   1.252  0.1205  0.0524  0.0868
10506W        W26690  14.889   7.400  12.058  0.1649  0.0139  0.3384
10507W        W26691  12.545   9.081   4.073 -0.0312  0.2612 -0.0685
10508W        W26692  13.102   9.812  12.171  0.0263  0.2203  0.0915
10509W        W26693  13.319  10.609  14.392  0.3357 -0.2421 -0.1371
10510W        W26694   3.908   4.404  14.595  0.1025 -0.2791 -0.1438
10511W        W26695  11.705   7.418  10.656 -0.1563  0.1721 -0.4242
10512W        W26696  14.563  17.498  11.145  0.4404  0.0561  0.0850
10513W        W26697   6.312  11.901   2.398 -0.5344 -0.1197  0.0898
10514W        W26698   8.062   1.200  12.650 -0.2953  0.2413  0.1513
10515W        W26699   4.089   9.787   1.955 -0.0662  0.3730  0.1000
10516W        W26700  16.499   6.849   1.814  0.0781  0.3060  0.1522
10517W        W26701   8.901   6.328   3.098 -0.0735 -0.2090  0.4851
10518W        W26702   1.643   6.496  14.545  0.1056  0.0674 -0.1016
10519W        W26703   2.214   0.529  13.444 -0.1521  0.1303  0.1425
10520W        W26704  13.530   2.672  10.058  0.0278 -0.1866 -0.2464
10521W        W26705  17.621   1.250   0.809  0.1007  0.1524 -0.0314
10522W        W26706  11.140   9.822  11.323  0.1945  0.2167  0.5583
10523W        W26707   9.370   9.370   3.221  0.0291  0.1461 -0.0994
10524W        W26708  17.931   8.577  11.289  0.0975  0.2254  0.0478
10525W        W26709   8.360  17.090  12.870 -0.1539 -0.3736  0.0072
10526W        W26710  18.601   3.100   2.887 -0.1175 -0.0039  0.2475
10527W        W26711  10.847   0.528  10.879  0.0340  0.1644  0.1008
10528W        W26712  18.903  17.907   0.982  0.3130  0.2604  0.0845
10529W        W26713   1.252   9.050  13.727 -0.1096  0.0051 -0.0658
10530W        W26714   2.658   1.799  14.821  0.0993  0.1143  0.1058
10531W        W26715  16.429  12.984   3.891 -0.1120  0.0752 -0.0830
10532W        W26716  13.721  14.012  14.051  0.2032  0.1493 -0.1433
10533W        W26717  18.355  11.994  11.105 -0.2009  0.1454  0.3657
10534W        W26718  13.699   9.264  15.320  0.2201  0.2303 -0.2409
10535W        W26719   3.697   1.132   0.094  0.0812  0.1717 -0.0918
10536W        W26720  18.810   6.941  13.242 -0.2730  0.0842  0.1347
10537W        W26721  15.001  12.966   1.089 -0.1775  0.0115 -0.0279
10538W        W26722   5.589   3.456   5.366  0.0074 -0.1861  0.1364
10539W        W26723  13.244  11.983  14.868  0.0308  0.0520 -0.2241
10540W        W26724   0.107   7.441   3.435 -0.0374  0.1676 -0.3779
10541W        W26725   5.100  15.637  14.598  0.1951 -0.1036  0.1221
10542W        W26726  15.953  14.246   2.024  0.1451  0.1036 -0.2879
10543W        W26727   4.186   1.683  11.599 -0.1414  0.0667 -0.1333
10544W        W26728  17.181   1.844  14.418  0.0010  0.2091  0.2876
10545W        W26729  13.194  13.502   5.216  0.0170  0.1684 -0.0586
10546W        W26730  18.024  17.656  11.447  0.0340 -0.3820  0.0514
10547W        W26731  16.044   3.635   3.055 -0.1413 -0.1256  0.1708
10548W        W26732  12.013   9.962   2.464  0.1824 -0.4254 -0.0237
10549W        W26733   3.319  10.606   4.640 -0.4849 -0.0771 -0.2363
10550W        W26734  14.583   0.264  12.790  0.2111 -0.3578 -0.1028
10551W        W26735  11.910  12.935  11.662 -0.1816 -0.1550  0.1487
10552W        W26736  13.105   0.505   0.957 -0.1301 -0.0381 -0.1645
10553W        W26737   8.950   2.477   3.272  0.4037  0.2660  0.0444
10554W        W26738  11.422   7.086   5.590 -0.0014  0.1224  0.0649
10555W        W26739  12.647   3.336   2.886  0.0370 -0.0855 -0.0758
10556W        W26740   4.449   6.556  11.142  0.2038 -0.0186 -0.1139
10557W        W26741  10.681   8.297  14.156  0.0952  0.1206  0.2382
10558W        W26742   6.631   4.274   2.668  0.0797 -0.1192 -0.0466
10559W        W26743  11.763  14.709  14.410 -0.0024  0.1123 -0.3395
10560W        W26744  17.987  15.192   5.589  0.1159 -0.2959  0.0952
10561W        W26745   6.493   7.520  12.733 -0.0016  0.1317 -0.0222
10562W        W26746   6.179  15.004   0.014  0.4720 -0.2393  0.2203
10563W        W26747  18.302   8.454  12.265  0.1914 -0.1044  0.1143
10564W        W26748  12.419  18.126   2.133  0.1241  0.2946 -0.1531
10565W        W26749  14.585   3.285  11.111 -0.2360  0.0378 -0.1623
10566W        W26750   1.388   2.418   2.380 -0.0627  0.0776  0.0066
10567W        W26751   0.758  10.907   5.762 -0.5290  0.2972 -0.2756
10568W        W26752   2.886   4.867  12.292 -0.0339 -0.1241 -0.0111
10569W        W26753  12.978   0.347  11.252 -0.1214  0.0479  0.1398
10570W        W26754  11.974   8.420  12.684  0.3185  0.2203  0.1913
10571W        W26755   4.714  15.309  13.662 -0.0440 -0.0940  0.2821
10572W        W26756  18.651   2.754  14.435 -0.2005  0.1149  0.1499
10573W        W26757   2.177  18.056   2.111 -0.0571 -0.1194  0.1456
10574W        W26758  11.478  10.196   1.200 -0.2738  0.1158 -0.1165
10575W        W26759   7.870  15.443   1.650  0.0990  0.2328  0.2010
10576W        W26760   3.938   2.669  13.010 -0.2728 -0.0470  0.1685
10577W        W26761  17.378  17.973   1.048 -0.1864  0.2373 -0.2693
10578W        W26762   0.113  12.083  12.631  0.0846 -0.2965  0.3572
10579W        W26763   4.582  10.286  12.013  0.2053  0.1972  0.1552
10580W        W26764  18.414  18.596  13.016 -0.2038 -0.3168 -0.0852
10581W        W26765  15.347  14.660   4.069  0.1488  0.0693  0.2551
10582W        W26766   6.090  15.321   2.214  0.0986  0.0186 -0.0319
10583W        W26767   9.970  16.768  13.747 -0.3930 -0.1439 -0.0835
10584W        W26768   5.140  18.821  12.506  0.1236 -0.2476  0.0777
10585W        W26769   3.992  12.330  14.386 -0.1074  0.1234 -0.2290
10586W        W26770  11.618   1.286   2.423 -0.4954  0.1714  0.1751
10587W        W26771  14.817   3.331   1.513  0.0558 -0.1213 -0.0068
10588W        W26772  12.741  14.161  13.801  0.1981 -0.2784  0.3017
10589W        W26773  10.896  10.987   2.442 -0.1321  0.2883  0.2244
10590W        W26774   6.549   9.960  11.221 -0.2534  0.1474 -0.2189
10591W        W26775  15.108   5.943   2.501 -0.2111 -0.0486  0.3328
10592W        W26776  15.065   1.194  14.908 -0.2646  0.0652  0.1033
10593W        W26777   4.387   9.817   0.503  0.0710 -0.1431 -0.1822
10594W        W26778  12.424   6.639  12.092  0.1191  0.1042  0.0676
10595W        W26779   4.779  18.989   3.176  0.2583  0.1140  0.1703
10596W        W26780  10.138  16.174   3.070  0.2156 -0.0570 -0.0023
10597W        W26781   1.496   5.749   0.861  0.3057  0.2253  0.1206
10598W        W26782  13.000  11.842  10.485  0.3123  0.1437 -0.1255
10599W        W26783   9.782   2.761  12.482 -0.0029 -0.0711 -0.0349
10600W        W26784  10.053  14.836   0.968  0.1919  0.0734 -0.0451
10601W        W26785   9.292  18.705  15.173  0.1299 -0.1052 -0.2991
10602W        W26786   6.174  11.836  15.273  0.1892 -0.2355 -0.0070
10603W        W26787  12.775   9.814  12.881 -0.1967 -0.4876  0.0059
10604W        W26788   9.830   1.054   1.760 -0.0999  0.1349 -0.0045
10605W        W26789  10.653   1.749  11.386 -0.4242 -0.0784 -0.1891
10606W        W26790  18.344   6.910  11.358  0.2321  0.0410 -0.3795
10607W        W26791  11.114   6.762   3.053  0.2275 -0.1156  0.2137
10608W        W26792  18.475  11.426  12.257  0.0792 -0.0915  0.2180
10609W        W26793  18.331   7.773  13.303  0.1283 -0.0178 -0.1813
10610W        W26794  15.127  17.845  14.730 -0.1637 -0.3984  0.0293
10611W        W26795  11.220  15.053   1.062  0.1733  0.1271  0.2697
10612W        W26796  14.409   1.252   1.056 -0.1233  0.3152 -0.1419
10613W        W26797  15.630   2.290   3.194 -0.0942  0.1414 -0.2717
10614W        W26798  17.604  10.796   3.662 -0.0745  0.1059  0.2297
10615W        W26799  18.836  11.221   5.149  0.0726  0.1224  0.0220
10616W        W26800  10.951   9.570   1.157  0.0051  0.2448 -0.0125
10617W        W26801  17.322  16.063  15.167  0.0772 -0.0432 -0.1528
10618W        W26802   6.794  14.759  13.256  0.1716  0.2122 -0.0948
10619W        W26803  18.601   1.670   0.995 -0.1770  0.0078  0.0520
10620W        W26804  14.225   0.006   1.430 -0.0571  0.1764 -0.0019
10621W        W26805   5.981   7.731   4.348 -0.1417  0.0493 -0.1946
10622W        W26806  14.128  11.292   2.853  0.3400  0.0484  0.0048
10623W        W26807   2.375  18.417   1.521 -0.2151  0.1067 -0.0476
10624W        W26808  14.903  17.734  11.766 -0.2904  0.4432 -0.0243
10625W        W26809   4.351  12.303  13.930  0.0793 -0.4059  0.0234
10626W        W26810  11.982  14.191  14.534  0.0202  0.1426 -0.0024
10627W        W26811  13.716  18.605  15.020 -0.2568  0.0276 -0.0209
10628W        W26812   2.536   5.264   3.568  0.1459  0.2231 -0.2137
10629W        W26813   0.802   3.349  15.362 -0.1598  0.1530  0.1667
10630W        W26814   2.238  14.894   1.808  0.1742  0.1153 -0.0358
10631W        W26815   9.678  17.486   0.192  0.3236  0.0499  0.1209
10632W        W26816   7.737  12.669  12.301  0.3005  0.0214 -0.0368
10633W        W26817   9.164  18.148   1.591 -0.0327 -0.3436  0.0372
10634W        W26818   5.517   9.652  14.626  0.3887  0.0731 -0.1452
10635W        W26819  12.338  12.046   4.116  0.0953  0.2398 -0.0612
10636W        W26820   6.771   4.726   1.145  0.2526  0.2818 -0.0462
10637W        W26821   7.819  16.738  10.503  0.1658  0.1261  0.2869
10638W        W26822  13.621   3.792   2.460  0.2941 -0.0735  0.0456
10639W        W26823  11.127   8.955  11.806 -0.1414 -0.1565  0.1806
10640W        W26824   7.899   8.251   3.610 -0.2937  0.2231 -0.2498
10641W        W26825   2.959  12.427   0.491  0.0635 -0.1457 -0.2728
10642W        W26826  15.105  11.347  14.003 -0.1219  0.0209  0.0503
10643W        W26827   0.483  11.057   1.771 -0.3596 -0.0673  0.2783
10644W        W26828   5.566  11.489  12.033  0.0559 -0.1423 -0.0424
10645W        W26829   4.808   5.614  11.936  0.3274 -0.0058 -0.2249
10646W        W26830  14.657   3.299   0.577  0.0831  0.1766 -0.0386
10647W        W26831  13.001  13.105  10.625 -0.1053 -0.0562  0.0132
10648W        W26832  13.843   0.001   4.264 -0.0397  0.1104 -0.0301
10649W        W26833   7.446   3.128   5.694  0.3289 -0.1667  0.1833
10650W        W26834  15.190   5.509   3.776 -0.1385  0.4741 -0.1470
10651W        W26835   1.734  12.208  12.250 -0.2045  0.5457  0.0488
10652W        W26836   1.042   8.911   2.900  0.1642 -0.1931  0.2493
10653W        W26837   7.744  13.830   3.165 -0.0815  0.1085  0.1382
10654W        W26838   6.246   1.033   4.780  0.0558 -0.1253 -0.2481
10655W        W26839   9.474   2.004  12.114  0.1131  0.0756 -0.0460
10656W        W26840  12.746   2.392   3.302 -0.0551  0.0191  0.2127
10657W        W26841  17.680  14.298  12.114 -0.1995  0.0870 -0.1857
10658W        W26842   7.755  12.158  10.458 -0.1904 -0.0181  0.2447
10659W        W26843   0.140  16.409   9.830 -0.0185  0.0796 -0.2552
10660W        W26844  18.284   2.263   1.454  0.0007  0.1610 -0.3002
10661W        W26845   7.495   0.860  14.747  0.2095 -0.2567  0.0929
10662W        W26846   2.770  12.579  15.272  0.0935 -0.0894  0.0084
10663W        W26847   2.150  18.852   0.553  0.1502 -0.0346  0.0778
10664W        W26848   8.379   6.031   1.304  0.3070 -0.0700  0.1506
10665W        W26849  12.062   8.919   3.370 -0.1467 -0.1672 -0.2927
10666W        W26850  18.509   7.462  11.999 -0.0611 -0.2914 -0.2647
10667W        W26851  10.428   7.327  10.871 -0.5548 -0.2029 -0.2953
10668W        W26852  17.737   6.090   0.158  0.0058  0.1140  0.1234
10669W        W26853  17.510  11.978  14.125 -0.0191 -0.0385  0.1187
10670W        W26854  13.955   1.533  14.242 -0.0691  0.0209  0.1585
10671W        W26855   5.607  14.451   4.641  0.1044  0.0552  0.0340
10672W        W26856   4.973  14.747  14.936  0.2002 -0.0127 -0.2102
10673W        W26857   0.000  16.849   2.071  0.0153  0.0845  0.1072
10674W        W26858   3.957  18.712   3.867 -0.0359 -0.2143 -0.1869
10675W        W26859  14.558  12.663   2.957 -0.0142  0.2511  0.4508
10676W        W26860   0.290   8.639   2.289 -0.1586  0.1904  0.1262
10677W        W26861   7.699   8.615  12.232  0.2815 -0.0066  0.0367
10678W        W26862  10.915  15.091  10.910  0.1906  0.1722 -0.1840
10679W        W26863   7.116   0.218  11.189 -0.1345  0.0476 -0.1803
10680W        W26864   7.197   8.247   5.501 -0.3679 -0.3314 -0.0910
10681W        W26865  12.344   1.042   2.844 -0.3488  0.1376  0.1202
10682W        W26866  13.192   9.472  11.815  0.1064 -0.1773  0.0834
10683W        W26867  17.044   4.961  12.291  0.1816 -0.4662 -0.2178
10684W        W26868   2.998  18.792   2.300 -0.1220  0.0645 -0.0363
10685W        W26869   6.903  15.200  14.137 -0.5122 -0.1504 -0.2028
10686W        W26870   0.487   9.254   2.173  0.1909  0.4158  0.1432
10687W        W26871   7.569  18.884  11.915  0.6066  0.1544 -0.1299
10688W        W26872  10.175  18.880   1.414  0.0749  0.1804  0.0211
10689W        W26873   0.019  15.750  15.316 -0.0355  0.2459  0.0324
10690W        W26874  12.225  17.455   4.622  0.2429 -0.0794 -0.0964
10691W        W26875   4.338  12.669   4.321 -0.1924  0.0083 -0.0653
10692W        W26876  10.349   7.815  12.038  0.1498 -0.2536  0.2851
10693W        W26877   7.692   8.201   4.539  0.1175  0.2845  0.3192
10694W        W26878  13.512  14.342  14.640  0.1453  0.0892  0.2688
10695W        W26879  10.405   5.037  12.581 -0.2893 -0.2657 -0.2161
10696W        W26880  17.797   2.930   4.116 -0.1006 -0.0883 -0.1428
10697W        W26881   0.552  11.041  12.705 -0.3010  0.1434  0.0097
10698W        W26882  11.291   5.737  13.122  0.1015 -0.0653 -0.3330
10699W        W26883  11.758  10.080   3.221 -0.1339 -0.1275 -0.1739
10700W        W26884  16.327   7.670  14.686  0.1509 -0.1534 -0.0457
10701W        W26885  16.512  13.384  11.168  0.0961 -0.0069  0.0889
10702W        W26886   7.439   3.926   3.956  0.1357 -0.2154  0.0544
10703W        W26887  17.814  18.782   4.449  0.0445 -0.1914  0.0469
10704W        W26888   6.614   2.435   3.248  0.0503 -0.1803  0.0316
10705W        W26889  18.355  17.829   0.923  0.4547  0.2772 -0.1887
10706W        W26890  11.612   0.229  13.317 -0.1155  0.0341 -0.2021
10707W        W26891   1.553   7.962   1.875  0.1086  0.0005 -0.1027
10708W        W26892  12.036   6.095  12.833 -0.5163 -0.4559 -0.2485
10709W        W26893  13.441   0.572   4.858 -0.3126 -0.0157 -0.0998
10710W        W26894  14.650   7.831   1.440  0.0891  0.0935 -0.0519
10711W        W26895  15.052   3.765  15.167  0.1941  0.2607  0.1411
10712W        W26896  13.572  15.164  14.127  0.0787  0.2816  0.0173
10713W        W26897   7.856   5.676  12.537  0.0232  0.0423  0.0054
10714W        W26898   3.199   8.203   3.029  0.1025 -0.1457  0.0179
10715W        W26899   9.132   3.723   0.617  0.1521  0.0807  0.2331
10716W        W26900   9.717   3.289   3.395 -0.2518 -0.1242 -0.1229
10717W        W26901  16.743   1.068  13.796 -0.1726 -0.0171  0.1138
10718W        W26902  10.526  18.893  12.663  0.1777 -0.1811 -0.2030
10719W        W26903  14.790  17.421  13.368  0.0320 -0.0036 -0.1671
10720W        W26904   7.658   1.911   0.477 -0.1802  0.2883 -0.2530
10721W        W26905   0.282  13.704   4.691  0.0805 -0.3747 -0.0867
10722W        W26906   4.117  13.522  15.007  0.0681  0.0119  0.0399
10723W        W26907   7.926  13.736   4.539 -0.0676  0.1306 -0.1650
10724W        W26908  10.657  16.070   0.407  0.0724 -0.2004  0.2512
10725W        W26909   1.860   7.372   3.600  0.0807  0.0528 -0.1311
10726W        W26910   6.110  12.636  12.232  0.1002 -0.1398  0.1915
10727W        W26911  16.627   6.704  14.389 -0.0522 -0.1647 -0.0616
10728W        W26912  15.405  11.293   2.818 -0.2027 -0.1457 -0.1568
10729W        W26913   9.621   1.519   3.813 -0.0392  0.1929 -0.0012
10730W        W26914  16.996  11.815  13.931  0.0433 -0.2818  0.2597
10731W        W26915  12.591   3.171   1.874 -0.2267 -0.0423  0.0537
10732W        W26916  12.255  12.873   2.739  0.2486 -0.1216  0.0592
10733W        W26917   1.169   7.039  11.751  0.2123  0.1475  0.0651
10734W        W26918   2.136   6.139  15.256 -0.1238  0.1254  0.1629
10735W        W26919  17.344   2.577  14.055 -0.2550  0.3831 -0.0921
10736W        W26920   8.324   7.356  11.053  0.1131  0.0192 -0.0339
10737W        W26921   5.837   9.254  12.958 -0.2064  0.1700 -0.0713
10738W        W26922   3.718  13.538   0.563  0.0369  0.2519  0.3975
10739W        W26923   5.640   6.285  12.517 -0.0256  0.2800  0.0725
10740W        W26924  16.619   4.324   2.152 -0.3348  0.0443  0.0746
10741W        W26925   2.839  17.911   3.537 -0.1037 -0.0467  0.0462
10742W        W26926  10.389  14.051   1.075 -0.2190 -0.1399  0.1327
10743W        W26927   9.216   0.629   4.372 -0.0678  0.1084  0.2496
10744W        W26928   1.442   0.464   9.860 -0.0792 -0.1026 -0.2846
10745W        W26929  17.776  17.025  11.826 -0.1342  0.2139 -0.2797
10746W        W26930  12.864   6.327  10.915 -0.1202 -0.2927  0.3603
10747W        W26931   6.372  17.817  14.693 -0.0461  0.0637  0.1161
10748W        W26932  17.205  10.949   5.479 -0.0288  0.1262 -0.3010
10749W        W26933  18.510  10.687  13.793 -0.1957 -0.2082 -0.1574
10750W        W26934   6.227   4.088   2.459  0.0169 -0.2625  0.3542
10751W        W26935   3.241   8.170   1.621  0.2592 -0.0297  0.2863
10752W        W26936   8.941  17.072   3.729 -0.1034 -0.3133 -0.4721
10753W        W26937  15.951   4.238  10.968 -0.0432 -0.3164  0.0086
10754W        W26938   5.404   5.497  10.783  0.0004  0.4053 -0.2105
10755W        W26939  18.553  12.608   4.506 -0.2672 -0.0842 -0.2818
10756W        W26940  17.185   3.098  11.332  0.0783  0.2054 -0.0060
10757W        W26941   3.099  11.410  13.144 -0.2637 -0.3481 -0.2140
10758W        W26942  13.892  10.741  13.680  0.2295 -0.5818  0.1955
10759W        W26943   4.161  17.818   3.141  0.0038 -0.0174 -0.1066
10760W        W26944  13.673  12.425   0.123 -0.1130 -0.1191 -0.0299
10761W        W26945   1.171  11.907  10.695 -0.2626  0.0752  0.0744
10762W        W26946   3.793  15.282   5.624  0.2659  0.0709 -0.0475
10763W        W26947   0.293  15.144   3.433  0.0451 -0.0315 -0.1522
10764W        W26948  13.424  12.232   1.905  0.4798 -0.0114  0.4004
10765W        W26949  17.998  18.635   2.451  0.0678 -0.0699  0.0396
10766W        W26950   6.433   1.733  14.386  0.1213  0.0612  0.4816
10767W        W26951  16.616   0.280   4.752  0.1259 -0.0413  0.3343
10768W        W26952  15.367   8.607  10.750 -0.2999  0.1859  0.1150
10769W        W26953  13.456   6.596  11.751 -0.1826  0.1181 -0.2433
10770W        W26954   8.587   8.087   1.044 -0.0175 -0.0397 -0.2309
10771W        W26955  16.117  15.234   6.276 -0.0842 -0.1886  0.0542
10772W        W26956   7.072  11.209   3.866  0.1710 -0.3720 -0.0212
10773W        W26957  10.131  15.515  11.372 -0.1592  0.3827 -0.1234
10774W        W26958  11.871   0.902   3.265  0.1370 -0.0080 -0.0097
10775W        W26959   9.863   8.196   2.578 -0.2353  0.2377  0.1113
10776W        W26960   7.481   9.842   1.459 -0.0012  0.1027 -0.1622
10777W        W26961   9.711  16.067  14.391 -0.1839  0.0033  0.0004
10778W        W26962  15.235   8.934  11.874  0.1706  0.2115  0.3310
10779W        W26963  16.077  16.236  14.577 -0.1438 -0.1157  0.0059
10780W        W26964  12.484  18.580  12.002  0.1188  0.4858 -0.1622
10781W        W26965  12.424  14.350  15.051  0.1685  0.1148  0.0625
10782W        W26966   7.160   1.613   2.968  0.3531 -0.2004 -0.0064
10783W        W26967  14.049   6.513   5.041 -0.0934  0.0784 -0.2676
10784W        W26968  16.234  12.523   2.209 -0.1831  0.0952  0.1453
10785W        W26969   4.700  10.104  14.460  0.3151 -0.1428  0.0907
10786W        W26970  18.414   8.199  11.264 -0.0099  0.1893 -0.1907
10787W        W26971  10.093  17.048  12.462  0.1776  0.0764  0.0975
10788W        W26972  12.044  13.787   3.280 -0.2636  0.0284 -0.0839
10789W        W26973   1.279  10.026   5.929  0.0961 -0.0166 -0.0623
10790W        W26974   9.040   4.711   3.373 -0.1321  0.0423 -0.0519
10791W        W26975  12.956   2.163   1.801 -0.0827 -0.2514  0.0207
10792W        W26976  10.785  16.803   3.362  0.1275 -0.3151  0.2117
10793W        W26977  14.093  14.509  12.194 -0.0821  0.1015  0.0117
10794W        W26978   5.573  17.169   2.432 -0.2415 -0.1354  0.0398
10795W        W26979   7.666  13.719  13.055  0.2103 -0.2544 -0.0497
10796W        W26980   5.149  13.431  14.778  0.0421 -0.1807 -0.1176
10797W        W26981   6.965  12.616  11.753  0.1009 -0.2671 -0.0347
10798W        W26982   4.583   9.427  14.279 -0.3329 -0.2690 -0.0489
10799W        W26983  10.951   2.890  10.396 -0.0793  0.0657 -0.4716
10800W        W26984   3.238   8.213  15.301  0.0773 -0.2479 -0.0244
10801W        W26985  18.477   8.426   1.419 -0.0565  0.1604  0.1093
10802W        W26986  16.933   7.689   1.241 -0.0718 -0.1447 -0.1145
10803W        W26987   7.000  17.234  12.465  0.2936 -0.0716 -0.2599
10804W        W26988  17.765   1.407   2.609 -0.2500 -0.3908 -0.1006
10805W        W26989  17.085   9.913   2.389 -0.3286 -0.1561  0.0495
10806W        W26990  17.195  15.354   1.036  0.1528 -0.2113 -0.1369
10807W        W26991  15.740   3.639   0.801  0.1191 -0.1437 -0.4416
10808W        W26992  15.223   4.912  10.613 -0.2440 -0.1100 -0.2307
10809W        W26993  10.198  14.643  13.983 -0.1434 -0.1784  0.0965
10810W        W26994   6.439  14.126   4.425 -0.0966 -0.1360  0.2327
10811W        W26995   0.478  16.740  15.144  0.1577 -0.1392 -0.2404
10812W        W26996  18.994   5.609   1.544  0.2182  0.1653  0.0716
10813W        W26997   4.213   5.517   4.792  0.0180  0.1446  0.0217
10814W        W26998  18.858   3.556  13.540  0.0392  0.0704 -0.0547
10815W        W26999  10.694   2.473  15.003 -0.3211  0.0123  0.1788
10816W        W27000  16.195  15.421   2.615  0.0833 -0.0411 -0.2133
10817W        W27001  10.068   5.778  11.892 -0.2646 -0.0036  0.0248
10818W        W27002   6.257  12.169   1.917  0.0033  0.0788  0.1570
10819W        W27003   7.493   8.238   1.792 -0.1331 -0.1356 -0.0858
10820W        W27004   9.810   0.746  12.239  0.1891  0.2598  0.0272
10821W        W27005   6.820  15.870  10.514  0.0231  0.0571 -0.1153
10822W        W27006   0.662  18.533  15.337 -0.1147  0.4151 -0.0226
10823W        W27007  18.227  11.404  10.827 -0.1419 -0.0070  0.0835
10824W        W27008   8.183   6.995   0.201 -0.2484 -0.4386  0.1167
10825W        W27009   3.682   9.785  15.366 -0.0015  0.2538  0.3261
10826W        W27010  17.303   1.340   2.760 -0.0324 -0.0963 -0.2954
10827W        W27011   2.676  16.592  11.380 -0.2925 -0.0021 -0.0728
10828W        W27012  14.107   1.241   2.382  0.2302  0.4298  0.1407
10829W        W27013   8.761  12.246  14.898 -0.1569  0.2953  0.1823
10830W        W27014  12.279   2.964   2.796 -0.3789  0.1034  0.0187
10831W        W27015   7.528  11.153   3.516 -0.0987  0.0177  0.2308
10832W        W27016  11.817  16.920   3.800 -0.0287  0.4812 -0.1514
10833W        W27017  13.813   1.875  14.651 -0.3824  0.1205  0.0388
10834W        W27018  12.375   8.559  13.139  0.0043  0.3426  0.1058
10835W        W27019   2.186  15.320   4.700  0.1401  0.3464  0.1915
10836W        W27020   9.273   9.715   4.938  0.1273 -0.0162  0.1818
10837W        W27021  12.772   1.471  12.471 -0.2490 -0.2259 -0.0409
10838W        W27022  10.521  15.897   4.983 -0.1845 -0.1162  0.2927
10839W        W27023   9.799   9.582   2.515 -0.3307  0.0214 -0.1159
10840W        W27024  16.208  15.199   3.486 -0.0076 -0.0858  0.0920
10841W        W27025   2.500   6.792  12.333  0.1405 -0.2456  0.1818
10842W        W27026   0.763  15.765   1.052  0.1143  0.3486  0.2919
10843W        W27027   4.953  18.047   1.044  0.0767  0.1344 -0.0551
10844W        W27028   0.341  14.507  12.754 -0.3656  0.3639 -0.1870
10845W        W27029   2.656  16.751   2.912 -0.0580 -0.1094  0.1027
10846W        W27030   9.590   2.638   1.255 -0.1532 -0.1412  0.3019
10847W        W27031   7.294  11.249  12.060 -0.3197  0.1400 -0.0095
10848W        W27032   7.310  18.835  14.925 -0.1275 -0.0397 -0.0343
10849W        W27033  10.050  10.560  10.789  0.4046  0.2756 -0.2356
10850W        W27034   0.755  14.639   0.203 -0.0366  0.1325  0.0134
10851W        W27035   7.231   2.395  15.280  0.1278  0.1344 -0.0243
10852W        W27036  16.515   7.056  13.075 -0.4032 -0.3040  0.1543
10853W        W27037   8.753  10.270   4.094  0.0223 -0.1381 -0.0198
10854W        W27038   4.171  18.790   2.572  0.0222  0.1411  0.0197
10855W        W27039  12.253  12.225   1.683  0.0452  0.0733  0.0455
10856W        W27040   2.164  11.991   1.085 -0.0236 -0.0367 -0.1888
10857W        W27041  17.006  11.088   6.146 -0.2271 -0.0283 -0.4071
10858W        W27042  13.190   3.855  14.855  0.1109  0.0584  0.0256
10859W        W27043  10.486  11.236   5.331 -0.1924  0.2604 -0.1915
10860W        W27044   0.244  17.141   2.616  0.1308 -0.2267  0.0019
10861W        W27045  14.445   3.077   2.424  0.1760 -0.3378 -0.3165
10862W        W27046  12.931  12.256   3.405 -0.1741 -0.0785  0.2538
10863W        W27047   5.130   9.427  14.171 -0.0373 -0.1818  0.0905
10864W        W27048  18.926  18.071   4.837 -0.2634 -0.0989  0.0187
10865W        W27049  11.407  15.359   0.166  0.0570  0.0011 -0.0276
10866W        W27050   5.203   2.442   0.302 -0.0873 -0.3874  0.3068
10867W        W27051  12.914  12.279   4.602  0.1657 -0.0847  0.0055
10868W        W27052   2.365  15.290   0.078 -0.1595  0.0275  0.0232
10869W        W27053   6.133   1.324  12.327 -0.1857  0.1539 -0.2059
10870W        W27054  18.306   9.696  11.419 -0.1937  0.1214  0.1197
10871W        W27055  10.697   7.391   4.387  0.1987 -0.3869  0.0789
10872W        W27056   4.891  14.868  12.922 -0.1228  0.2584  0.1178
10873W        W27057  11.274  16.069  14.064  0.1711  0.0733  0.0772
10874W        W27058  14.650  10.611  15.126 -0.0908  0.0963 -0.0290
10875W        W27059   5.875   1.664  11.139  0.1379 -0.1329  0.0569
10876W        W27060  10.531   3.929  12.200  0.0218 -0.1693 -0.0588
10877W        W27061  13.463  14.430   2.494 -0.0149  0.0831  0.1456
10878W        W27062   8.502  11.991  13.537  0.5751  0.0040 -0.1584
10879W        W27063   1.972   6.508  10.809  0.2442 -0.2990 -0.2252
10880W        W27064   3.501   2.075  14.803 -0.0394 -0.2752 -0.1167
10881W        W27065   3.333  16.993  13.694 -0.1323 -0.1594 -0.0027
10882W        W27066  14.534   4.414  13.292 -0.0350 -0.2269  0.0713
10883W        W27067  18.769  14.770   1.270  0.0497  0.1835 -0.0614
10884W        W27068  17.987  18.277  12.974  0.0580 -0.2828  0.0257
10885W        W27069   5.019   7.437   2.765 -0.0186 -0.0519  0.0307
10886W        W27070   9.785  14.804   4.957 -0.1084 -0.0785  0.4132
10887W        W27071   5.145   2.629   2.518  0.3415  0.0071 -0.3216
10888W        W27072   1.593   4.391  14.873  0.0138  0.3930  0.1229
10889W        W27073   9.651   4.021   0.610 -0.4223 -0.1945 -0.0032
10890W        W27074  18.813  11.674   2.281  0.2108 -0.1473 -0.2047
10891W        W27075   9.784   9.748   0.212 -0.2148 -0.1260  0.1135
10892W        W27076   3.750  13.253   2.327  0.1543 -0.0756  0.1431
10893W        W27077  10.983  18.686   3.186  0.2779 -0.0368 -0.1528
10894W        W27078  16.593  13.766   5.036  0.0539 -0.1328  0.0766
10895W        W27079  12.511  14.581  10.995 -0.0338  0.1817 -0.1118
10896W        W27080   8.166  17.512  14.938 -0.0925 -0.2082  0.1988
10897W        W27081   8.594   0.705  13.435  0.1127  0.0686 -0.0304
10898W        W27082   7.578  14.868   1.999  0.1228  0.0043  0.2371
10899W        W27083  10.046   8.374   3.292 -0.1163  0.3645  0.1210
10900W        W27084   1.905   2.403   2.837  0.0064  0.1538  0.2016
10901W        W27085   3.976   9.292   3.494 -0.1208 -0.1359 -0.1228
10902W        W27086  14.253   4.788  12.074  0.0676  0.3089 -0.0208
10903W        W27087  10.627   5.502   3.139  0.1291  0.1489  0.0712
10904W        W27088  10.424   1.547   9.732 -0.0358 -0.0839  0.2705
10905W        W27089  17.729   1.336   1.313  0.0778 -0.1166  0.1063
10906W        W27090   3.930   3.071  10.903 -0.3563 -0.1408 -0.1067
10907W        W27091  17.736  12.941  13.211 -0.2225 -0.0784 -0.1818
10908W        W27092  18.531  18.766   4.223 -0.3738  0.1606 -0.3373
10909W        W27093  14.601   0.398  11.425 -0.0869  0.0997  0.0443
10910W        W27094   0.663   2.878   4.181 -0.0735 -0.1194 -0.0768
10911W        W27095  17.939  12.675  10.192  0.0514  0.4896 -0.0591
10912W        W27096   5.663  16.529  12.931 -0.4330 -0.4588  0.0598
10913W        W27097  16.437  17.580   1.443 -0.4102 -0.0228  0.1064
10914W        W27098   6.632   8.001   5.037 -0.2617 -0.3439 -0.3322
10915W        W27099   3.355   3.984   1.699 -0.0016  0.1142  0.0823
10916W        W27100   0.062   6.482   2.052 -0.1626  0.7958  0.1389
10917W        W27101   4.443  16.486  11.709 -0.0482 -0.0860  0.1673
10918W        W27102   1.053  18.977  13.843  0.1247 -0.1331 -0.0984
10919W        W27103  15.545   5.814   0.066  0.3461  0.2080  0.0825
10920W        W27104  12.825   3.287  11.006  0.1735  0.0783 -0.4622
10921W        W27105  10.117   1.520   3.755 -0.0987 -0.0376  0.1216
10922W        W27106   6.642   8.816  13.756  0.0343 -0.0959  0.0095
10923W        W27107  10.616   5.276   4.217  0.2505  0.3330  0.1006
10924W        W27108  18.132  13.272   3.729  0.0788  0.2000  0.1947
10925W        W27109  10.572  11.561  10.511  0.1053 -0.2575  0.3010
10926W        W27110   5.355   5.975  10.688 -0.2692 -0.2517 -0.0836
10927W        W27111  13.679   5.225  10.786 -0.2570  0.2292  0.1169
10928W        W27112  18.687   5.067   1.858 -0.1257  0.1091  0.1649
10929W        W27113   6.960  10.840  11.310 -0.1007 -0.1688  0.0831
10930W        W27114   6.076   6.231  11.614  0.2093 -0.1128 -0.3408
10931W        W27115  16.932   4.904   0.498 -0.0087 -0.0249  0.0041
10932W        W27116   0.037  12.474   4.375 -0.2919 -0.1485  0.0990
10933W        W27117  11.111   7.566  11.518  0.1605 -0.3002  0.1846
10934W        W27118   0.286  16.617   1.586 -0.1359 -0.1550 -0.0015
10935W        W27119   9.989  13.072  13.509 -0.1231 -0.1493 -0.3122
10936W        W27120   1.103   4.200   1.791  0.1438  0.0532  0.1583
10937W        W27121  10.566   0.455  12.791  0.4839  0.0366 -0.1700
10938W        W27122   1.069  15.681   9.973 -0.1265  0.1193  0.0125
10939W        W27123   1.980  12.294   0.249 -0.0898  0.4653 -0.1176
10940W        W27124  12.473   6.090  13.058 -0.0820 -0.0725  0.2007
10941W        W27125  15.374  10.892   5.069  0.2122 -0.0827  0.0296
10942W        W27126   4.917   5.263   3.853  0.0028 -0.1352  0.1922
10943W        W27127  14.465   5.390   4.684  0.4528  0.1430  0.0814
10944W        W27128  17.832   9.319   4.759 -0.1223  0.0646 -0.2083
10945W        W27129   4.471   7.552   4.381 -0.1880 -0.0160 -0.3148
10946W        W27130  12.122  11.468   2.907  0.3509  0.2426  0.3298
10947W        W27131  17.671  13.076  12.706 -0.0985 -0.2327  0.1406
10948W        W27132  14.055   8.717   0.491  0.1434  0.0410  0.2375
10949W        W27133   7.920  16.745   1.061 -0.0980 -0.0022  0.0395
10950W        W27134   5.369  10.604   2.461 -0.0831 -0.1207 -0.1277
10951W        W27135   6.025  11.276  12.125 -0.0764  0.0919  0.1036
10952W        W27136   1.671   9.618   3.305  0.0608 -0.4624 -0.1164
10953W        W27137   7.580   1.611   5.243  0.0939 -0.0888  0.0265
10954W        W27138  17.466   5.503  15.194  0.2708 -0.2857 -0.1098
10955W        W27139   4.017  14.403  15.006  0.0127  0.1469 -0.3548
10956W        W27140   0.591   5.434  11.285  0.1537  0.0584 -0.0077
10957W        W27141   6.685  14.149  11.931  0.0036  0.0197 -0.3141
10958W        W27142   3.176   7.029   4.687  0.2448  0.1468  0.1429
10959W        W27143   7.911   7.646  14.506 -0.1393 -0.0365  0.0641
10960W        W27144  17.917   1.959   3.128  0.0199 -0.0842  0.0818
10961W        W27145   3.962   9.755   3.762 -0.2725  0.0228 -0.1323
10962W        W27146  12.807  14.215  11.688  0.1004  0.2436 -0.0191
10963W        W27147   0.363   3.322   1.400  0.0721 -0.0029  0.1553
10964W        W27148   0.124  11.248   1.170  0.2014  0.1689 -0.0971
10965W        W27149   6.561   2.550   0.968 -0.1268 -0.1118 -0.0602
10966W        W27150   1.704   3.427   1.136  0.1066 -0.3883  0.2386
10967W        W27151   1.186   9.218   3.567 -0.1104 -0.0260  0.0479
10968W        W27152   1.748  18.814   0.958  0.0025 -0.0801 -0.0158
10969W        W27153  14.497  18.386  11.114  0.0534 -0.0795 -0.0011
10970W        W27154   0.186   7.842  13.657 -0.2086 -0.0771  0.2726
10971W        W27155  12.674  13.199  14.445  0.1226  0.0236  0.1191
10972W        W27156  15.664   8.516   1.268  0.0013  0.1836 -0.3052
10973W        W27157   0.615  15.441  10.973  0.0741 -0.0260  0.0093
10974W        W27158   6.917   1.423   3.791 -0.0120 -0.1251  0.1599
10975W        W27159  11.158   4.505   4.163 -0.3542 -0.3131 -0.0296
10976W        W27160   9.148   1.953  10.958  0.2311 -0.2778  0.2018
10977W        W27161  18.092  13.577   3.369  0.0592 -0.0145  0.1729
10978W        W27162  11.388   1.033   3.335  0.1087  0.0885 -0.3391
10979W        W27163   9.750  12.859   1.321 -0.0024 -0.1414  0.4233
10980W        W27164  16.074  16.970   3.601 -0.0428  0.3365  0.1610
10981W        W27165  15.486  11.704   1.473  0.2153 -0.0162  0.0751
10982W        W27166   7.552   5.609   0.625  0.1392  0.1533 -0.2000
10983W        W27167   4.809  15.263   2.835 -0.0262 -0.0324  0.3273
10984W        W27168   1.782   7.902  14.081 -0.1984 -0.0169  0.0707
10985W        W27169  13.880  11.708   0.434 -0.2322  0.2765  0.0334
10986W        W27170  14.284  12.645   2.471  0.0370 -0.2993 -0.1220
10987W        W27171  11.157  12.969  12.422 -0.1325  0.0342  0.0687
10988W        W27172   7.480  14.868  12.498 -0.1118  0.0963 -0.2950
10989W        W27173  15.750  10.944  13.346  0.0585  0.0779  0.0529
10990W        W27174  12.294  15.604  12.641 -0.0744 -0.0153  0.0485
10991W        W27175  10.142   4.904   2.066 -0.1615  0.1267  0.1192
10992W        W27176   8.016  17.151  10.728  0.0470  0.1027 -0.3364
10993W        W27177  15.936  12.703  13.500  0.2455 -0.0038  0.1927
10994W        W27178   4.300  12.609  12.374  0.2823 -0.6307 -0.1881
10995W        W27179  12.524   5.583   1.196 -0.1567 -0.0492 -0.1369
10996W        W27180   8.233  14.954  10.932 -0.0149 -0.2981 -0.2493
10997W        W27181  17.058   6.707  14.595  0.0039  0.1391  0.4182
10998W        W27182   0.265  12.919  11.919  0.0922 -0.0425 -0.1661
10999W        W27183  10.587   1.568  12.981 -0.1675 -0.0109 -0.0434
11000W        W27184   4.623  15.556  11.808 -0.1661  0.3924  0.3946
11001W        W27185  11.063  18.531   4.153  0.2049  0.0479  0.1688
11002W        W27186   5.841  17.984   4.001 -0.3176 -0.1244 -0.0670
11003W        W27187   4.998   7.953  12.597 -0.0926  0.0179  0.1930
11004W        W27188  17.735   6.790   2.354 -0.2076  0.1412 -0.1542
11005W        W27189   3.383  16.798   4.023 -0.2076 -0.0911 -0.1665
11006W        W27190   7.535  11.987   2.929  0.0262  0.1389 -0.0145
11007W        W27191  15.436   8.087   1.035  0.1088  0.2597 -0.1072
11008W        W27192   8.859  11.783  15.371  0.3356 -0.0781  0.0795
11009W        W27193   0.779  12.478  15.042  0.0055  0.2275 -0.0735
11010W        W27194  11.041  13.874   9.584 -0.2113  0.2341  0.2015
11011W        W27195   5.639  18.684  13.950 -0.5536 -0.0094 -0.1208
11012W        W27196  11.889  12.189  12.350 -0.1071  0.0579  0.2637
11013W        W27197  11.695   3.398  13.322 -0.0192 -0.3463  0.1345
11014W        W27198   1.221  18.613  13.440  0.0556 -0.1009 -0.1260
11015W        W27199   1.086   3.700  13.907  0.1024  0.1118  0.1298
11016W        W27200   8.755  16.486  14.222  0.2122  0.1275  0.1174
11017W        W27201  12.194   6.007  14.737  0.0403 -0.0428 -0.1823
11018W        W27202   8.308  10.012   3.931 -0.1059  0.1348  0.1876
11019W        W27203   2.763   0.242  12.708 -0.0484 -0.1737 -0.0506
11020W        W27204   4.540  17.207  12.558  0.4223 -0.1546 -0.1418
11021W        W27205  14.975   9.521   0.446 -0.3162 -0.0516  0.3669
11022W        W27206   0.872   1.996  10.948 -0.0331  0.1307 -0.0160
11023W        W27207   1.108  13.132  13.930 -0.0947  0.1368 -0.1866
11024W        W27208  13.561   2.652   1.590 -0.1553 -0.1685  0.1250
11025W        W27209  10.428  14.684   4.480  0.1499 -0.0006 -0.1963
11026W        W27210  18.517  18.527   3.450  0.0544 -0.2959 -0.2629
11027W        W27211  12.562   2.579  13.744  0.3411 -0.1302 -0.2340
11028W        W27212   3.219  14.326  10.621  0.1019  0.2597  0.0701
11029W        W27213   2.185  11.576   1.429  0.0819  0.2526  0.1974
11030W        W27214   3.981   8.626  12.455  0.0725  0.2779 -0.2449
11031W        W27215  13.744   1.720   0.145 -0.4880 -0.3519 -0.3181
11032W        W27216   1.417   0.320  13.978 -0.0064 -0.0821  0.0676
11033W        W27217   5.882   2.397   4.658  0.1993 -0.1485  0.1906
11034W        W27218   6.215  11.824  12.211  0.0893  0.3176  0.0524
11035W        W27219  12.361   9.730   5.095 -0.2369 -0.2013 -0.0077
11036W        W27220  12.279   7.375   1.763 -0.0681  0.0539 -0.0580
11037W        W27221  13.546   9.961   4.933  0.2114 -0.0443 -0.1989
11038W        W27222  17.829   8.664  12.256  0.1632  0.0221 -0.0622
11039W        W27223  15.881  14.001  15.087 -0.0110  0.0488  0.3250
11040W        W27224   3.906   2.649   4.063  0.3090 -0.0094  0.1471
11041W        W27225  14.115  12.589  14.453  0.1496 -0.0939  0.0393
11042W        W27226   1.617   3.184  13.312 -0.1829 -0.5135 -0.0899
11043W        W27227   3.594  13.606  14.951 -0.1580  0.1280  0.3722
11044W        W27228  18.872   7.464   0.521 -0.0603 -0.4147  0.2731
11045W        W27229   4.566   1.477   0.203 -0.1399  0.0440 -0.0783
11046W        W27230  17.183  12.922   1.269  0.0259 -0.1552 -0.0241
11047W        W27231   5.604   6.425   0.298 -0.0591 -0.2414 -0.1146
11048W        W27232  11.283   7.138  13.933 -0.2299  0.1199  0.0999
11049W        W27233   8.439   0.130   0.780  0.0410 -0.0624 -0.1771
11050W        W27234   3.568   6.421  11.133  0.0402 -0.1410  0.2280
11051W        W27235  12.409   1.226  12.674  0.0130 -0.3285 -0.0292
11052W        W27236   2.246  16.857  13.534 -0.1634 -0.1814 -0.0125
11053W        W27237  11.688  17.014  14.298 -0.1898 -0.5109 -0.1857
11054W        W27238   0.697  10.141   4.836 -0.1909 -0.2690 -0.0390
11055W        W27239   7.980  16.200   4.524  0.0677  0.2544  0.1872
11056W        W27240  13.872   2.977  13.838  0.0431  0.0240 -0.1777
11057W        W27241  15.469  12.430  15.377 -0.2004 -0.1202 -0.3503
11058W        W27242   9.200  16.808   0.442 -0.0703 -0.1131  0.0400
11059W        W27243   0.806   2.738  11.277 -0.2585  0.0383  0.3879
11060W        W27244   3.495  14.839  10.775 -0.0035  0.4518 -0.1556
11061W        W27245   7.119   4.241   4.746  0.1731 -0.0387 -0.1783
11062W        W27246   5.896  15.942  10.800 -0.0869 -0.1899 -0.1578
11063W        W27247   9.697   3.631  10.840  0.2999  0.1446  0.0845
11064W        W27248   1.661   0.845   2.005  0.0504 -0.0124  0.1790
11065W        W27249   3.731   2.851   2.519 -0.0706  0.0628  0.1871
11066W        W27250  18.990  14.565   3.304  0.0636  0.1747 -0.3730
11067W        W27251  17.228  18.708   4.808 -0.2401 -0.1002 -0.1385
11068W        W27252  16.769  15.274  10.034  0.2186  0.0144  0.0068
11069W        W27253  17.556   3.032  11.718  0.0656  0.1687 -0.1262
11070W        W27254  18.245   4.136   4.544  0.2100 -0.0250  0.1036
11071W        W27255  16.506  10.311   3.436  0.0724 -0.2120  0.0396
11072W        W27256   9.621  12.514  11.378 -0.1661  0.0974  0.1016
11073W        W27257  10.748   2.358   3.119 -0.1549  0.3550  0.3510
11074W        W27258  12.047   4.519   3.318 -0.0141  0.0789  0.1966
11075W        W27259   6.396   4.974  13.386  0.1626 -0.1107 -0.1954
11076W        W27260   5.857   5.382   0.658  0.2810  0.0925  0.0603
11077W        W27261   9.580  15.175   4.337  0.0730 -0.4538 -0.1501
11078W        W27262   3.797   9.087  12.472  0.1018  0.2335 -0.2424
11079W        W27263   0.059   0.790  13.978  0.1702  0.2141  0.2132
11080W        W27264  18.763   0.890  12.630  0.1484 -0.1414  0.0707
11081W        W27265   4.533  18.866  14.171  0.2899 -0.0464 -0.1683
11082W        W27266  18.225  14.493   3.870 -0.0952 -0.1203  0.0239
11083W        W27267   5.826   5.778  10.837 -0.1383 -0.2905 -0.2129
11084W        W27268   0.902  16.680   2.490 -0.2016  0.0721 -0.0520
11085W        W27269   9.917   2.699  14.904  0.0293  0.1348 -0.1542
11086W        W27270  18.837  10.600  11.038  0.2300 -0.2083 -0.2302
11087W        W27271  14.814  14.139   2.144  0.3080 -0.0073 -0.0001
11088W        W27272   8.647   6.171   5.694 -0.0817 -0.1201 -0.3626
11089W        W27273  18.618   3.433  11.070  0.4477 -0.1281 -0.2939
11090W        W27274  11.312  15.395  11.026 -0.2291 -0.0835 -0.1164
11091W        W27275   4.766   1.836   5.632 -0.1254  0.0474 -0.1923
11092W        W27276  12.658   0.455   4.146  0.0851  0.1470  0.0505
11093W        W27277  18.740   7.205   5.206 -0.0162 -0.1447 -0.0991
11094W        W27278   9.388   7.775  14.279 -0.3230 -0.0839  0.1229
11095W        W27279   5.903  11.617  10.838  0.3325  0.0829 -0.1677
11096W        W27280   8.493   6.342  14.833 -0.0686  0.1811  0.3750
11097W        W27281  11.796   2.879  11.571 -0.2577 -0.2346  0.1879
11098W        W27282  11.261  10.509  13.200 -0.1479 -0.0508 -0.0372
11099W        W27283   3.352   7.246   5.086 -0.0763  0.0090 -0.0489
11100W        W27284  14.166   3.106   3.350 -0.1624  0.1734 -0.1357
11101W        W27285  16.500   5.009  14.494  0.3381  0.0205 -0.3582
11102W        W27286  11.445  14.110   4.380  0.2160  0.2430 -0.1403
11103W        W27287  13.608   1.917   2.537 -0.1881  0.0923  0.2365
11104W        W27288  18.865  17.244   5.082  0.2707  0.0377 -0.1863
11105W        W27289   3.923   7.503  14.251  0.2432 -0.0522  0.2857
11106W        W27290   6.543   5.471  14.216 -0.1185 -0.6452 -0.0773
11107W        W27291   9.874  18.835   3.552  0.3731  0.1672 -0.0948
11108W        W27292   6.817   9.123  12.825 -0.1489 -0.0704  0.0060
11109W        W27293  10.832  11.862   1.184 -0.1233  0.0685  0.1851
11110W        W27294  11.253   5.659   2.023 -0.0427 -0.0338 -0.0799
11111W        W27295  16.324   7.108  14.549 -0.0719  0.1820  0.0730
11112W        W27296  10.599  14.245   4.215 -0.0069  0.3597  0.1150
11113W        W27297  17.293   2.553   3.369  0.1174  0.3896 -0.1896
11114W        W27298   1.111  17.379  14.201  0.0707  0.2906 -0.1288
11115W        W27299   3.287  18.151   3.384 -0.4864  0.3269 -0.1298
11116W        W27300  18.774  17.209  12.030  0.0765 -0.1128 -0.0084
11117W        W27301  18.409  11.624  13.189  0.0848 -0.3402 -0.1733
11118W        W27302  17.194   6.277   2.808  0.0168 -0.2200 -0.2208
11119W        W27303   2.708  11.532   4.164 -0.0820 -0.2123 -0.1233
11120W        W27304   3.766   8.985   0.166  0.1948  0.3571  0.3946
11121W        W27305  10.672   2.392  12.491  0.0656  0.3641  0.2402
11122W        W27306  14.883  15.470  15.169 -0.0510  0.0344  0.1455
11123W        W27307  18.091  17.178  14.549 -0.2513  0.0334  0.4955
11124W        W27308   5.352  15.653  13.220  0.0712 -0.3350  0.2721
11125W        W27309   2.556   5.935  15.281  0.1169 -0.1268 -0.0858
11126W        W27310   2.840  16.977   0.265 -0.1930 -0.2581  0.2350
11127W        W27311  14.880   8.243   1.069  0.2440  0.1034  0.2249
11128W        W27312  16.736  18.139  14.264 -0.1540 -0.1456 -0.2131
11129W        W27313   1.935   2.917  11.782  0.2772 -0.2392 -0.1504
11130W        W27314   8.148   4.166  14.908  0.2188  0.1528  0.1901
11131W        W27315   1.467   2.054   1.408  0.2614 -0.0641 -0.2993
11132W        W27316  13.654  14.021   1.545  0.1633  0.0450 -0.1076
11133W        W27317  12.195  17.771   0.502  0.0854  0.0515 -0.0149
11134W        W27318  16.946   0.207   2.367 -0.1772 -0.0156  0.0546
11135W        W27319   9.408  15.233   5.159  0.0689  0.0792  0.2266
11136W        W27320   1.127   3.977   3.422 -0.2402  0.0007 -0.0803
11137W        W27321  11.376   1.605  12.572  0.1397  0.4419  0.3549
11138W        W27322   8.800   3.067  11.834 -0.1740 -0.1206 -0.2837
11139W        W27323   2.990   9.955   2.178  0.0816 -0.2810 -0.0557
11140W        W27324  11.901   1.176  11.310  0.3406  0.0597 -0.2337
11141W        W27325   9.910   9.694   4.344 -0.0431  0.0414 -0.0753
11142W        W27326   3.321   8.882  11.720 -0.2540 -0.3673  0.0660
11143W        W27327   8.088   6.409  11.900  0.1436  0.0796  0.0770
11144W        W27328   9.531  16.978   3.689 -0.1618  0.0516 -0.0305
11145W        W27329  12.452   1.027  11.396 -0.0144 -0.0923  0.3287
11146W        W27330  17.237   9.849   3.281 -0.0794  0.0490 -0.0817
11147W        W27331  11.989   9.559   2.047  0.2094 -0.2465 -0.4698
11148W        W27332  15.414   7.878   0.153  0.0068 -0.0899  0.0503
11149W        W27333  14.104  14.234  12.598  0.3478 -0.1923 -0.2561
11150W        W27334  17.261  14.962   4.726 -0.0198 -0.0011  0.2549
11151W        W27335  16.721   2.944  12.043  0.0456 -0.0462 -0.1458
11152W        W27336  17.995   2.547   0.312 -0.0660  0.0376 -0.2536
11153W        W27337   3.248   7.015   2.909 -0.0942  0.2314  0.0334
11154W        W27338   3.403   3.849  15.266  0.0054 -0.1428 -0.0624
11155W        W27339  10.202  11.576   3.448  0.2813 -0.0143  0.5746
11156W        W27340   9.808  16.375   0.644  0.0451  0.2216  0.1111
11157W        W27341  17.599  17.387  14.528  0.2417  0.4410 -0.0755
11158W        W27342  17.162   2.208   3.755 -0.2172 -0.0720 -0.0803
11159W        W27343   5.758   2.486   3.944 -0.4061  0.0949 -0.1738
11160W        W27344  11.373   2.801   0.647 -0.0006 -0.3173 -0.0795
11161W        W27345  11.790  18.798  15.199 -0.1865  0.1461  0.2288
11162W        W27346   6.413  13.039  10.067  0.2333 -0.2433 -0.0269
11163W        W27347   5.800   4.296   2.589  0.0796  0.0290  0.1084
11164W        W27348  10.202   4.831  14.438 -0.1159 -0.0991 -0.2008
11165W        W27349  15.517  14.947  12.400 -0.1356  0.1773 -0.2086
11166W        W27350   7.789  10.670  10.303 -0.1563  0.1813 -0.0973
11167W        W27351   0.971  18.767   1.595  0.0410 -0.0565  0.0676
11168W        W27352   9.083   6.081  11.350 -0.1227 -0.0973 -0.3918
11169W        W27353   8.807  13.297   1.379 -0.1622 -0.4187 -0.0189
11170W        W27354   9.945  10.375  13.692  0.2335  0.1611 -0.0967
11171W        W27355   2.327   1.249   3.991  0.0391  0.0679  0.1119
11172W        W27356   5.809   8.374  11.033 -0.0395  0.0101  0.4157
11173W        W27357   0.142  12.964   0.297 -0.0819 -0.0687  0.1572
11174W        W27358   7.547  11.611   3.770 -0.2049  0.1444 -0.1384
11175W        W27359  10.011   3.292   0.808  0.1127  0.0221 -0.0341
11176W        W27360   0.395  12.635   3.304  0.0055  0.0527 -0.1176
11177W        W27361  10.747   4.637   2.736  0.0243 -0.4348 -0.1752
11178W        W27362  13.056  11.140   3.805 -0.1781 -0.2363  0.0890
11179W        W27363   2.055   5.685  14.116  0.1171 -0.0550  0.2830
11180W        W27364   4.749   3.241  12.431  0.2593  0.0543  0.1222
11181W        W27365  10.607  10.727   2.788  0.1741  0.3038 -0.0514
11182W        W27366  10.190  15.902   4.044  0.1121 -0.0079  0.0859
11183W        W27367   8.312   7.986  14.723  0.0551  0.0246 -0.2464
11184W        W27368   5.161   7.641  11.933  0.0295 -0.2748 -0.3472
11185W        W27369  15.068   9.577  14.423  0.1383 -0.0205  0.0572
11186W        W27370  12.034  10.122   4.451 -0.0830  0.1160  0.2442
11187W        W27371   0.912   3.386  14.818  0.0956  0.1530 -0.3158
11188W        W27372  15.297   4.112   4.279  0.2493 -0.3036 -0.1318
11189W        W27373  11.313  16.891   5.009  0.2846  0.0953 -0.1730
11190W        W27374   4.581   1.669  10.581 -0.0784  0.4232 -0.0832
11191W        W27375   0.161   9.313   3.603  0.2374  0.1168  0.1521
11192W        W27376   4.867  16.834  11.198  0.0460  0.0008  0.0028
11193W        W27377   2.051  18.563  13.797 -0.4109  0.2200 -0.1147
11194W        W27378   9.803  18.645  13.831 -0.0859  0.5496 -0.0493
11195W        W27379   7.850  16.302  13.974  0.1076 -0.0541  0.1873
11196W        W27380   4.725   5.016  10.251 -0.0449  0.4467 -0.2093
11197W        W27381   3.241   2.851   2.976 -0.1019 -0.0259  0.0590
11198W        W27382   3.156   6.623   0.419  0.1520  0.0336  0.2375
11199W        W27383   0.720   5.144   0.558  0.2689 -0.1766  0.1127
11200W        W27384   6.026   7.671   1.623 -0.1315  0.0044 -0.4039
11201W        W27385   5.614  10.440  11.371  0.3492 -0.0882  0.0444
11202W        W27386   0.216  13.640  13.072  0.0951  0.0568  0.2864
11203W        W27387   5.844   8.960  12.460  0.0283 -0.1345  0.0956
11204W        W27388  17.724   5.485  13.155  0.2869  0.4292  0.1166
11205W        W27389   0.777  17.436   5.123  0.0258  0.0384 -0.0609
11206W        W27390  17.188   2.368   2.102  0.1271  0.1910 -0.0675
11207W        W27391   0.252   1.585  12.544  0.3471  0.1195 -0.1364
11208W        W27392  14.783   6.854   0.951 -0.0284  0.1747 -0.0069
11209W        W27393  13.704   2.547   4.356  0.2025 -0.2028 -0.3332
11210W        W27394   8.942  16.244  12.544  0.3263 -0.0551  0.0573
11211W        W27395  15.016   0.144   4.945 -0.0818  0.0034  0.1156
11212W        W27396  18.111  16.581  11.462 -0.0630 -0.1069 -0.0772
11213W        W27397  11.406  16.329  12.587 -0.0802  0.3257  0.1077
11214W        W27398  12.128  17.343   1.401  0.2164  0.1499  0.0038
11215W        W27399  13.866  15.738   3.725 -0.0054 -0.2207  0.4748
11216W        W27400   8.752   2.552  15.208  0.1969 -0.1102  0.0727
11217W        W27401  18.610  10.393  11.423  0.0300  0.2549 -0.2756
11218W        W27402   4.906   1.435  14.008  0.1842 -0.0903 -0.1598
11219W        W27403  11.333  10.167  11.915  0.2454  0.2045  0.1676
11220W        W27404   5.843  17.431   4.690  0.2318  0.1131  0.1329
11221W        W27405   6.521  11.490  15.233  0.0818 -0.0052 -0.1949
11222W        W27406  14.629   8.709   2.115  0.0222 -0.0778  0.1440
11223W        W27407   2.046   4.753  12.840 -0.1782 -0.1612  0.1611
11224W        W27408  10.275   1.414   3.287 -0.0593  0.0825  0.2107
11225W        W27409   5.159  10.560  15.019 -0.1801 -0.4608 -0.2075
11226W        W27410   4.631  17.465   4.205 -0.1063 -0.1453  0.3661
11227W        W27411  16.158   5.951   0.821 -0.0429  0.0666 -0.2776
11228W        W27412   3.919  15.853  11.061  0.1401  0.2373 -0.0211
11229W        W27413   7.685  17.797  14.549  0.0756  0.1879  0.0737
11230W        W27414  13.883   9.428   4.722  0.1418 -0.2644  0.1248
11231W        W27415   0.562  11.081   0.427  0.1011 -0.0927  0.3458
11232W        W27416  16.186   1.424  11.993 -0.0533 -0.1132 -0.2040
11233W        W27417  15.025  14.808   4.956 -0.2178 -0.0854  0.5356
11234W        W27418   3.851   3.583   1.741  0.0666 -0.2438  0.0515
11235W        W27419   1.465   0.033  12.615 -0.3141  0.1239 -0.0469
11236W        W27420   8.017  13.995  15.339  0.0016  0.1519 -0.0963
11237W        W27421  13.249   3.775  13.960  0.1412 -0.0819 -0.0199
11238W        W27422  13.693  13.477   0.377 -0.2870 -0.1461 -0.0994
11239W        W27423  15.792  11.213   5.083 -0.0068 -0.1404 -0.0549
11240W        W27424  18.931  13.376   2.530  0.0407 -0.1663 -0.2128
11241W        W27425  17.205   4.335  14.060 -0.3665  0.2419 -0.2003
11242W        W27426   9.316   9.031  14.921  0.2000  0.2411  0.0815
11243W        W27427  15.793   6.716  11.987 -0.1255  0.0997  0.5016
11244W        W27428  13.351  17.342   3.945 -0.0253 -0.0321  0.0652
11245W        W27429   1.604   3.848   4.950  0.1147 -0.2385 -0.1480
11246W        W27430   0.761  10.154   0.103  0.2722 -0.1816  0.2996
11247W        W27431   2.637  14.621  15.301  0.0221  0.1591  0.0040
11248W        W27432  10.087  10.883   2.773 -0.1387  0.0294  0.1892
11249W        W27433   9.127  16.619   4.677  0.1215  0.1571 -0.3329
11250W        W27434  11.358   9.468   4.900 -0.0514  0.0012 -0.0313
11251W        W27435   5.746  13.670  14.676 -0.0789  0.2328  0.1693
11252W        W27436   4.995   1.048   4.518  0.0302  0.1964  0.3144
11253W        W27437   2.935  12.646  12.401 -0.1142  0.0522 -0.0630
11254W        W27438  13.767   1.853   2.067  0.0837 -0.0794  0.0938
11255W        W27439  11.342  17.133  13.888  0.0184 -0.0116  0.1748
11256W        W27440  14.878  13.193  14.658 -0.0281 -0.1222 -0.0564
11257W        W27441   4.673   0.251  13.323 -0.2760  0.3385 -0.0451
11258W        W27442  17.128   9.667  13.893  0.4127 -0.4351 -0.3938
11259W        W27443  18.855   9.518   0.626 -0.0318  0.3221 -0.1067
11260W        W27444   7.493   0.674   1.752  0.2795  0.0732 -0.0481
11261W        W27445   2.536   0.938  11.990  0.3204  0.0641  0.2870
11262W        W27446   0.742   2.977  14.388 -0.0045  0.1499 -0.0286
11263W        W27447  13.617  12.022  12.760  0.1427  0.1399 -0.0450
11264W        W27448  15.476  12.853  13.703 -0.3978  0.2162  0.2245
11265W        W27449  17.997  11.035   5.650 -0.2984  0.0267  0.0025
11266W        W27450  11.219  12.188   3.175  0.0197  0.0099 -0.2205
11267W        W27451   4.947  12.859  12.859  0.2746  0.4374 -0.0326
11268W        W27452   0.178  13.808   1.629  0.1491  0.1072 -0.0718
11269W        W27453  11.642  18.818   5.641 -0.1321 -0.1540 -0.2367
11270W        W27454  18.771  16.574  10.957 -0.0742  0.0568  0.1262
11271W        W27455  14.035   9.470   4.117  0.0035  0.0132  0.0349
11272W        W27456  16.041  10.193  10.487 -0.0658 -0.1092  0.0102
11273W        W27457   9.073   3.102  14.560  0.2573 -0.2317  0.0978
11274W        W27458  17.155   7.212   2.583  0.1711  0.3509 -0.1479
11275W        W27459   8.239  15.762  13.103 -0.0632 -0.3208 -0.0686
11276W        W27460  18.785   6.126  11.622  0.0686  0.2675 -0.1315
11277W        W27461   7.580  10.732  14.784  0.1288  0.0250  0.0164
11278W        W27462   3.178   4.763   3.576 -0.2365  0.0228  0.1429
11279W        W27463   9.762  18.444   2.629 -0.3723 -0.4408  0.0062
11280W        W27464  16.333   2.164  14.843 -0.0583 -0.2542 -0.0637
11281W        W27465  14.359  16.129  15.240 -0.0270 -0.1461  0.0854
11282W        W27466   6.522   3.218  12.869 -0.2711 -0.2092 -0.1657
11283W        W27467   9.938   5.408  12.306  0.0957  0.2497 -0.0166
11284W        W27468  10.924  13.724   4.129 -0.1064 -0.0418 -0.0063
11285W        W27469  11.075  10.119   4.403  0.4288  0.0599 -0.0440
11286W        W27470   6.177   2.382  12.877  0.1253  0.1047 -0.2382
11287W        W27471  13.398   5.540  10.541  0.0817  0.2670  0.0369
11288W        W27472   6.756   1.605  14.778 -0.1299  0.0121  0.3297
11289W        W27473  12.958   4.253  14.645 -0.1113 -0.2942  0.0080
11290W        W27474  12.600   0.480   4.659 -0.1297 -0.0331 -0.2660
11291W        W27475  16.177  13.009  12.640  0.0696 -0.2013  0.0729
11292W        W27476   6.018   4.664  13.430 -0.4278 -0.1739 -0.2004
11293W        W27477  18.478  18.591   2.142  0.1650  0.1578 -0.0772
11294W        W27478  15.268   0.980   4.942 -0.1009  0.3084 -0.0435
11295W        W27479   1.617  16.969   2.730 -0.1390 -0.0811 -0.2068
11296W        W27480   5.265   8.426   2.492 -0.0067 -0.0880 -0.2429
11297W        W27481  17.510  17.829   4.815  0.2621 -0.0254  0.0389
11298W        W27482   0.927   0.325  10.184 -0.2682 -0.2362  0.0967
11299W        W27483  15.484  17.730  11.882  0.0649  0.1625 -0.1212
11300W        W27484   5.082   5.851   2.944  0.4449 -0.4900  0.1596
11301W        W27485   7.234  10.487  14.508  0.3130 -0.1743  0.1848
11302W        W27486  11.491  15.599   4.036 -0.2205  0.2762 -0.2752
11303W        W27487   7.178   7.425   1.767  0.0280  0.1975  0.0883
11304W        W27488   7.836  14.000  10.836  0.0708 -0.0152  0.2031
11305W        W27489  10.314   4.964   4.447  0.1465 -0.2254  0.0869
11306W        W27490   3.532   3.187   5.267  0.1034 -0.1817 -0.1466
11307W        W27491   0.261  14.486   0.955 -0.0127 -0.1356  0.3860
11308W        W27492   8.721   1.131  10.971 -0.2793 -0.0472 -0.0393
11309W        W27493  11.209  12.343  14.384  0.1118 -0.3160  0.1409
11310W        W27494  10.198   4.417   4.776  0.1831  0.1115  0.0557
11311W        W27495   8.075  13.640   0.665 -0.4832  0.2860  0.1611
11312W        W27496  14.477  11.969   1.990 -0.0798  0.0879  0.1583
11313W        W27497   4.807   9.365  11.059 -0.2104 -0.1101 -0.3812
11314W        W27498   7.334   2.599  14.126  0.0603  0.1522  0.0198
11315W        W27499  18.228   7.412   2.979  0.0041  0.2208  0.0193
11316W        W27500   7.939  15.451  12.741 -0.4905 -0.0595 -0.0828
11317W        W27501  16.916   5.447  13.776  0.0800  0.0090 -0.3667
11318W        W27502   0.755   4.625   0.591 -0.0311 -0.2064  0.1196
11319W        W27503   2.727  10.097  14.500  0.0732  0.2730  0.1753
11320W        W27504  14.178   6.088   1.217  0.0525 -0.1159 -0.0800
11321W        W27505   8.347   3.324  11.737  0.0268  0.0489  0.2079
11322W        W27506   8.145   9.123  15.010  0.0410  0.1248 -0.0954
11323W        W27507   3.370  11.580   0.257 -0.1757 -0.1086 -0.1125
11324W        W27508   8.038   9.605  14.735  0.0900 -0.1160 -0.0892
11325W        W27509   6.784  10.505  14.904 -0.1755  0.1522 -0.0730
11326W        W27510   7.942   0.822   0.364  0.2204 -0.2655 -0.0024
11327W        W27511  13.344  15.265   4.345  0.0110  0.3001  0.2615
11328W        W27512   6.982  10.244   3.631  0.2629  0.4204  0.1541
11329W        W27513   8.639  13.608  11.932  0.0143  0.0762  0.1015
11330W        W27514   4.888  18.064  11.128  0.1758 -0.0524 -0.0691
11331W        W27515   9.330  11.914  14.217 -0.0099 -0.4809  0.1101
11332W        W27516  12.446  10.555   5.021 -0.2168  0.0902  0.1411
11333W        W27517  10.803   1.177  15.288 -0.4479  0.2045  0.3041
11334W        W27518  17.148  13.036   3.406 -0.2784  0.1367  0.0309
11335W        W27519  13.307  11.466  13.883 -0.1040  0.0614  0.0477
11336W        W27520  18.508   9.754   3.367  0.1812  0.1689  0.0210
11337W        W27521   3.886   1.752  13.324  0.2304  0.4316 -0.0041
11338W        W27522   8.844  13.591   2.760  0.0254  0.3702 -0.1234
11339W        W27523   2.912  15.485   2.897 -0.1268 -0.0558  0.3453
11340W        W27524  18.549   6.283  15.203  0.0998 -0.0158  0.2753
11341W        W27525  18.064   0.656   4.309  0.2212 -0.0283  0.1821
11342W        W27526   6.010   6.805  13.336 -0.0761  0.0428 -0.0128
11343W        W27527  18.946   5.669  12.850  0.0963 -0.2085 -0.3059
11344W        W27528  10.104   1.056  10.778  0.1819  0.2940  0.2767
11345W        W27529  17.722  12.174  12.117  0.1444  0.1228 -0.1202
11346W        W27530   1.781   8.257   3.128 -0.0342 -0.1250 -0.3575
11347W        W27531   5.683  18.325   0.211  0.0927  0.3956 -0.3334
11348W        W27532  12.787  17.780   2.370  0.1441 -0.2228 -0.3476
11349W        W27533   2.993  12.803   2.408 -0.0257 -0.0744  0.0670
11350W        W27534  14.570   1.478  13.562 -0.1564 -0.1137 -0.0887
11351W        W27535  16.778   3.593  13.686 -0.1414 -0.1005 -0.2086
11352W        W27536   0.154  13.071  12.539 -0.1124  0.1745 -0.0629
11353W        W27537  14.432   6.937   2.911 -0.2254 -0.1332 -0.3649
11354W        W27538   3.803  12.199  11.520 -0.0750  0.1486  0.1503
11355W        W27539  16.663   4.283  11.831  0.1425 -0.0458 -0.1818
11356W        W27540   9.621   1.236  12.658 -0.0857  0.0354 -0.2687
11357W        W27541   1.650   7.524   1.576  0.0275 -0.0953 -0.1280
11358W        W27542   0.270  18.706  14.971 -0.0021  0.3330 -0.1621
11359W        W27543  16.371   2.969  11.591  0.0643 -0.0845 -0.4036
11360W        W27544   3.869   0.002   3.463  0.3036  0.1208  0.0454
11361W        W27545  14.327   0.620  13.165  0.0040  0.2242 -0.0252
11362W        W27546  13.190   6.125  12.140  0.2845  0.0534 -0.0352
11363W        W27547   8.304   2.820   1.463  0.1827  0.0163 -0.1396
11364W        W27548   5.843  17.683  14.582 -0.1485  0.2976 -0.0791
11365W        W27549  18.878   0.604   1.265 -0.2557 -0.2981  0.2128
11366W        W27550  15.974  12.258   0.311  0.0948  0.1131 -0.2755
11367W        W27551  16.422  10.689  14.222  0.1240 -0.2874  0.2092
11368W        W27552  16.016   9.253   1.963 -0.5757  0.4290 -0.5019
11369W        W27553   0.756   1.660   1.987 -0.2101 -0.0063 -0.0558
11370W        W27554  18.121  10.880  12.973 -0.2166  0.0075 -0.0539
11371W        W27555  10.376  10.716   1.571  0.0778  0.0009 -0.3029
11372W        W27556   9.562   0.885  10.609 -0.1029 -0.5422 -0.1935
11373W        W27557   6.812   7.101  10.696 -0.2178  0.3537 -0.1639
11374W        W27558   6.289   6.009  10.882  0.3402  0.0524  0.1329
11375W        W27559  14.773   5.781   3.884 -0.0676  0.2514  0.3505
11376W        W27560   4.729   5.898  13.974  0.2639  0.0841  0.0643
11377W        W27561  17.519   7.767   1.094 -0.2445 -0.2914  0.0898
11378W        W27562  17.925   8.806  13.046  0.0393 -0.0301 -0.2185
11379W        W27563  15.911   7.534   0.344 -0.1958 -0.0847 -0.0229
11380W        W27564   4.218  16.506  12.154  0.0044  0.1970  0.3539
11381W        W27565   5.923   2.122   3.436 -0.0426  0.0467  0.0499
11382W        W27566   2.297  11.660   3.302  0.1467  0.1432  0.0197
11383W        W27567  15.539  18.237  14.555 -0.1004 -0.0507  0.2131
11384W        W27568  16.579  18.598   2.926  0.1116  0.0178  0.2723
11385W        W27569   2.827  16.894  13.571  0.0606  0.0010 -0.0222
11386W        W27570  11.775   6.319   1.007  0.2820  0.3505  0.2103
11387W        W27571  18.807  17.588   1.486  0.1979  0.2707  0.1576
11388W        W27572   2.010  13.144   2.403  0.2796  0.0692  0.0135
11389W        W27573  18.801  10.246   5.467 -0.2572 -0.1362 -0.1208
11390W        W27574   0.148  11.165  14.698  0.1412 -0.0070  0.0126
11391W        W27575  10.399   3.749   3.587 -0.1672  0.0473  0.2709
11392W        W27576   6.373  10.732  15.012 -0.1054 -0.0691 -0.1377
11393W        W27577  18.422   0.451  15.175 -0.0683  0.3386 -0.0864
11394W        W27578   8.526   6.813  11.920 -0.1444 -0.1624 -0.1151
11395W        W27579  14.451  13.671   2.057  0.0485  0.1071  0.1863
11396W        W27580  14.147   0.019  14.706  0.3375  0.2835 -0.0433
11397W        W27581  11.078  15.770   4.324  0.1430  0.0761 -0.2402
11398W        W27582   4.471  12.145  14.441  0.2866 -0.1724 -0.0435
11399W        W27583  17.001  18.172  11.883  0.0765  0.2026  0.4482
11400W        W27584  12.525   7.938   5.377 -0.0006  0.0390  0.2996
11401W        W27585  17.018   8.419   0.226  0.0512  0.0883  0.1241
11402W        W27586  17.138   3.715  14.944  0.2253  0.0617 -0.1309
11403W        W27587   9.646   0.984   4.168 -0.2836  0.3908  0.0260
11404W        W27588   2.402   6.160  13.605  0.0042 -0.0659 -0.0488
11405W        W27589   1.276   5.918  12.095  0.3339  0.1195 -0.0379
11406W        W27590  14.459  14.571   0.979 -0.1012 -0.1467  0.2585
11407W        W27591  16.076   1.556   2.264 -0.0886 -0.3234  0.0563
11408W        W27592  17.467  18.468  11.990 -0.3677 -0.0180  0.0181
11409W        W27593  10.535  16.785   0.147 -0.0195  0.0141  0.0489
11410W        W27594  11.554   0.380  12.884  0.4296  0.0870 -0.2118
11411W        W27595  18.726   8.523   4.498 -0.3216 -0.0869  0.1305
11412W        W27596   6.125  10.404   3.344 -0.0024 -0.2285  0.1095
11413W        W27597   3.061  11.314  11.359 -0.1179 -0.1501 -0.0287
11414W        W27598   2.504   9.778  13.203  0.2973  0.1413  0.0932
11415W        W27599   7.444  12.944  14.510  0.2635 -0.1017 -0.1160
11416W        W27600   8.379  11.842   2.838 -0.4674  0.4394  0.0606
11417W        W27601  16.056   2.868  10.487 -0.1828 -0.0770 -0.4766
11418W        W27602   4.345  18.148  11.098  0.2276 -0.2446 -0.1486
11419W        W27603   9.057  17.441  15.246 -0.0894 -0.2551 -0.1680
11420W        W27604   2.204   0.535   0.000 -0.2516 -0.0814 -0.0448
11421W        W27605  12.032   1.711  13.778  0.3458 -0.3013 -0.1032
11422W        W27606   1.241  14.512  15.267 -0.0954 -0.2733  0.4557
11423W        W27607   5.591   5.190  10.446  0.2086 -0.0292  0.1757
11424W        W27608  13.623   4.329  12.578 -0.0135  0.1319 -0.0011
11425W        W27609   6.267   5.892  13.779  0.0002 -0.0216  0.1025
11426W        W27610   1.662   4.212  11.634  0.1236 -0.1436  0.3143
11427W        W27611  18.846  11.987  15.266  0.0940 -0.0719  0.2422
11428W        W27612  14.419   6.321   1.642  0.0300 -0.0538  0.0149
11429W        W27613  11.033   0.187  12.632  0.3437  0.0511  0.0250
11430W        W27614  17.914   4.213   0.804 -0.0422  0.0329  0.0235
11431W        W27615  17.508   0.991  11.780 -0.1071  0.2892 -0.0581
11432W        W27616  18.236  15.113   3.752  0.0217  0.1465 -0.1192
11433W        W27617  10.764   1.313   0.931 -0.0358  0.1566  0.0167
11434W        W27618  13.345   6.387  13.960  0.1321 -0.1531 -0.0558
11435W        W27619  16.232   2.434   0.271 -0.0832 -0.0583 -0.2019
11436W        W27620   9.121   0.127  12.548 -0.1385  0.1022 -0.1415
11437W        W27621  17.094   0.000  12.315 -0.0037  0.5481 -0.3251
11438W        W27622  18.207  18.092   2.705  0.0399  0.3208  0.2675
11439W        W27623  13.727  13.064   0.082  0.0339 -0.0606  0.2347
11440W        W27624  11.694  11.848   1.175 -0.0731 -0.0409  0.3942
11441W        W27625   7.168   9.704  11.279 -0.0332  0.1286 -0.1646
11442W        W27626  16.766   7.195   2.094 -0.1830 -0.3075 -0.2502
11443W        W27627  18.359  18.056   4.711 -0.2399  0.0236 -0.1272
11444W        W27628  17.113   8.391   2.865 -0.1619 -0.0416  0.2020
11445W        W27629  12.554  12.829  14.130  0.0347 -0.1738  0.1937
11446W        W27630  17.282  18.720  13.445 -0.1329 -0.0540 -0.2937
11447W        W27631   6.656   8.496  12.013 -0.2266 -0.1534  0.0785
11448W        W27632   6.391   0.220  12.759 -0.0248 -0.0140  0.3563
11449W        W27633  13.226  14.481   4.934  0.2035  0.3054  0.0678
11450W        W27634  14.816  10.129  11.116 -0.1138  0.2834 -0.1510
11451W        W27635   2.090   3.310  14.328 -0.2350 -0.0770  0.0548
11452W        W27636  18.087   9.544   5.596 -0.0878 -0.0486  0.2277
11453W        W27637   2.740   7.483  13.247  0.1572  0.0385  0.0757
11454W        W27638   2.833   1.414   4.105 -0.0431  0.1803  0.0435
11455W        W27639   9.076  12.137   3.987  0.2300  0.0233  0.0212
11456W        W27640  10.661   9.946  12.656  0.1107 -0.1513  0.1277
11457W        W27641   9.178   5.267   0.328  0.2689  0.0952  0.0007
11458W        W27642   2.880   2.833  12.523 -0.0732 -0.0840  0.2510
11459W        W27643   2.734   4.844   3.743 -0.1746  0.1024  0.0917
11460W        W27644  17.108  13.792  11.306  0.0206 -0.1689  0.2413
11461W        W27645  17.861  14.815  13.197 -0.1218 -0.3790 -0.1008
11462W        W27646  13.404   9.171  13.701  0.0372 -0.0326 -0.1074
11463W        W27647   9.907   4.911   2.797  0.2602  0.0984 -0.1369
11464W        W27648   1.329  12.137   4.800  0.1482 -0.2474  0.3602
11465W        W27649  13.885   9.003   4.244 -0.0504  0.0512  0.1479
11466W        W27650  15.664   1.901  14.485  0.0456 -0.2436 -0.2672
11467W        W27651  14.221   1.458   4.639 -0.3944  0.0820 -0.2100
11468W        W27652  12.480   2.765  12.386  0.3324  0.2483  0.0162
11469W        W27653   3.895   9.885   1.097  0.0984  0.0763  0.0526
11470W        W27654   5.761   4.393   5.155  0.2799  0.1066  0.0264
11471W        W27655  18.603  15.378   4.888  0.0263  0.1444 -0.1025
11472W        W27656   0.883   4.022  13.547 -0.2564 -0.0519  0.3168
11473W        W27657   6.746   1.933   3.015 -0.3465 -0.0684 -0.1530
11474W        W27658   0.360  16.742   0.692 -0.0735  0.2923  0.2937
11475W        W27659  18.423  14.062  12.178  0.0400 -0.2855  0.1690
11476W        W27660  16.973   0.055  11.284  0.1073 -0.2277 -0.0209
11477W        W27661   0.259   3.285   0.605  0.2544  0.2439  0.1031
11478W        W27662  11.468  14.982   2.358  0.1170 -0.3498  0.1065
11479W        W27663  15.368  16.531   0.928  0.1883 -0.1287 -0.1953
11480W        W27664   0.894  17.131   0.936 -0.1801  0.1570  0.0350
11481W        W27665   3.452  18.871   4.424 -0.0708  0.2320 -0.0974
11482W        W27666  17.868  10.543  10.464  0.2283  0.4061  0.0585
11483W        W27667  16.543  16.013  12.987  0.0033 -0.2829 -0.2574
11484W        W27668  14.827   0.754   5.523 -0.0576 -0.1207 -0.2855
11485W        W27669  17.396  12.536  11.966  0.1278 -0.2342  0.1134
11486W        W27670   3.623  11.208   1.591 -0.0139  0.1166 -0.1690
11487W        W27671   2.661   3.526   2.117 -0.0862  0.0928  0.0185
11488W        W27672  10.967  13.658   1.542  0.0945 -0.2361 -0.1902
11489W        W27673  16.419  14.519   1.339  0.0513 -0.1151  0.0315
11490W        W27674  15.703   5.783  10.975  0.1573 -0.1415  0.0821
11491W        W27675  15.804   8.937  11.668  0.1943  0.0066 -0.0797
11492W        W27676   0.857  18.299  11.455 -0.1446 -0.2927  0.0571
11493W        W27677   6.754   5.385   0.180  0.0773  0.0461 -0.0747
11494W        W27678  10.795   0.553   1.640 -0.1088  0.1962  0.0822
11495W        W27679   7.554  14.123  15.345 -0.0439  0.1187 -0.5328
11496W        W27680  11.903  18.610   2.759 -0.1365 -0.4306 -0.0812
11497W        W27681  13.046  15.378  14.353  0.4339  0.1002 -0.1721
11498W        W27682   4.786   6.889  10.931  0.0905 -0.0045 -0.0768
11499W        W27683  15.841   4.247   1.852 -0.0419 -0.2366  0.3537
11500W        W27684   4.351   1.548  12.531 -0.0944 -0.1620  0.1179
11501W        W27685  11.890  17.652  10.925  0.0545 -0.0989 -0.0874
11502W        W27686  10.982  13.546   3.089 -0.0011  0.1409  0.1779
11503W        W27687   7.974   4.224  12.725 -0.2682 -0.4580 -0.0863
11504W        W27688   7.955  11.274   4.902 -0.0868  0.0179  0.3521
11505W        W27689  11.639  15.663  15.116  0.0305 -0.0304  0.0649
11506W        W27690   9.217   3.564   2.641 -0.0349 -0.0663 -0.2208
11507W        W27691   6.196  12.575   4.424  0.1192  0.0034  0.0430
11508W        W27692   5.643   4.686   0.409  0.5041 -0.2551 -0.0123
11509W        W27693  11.070  16.819  15.114 -0.1870  0.1168 -0.0921
11510W        W27694  11.399  17.913  11.010 -0.1411  0.0254  0.3629
11511W        W27695   0.547   1.594   2.535  0.0566  0.3745 -0.0889
11512W        W27696  17.944  10.461   0.125  0.2538  0.0020  0.3320
11513W        W27697   9.322   7.918  15.327 -0.0035  0.0174 -0.1442
11514W        W27698  15.067   8.592   4.517  0.1587 -0.2284 -0.0691
11515W        W27699  15.121  17.285   1.650 -0.1777  0.1260  0.1713
11516W        W27700   9.678  14.353   0.365 -0.0422  0.2292 -0.4081
11517W        W27701  12.007   6.090   2.381  0.3574  0.4459  0.2187
11518W        W27702  17.619  17.171   1.193 -0.0484  0.4449  0.0167
11519W        W27703   6.062   2.371  14.748 -0.0904 -0.0341  0.0061
11520W        W27704   5.989   9.925  11.025  0.0390  0.1991  0.1598
11521W        W27705   6.283   4.811  12.309  0.3103  0.1801  0.0442
11522W        W27706   3.580   8.106   9.914 -0.1312  0.1659  0.0098
11523W        W27707  12.815   1.460  14.683 -0.0592  0.0558 -0.5322
11524W        W27708  16.121  18.927  10.267 -0.0770  0.0573  0.2562
11525W        W27709   0.951  15.347   4.668  0.0201  0.1560 -0.0989
11526W        W27710   1.714   3.527  12.959  0.0434 -0.0252  0.1353
11527W        W27711   5.669   5.084   3.204  0.3335 -0.0028  0.0369
11528W        W27712   1.803  16.068  10.184  0.0780  0.2346 -0.2691
11529W        W27713   3.034  11.820  10.999  0.1494 -0.2335 -0.2400
11530W        W27714  18.229   7.349  11.528  0.1086 -0.0422  0.2425
11531W        W27715   2.434  10.352   5.300  0.1529 -0.4720  0.0480
11532W        W27716   8.487   7.485   2.349 -0.1402 -0.2085  0.0543
11533W        W27717   7.194  18.323   2.014 -0.1382  0.0015 -0.2408
11534W        W27718  18.594   1.204   5.304 -0.1336  0.1107  0.0597
11535W        W27719  11.376   7.274   3.139 -0.0538  0.0296  0.1185
11536W        W27720   2.422   9.280   4.969 -0.0734 -0.3059 -0.1518
11537W        W27721   1.656   1.783   3.069 -0.3022  0.0456 -0.2472
11538W        W27722   7.331  13.502   0.724  0.4149 -0.0559  0.1241
11539W        W27723  13.068   2.581  13.252 -0.0311 -0.0208  0.2191
11540W        W27724   1.336   4.144   2.638 -0.2384  0.2993 -0.2864
11541W        W27725  16.482   4.135  15.215  0.0546  0.2112 -0.2005
11542W        W27726   7.611  16.982  10.926 -0.1666 -0.3317  0.4816
11543W        W27727   1.260   4.555  10.535  0.2157 -0.0902 -0.1713
11544W        W27728  15.163   2.403  11.477  0.2802  0.0924 -0.0999
11545W        W27729   0.934  10.305  11.777 -0.0943 -0.0485  0.0891
11546W        W27730  15.497  13.030   0.780 -0.0801  0.0126  0.1959
11547W        W27731   0.400  14.242   4.289  0.2295  0.3152 -0.1798
11548W        W27732   3.844   3.610   1.210 -0.0110  0.0636  0.2957
11549W        W27733   0.044   5.620  14.472  0.1291  0.0886  0.2826
11550W        W27734  13.902   0.468   2.070  0.2872  0.2395  0.0775
11551W        W27735  16.400   0.802  11.223  0.2592 -0.0143  0.2928
11552W        W27736   0.396  16.649   2.385  0.2683  0.2311  0.2061
11553W        W27737   0.126  15.253   4.010  0.0612  0.0717  0.1292
11554W        W27738  14.048  10.302   2.578  0.0151 -0.4443 -0.0054
11555W        W27739   1.319   2.585   3.656  0.2457 -0.1412  0.1603
11556W        W27740   0.376   2.694   2.454 -0.2920  0.1483  0.1914
11557W        W27741   8.812   0.922  14.734 -0.0001  0.2597  0.0927
11558W        W27742  11.952   4.791  12.990 -0.1404  0.2219 -0.0284
11559W        W27743  17.945   0.353  12.198  0.1948 -0.2528 -0.2796
11560W        W27744   5.901  17.549  13.368 -0.1001  0.1385  0.3276
11561W        W27745   0.204   9.719  12.136  0.1245 -0.0431 -0.1398
11562W        W27746   9.670  10.291  12.992  0.2627 -0.1478 -0.1209
11563W        W27747  15.558   3.777   2.721  0.0640 -0.0886  0.0921
11564W        W27748   9.953   0.953  15.200  0.0688  0.3025  0.0271
11565W        W27749   8.165  17.098   9.389  0.1588  0.1163  0.1038
11566W        W27750   2.013   0.135   1.908 -0.5119  0.2306  0.0663
11567W        W27751  15.183   7.875   1.448 -0.0837  0.0857  0.1928
11568W        W27752  13.215   5.247  15.255  0.1668 -0.1147 -0.2140
11569W        W27753   9.738   6.849   2.836 -0.1305 -0.1039 -0.0938
11570W        W27754  18.463   9.710   5.354  0.2620 -0.0937 -0.2751
11571W        W27755  17.873   2.537  13.165  0.0107 -0.0323 -0.1035
11572W        W27756  14.478   9.113  10.773 -0.2730  0.1093 -0.1233
11573W        W27757  11.332  18.665   3.763 -0.2938 -0.0700 -0.0987
11574W        W27758   4.094  11.448   1.293 -0.0863 -0.0720 -0.0789
11575W        W27759   2.588  16.119   1.930  0.0774  0.1261 -0.0358
11576W        W27760  11.497  16.444   5.395 -0.3064  0.1061 -0.2293
11577W        W27761  10.624  10.687   4.047  0.2316 -0.2010  0.0750
11578W        W27762   0.113   4.495   4.448 -0.1717 -0.1260 -0.4342
11579W        W27763   4.043  14.047   4.910  0.0400  0.1774  0.1325
11580W        W27764  15.321   4.938  10.112  0.0032  0.1570  0.4221
11581W        W27765   6.196   0.833  14.851 -0.0482  0.0394  0.1570
11582W        W27766  11.983   6.436  14.905 -0.1675  0.0578 -0.1624
11583W        W27767  14.987  10.280   3.507  0.1538 -0.0191  0.3147
11584W        W27768   8.015   6.023   4.179 -0.0661  0.0248 -0.2913
11585W        W27769   6.666  12.180   2.815  0.2583 -0.0360 -0.0774
11586W        W27770  14.171   9.109   0.168  0.1773 -0.1627  0.0177
11587W        W27771   5.862   6.263  11.160 -0.2580 -0.2708 -0.0619
11588W        W27772   3.841  11.053  11.789  0.0115 -0.2707  0.2215
11589W        W27773  15.559   8.161  10.464 -0.1281 -0.2491 -0.0412
11590W        W27774   6.106  11.670   2.985 -0.0276  0.0887  0.2147
11591W        W27775  14.250   4.565   4.461 -0.0716  0.0615  0.0201
11592W        W27776   7.899   3.685  11.662  0.1918 -0.0981 -0.1234
11593W        W27777  16.331   9.873  10.832 -0.2393  0.0283 -0.0131
11594W        W27778  11.383  13.683   4.024 -0.0702  0.1835 -0.0839
11595W        W27779   3.080   0.234  11.470  0.2311  0.0770  0.0509
11596W        W27780   4.443  15.160   2.354 -0.1820  0.2618 -0.1529
11597W        W27781   7.875   1.321  13.199  0.0200 -0.0314 -0.3137
11598W        W27782   1.006   7.165   3.499 -0.0098  0.3711  0.3622
11599W        W27783   8.012  12.196  11.388  0.3962 -0.0315  0.5449
11600W        W27784   2.780  10.852   1.923 -0.2031  0.0934  0.1077
11601W        W27785   4.642  14.307  11.057  0.0165 -0.1996  0.5086
11602W        W27786  17.986  11.153  11.215  0.1900 -0.3059 -0.4184
11603W        W27787   0.004  11.221   5.864 -0.0765 -0.0166  0.3168
11604W        W27788   7.972  13.566   4.112 -0.1393  0.3208  0.3383
11605W        W27789   2.377  15.116  14.473 -0.0421 -0.0573 -0.1131
11606W        W27790  10.647  15.029   1.725  0.2708  0.1543  0.0554
11607W        W27791   0.217  15.121  13.947 -0.2684  0.1643  0.1568
11608W        W27792  16.554  13.997   2.902  0.0123 -0.1195  0.0134
11609W        W27793  17.620  10.263   3.121  0.0797  0.3099  0.0097
11610W        W27794   8.636  15.857  10.014  0.1039  0.0167 -0.2804
11611W        W27795  11.542   9.277   5.628 -0.0537  0.0593  0.1313
11612W        W27796  10.485  11.971  14.939  0.0006 -0.0627  0.1397
11613W        W27797   7.121  12.215  13.316 -0.1195 -0.1918  0.0726
11614W        W27798  13.964  16.455  14.704  0.0528 -0.1082  0.3163
11615W        W27799   4.905  14.844   4.461 -0.0066  0.1735  0.2431
11616W        W27800   8.380  15.071   5.943 -0.0248  0.1729  0.1427
11617W        W27801  17.500  18.732   3.096 -0.1972 -0.0309 -0.1130
11618W        W27802  15.003   9.760   1.471  0.3964  0.1504 -0.0179
11619W        W27803  13.661   0.551   0.111 -0.0161 -0.1344  0.1104
11620W        W27804   5.324   2.999   5.846 -0.0909  0.2487  0.1864
11621W        W27805  10.428  11.096   1.289 -0.3685 -0.0157  0.1135
11622W        W27806  10.160   8.059   3.755 -0.0572 -0.0885 -0.1154
11623W        W27807  10.464  10.669  11.202 -0.5245 -0.0215 -0.0671
11624W        W27808  17.182   6.608  10.787  0.0169  0.1524  0.0418
11625W        W27809  17.357  13.937   3.987 -0.2590  0.0584 -0.2496
11626W        W27810   5.621   8.443  14.237 -0.0710  0.1040 -0.0194
11627W        W27811   8.887  10.382   0.870  0.0133  0.2505  0.0069
11628W        W27812   3.467   5.267   0.115 -0.0056 -0.0016  0.2324
11629W        W27813  13.452  15.222   3.423 -0.1698 -0.1156 -0.0790
11630W        W27814   8.301   7.644   0.918  0.1456  0.2551  0.0603
11631W        W27815   9.883   6.145   3.329 -0.3195  0.3353 -0.1022
11632W        W27816   9.371   2.618   2.224 -0.1211  0.3939 -0.1352
11633W        W27817   5.149  17.868   4.950 -0.2440  0.2030  0.1286
11634W        W27818   6.871  17.547  13.924 -0.3748 -0.0902  0.2035
11635W        W27819   1.230   6.249  10.361  0.0736  0.3037 -0.1160
11636W        W27820  12.974  15.633  13.397 -0.0685 -0.1775  0.2734
11637W        W27821   8.768   6.897  13.368 -0.0831  0.1133 -0.2982
11638W        W27822   7.320   3.156   2.493  0.2085  0.0434 -0.0125
11639W        W27823  12.361   7.153  11.894 -0.0149  0.4022 -0.1512
11640W        W27824  13.601  11.214  14.886  0.1242  0.1050  0.1375
11641W        W27825  14.930  10.929  10.339  0.3316 -0.1623 -0.2738
11642W        W27826   0.239   8.490  12.193 -0.0263 -0.3889  0.1316
11643W        W27827   8.821  13.897   0.265  0.1457  0.2211 -0.0867
11644W        W27828  11.619   8.138  10.654  0.0453 -0.3262  0.1850
11645W        W27829   1.619  13.503   4.995 -0.1948 -0.0146  0.1248
11646W        W27830   3.183   7.524   4.496 -0.0426  0.0002  0.3058
11647W        W27831  16.959   4.000  15.308  0.0191  0.1978  0.2755
11648W        W27832  13.850  11.904  12.308  0.0205  0.3135  0.1487
11649W        W27833   0.114   7.361   3.940  0.0637 -0.2694  0.2245
11650W        W27834   1.616   4.890   4.805 -0.1210 -0.1670  0.2275
11651W        W27835   2.187   9.186   2.675 -0.2324  0.3036 -0.3758
11652W        W27836  15.217   5.947   4.085 -0.2311 -0.1728  0.1521
11653W        W27837  15.504   6.588   1.945 -0.2553 -0.1007  0.0080
11654W        W27838  18.794  10.871  11.555  0.0646 -0.0274 -0.0761
11655W        W27839   5.091   8.281   3.498  0.0539  0.1858 -0.2951
11656W        W27840  13.568   5.627   0.615  0.2026 -0.0426  0.1391
11657W        W27841   6.891  17.539   3.902 -0.0391 -0.0047 -0.0296
11658W        W27842  11.465   1.479  10.206 -0.1907 -0.1160  0.2260
11659W        W27843  15.881   8.630   3.169  0.1282  0.0367  0.1565
11660W        W27844  13.116   7.373   1.668  0.1439  0.1336  0.2876
11661W        W27845   8.221   9.791   2.369 -0.1226  0.1897  0.3759
11662W        W27846   5.101   5.362   0.987  0.0759 -0.4121 -0.3089
11663W        W27847  10.762  14.564   1.727 -0.0472  0.1655 -0.1434
11664W        W27848  18.036   8.570   2.366 -0.0654 -0.2543  0.1116
11665W        W27849  17.520   2.046  13.214  0.1821  0.0947  0.1148
11666W        W27850  15.019  15.201  12.701  0.0608  0.0805  0.1317
11667W        W27851   4.091   7.605   5.543  0.1951 -0.2494 -0.1359
11668W        W27852   8.094  11.350   0.725 -0.2462 -0.2304  0.1338
11669W        W27853  11.906   8.952   2.907 -0.0516 -0.0439  0.0412
11670W        W27854  12.056  15.543  14.298  0.1548  0.1072 -0.0441
11671W        W27855  16.423  13.428   1.986  0.1219  0.0628 -0.2055
11672W        W27856   2.882   1.265   2.783 -0.1383  0.0282  0.1263
11673W        W27857   6.060   2.122  10.444 -0.0720  0.3263 -0.1842
11674W        W27858  15.171  14.518   2.274 -0.4724  0.4608  0.0550
11675W        W27859   5.867  14.272   0.607  0.1506 -0.0981  0.2508
11676W        W27860   4.987  12.370   2.522 -0.1114  0.1646  0.0544
11677W        W27861   8.851  13.869   5.148 -0.0553  0.2202 -0.0516
11678W        W27862   0.278  10.300   3.391 -0.2133  0.0683 -0.1440
11679W        W27863   4.466   3.280  11.909 -0.0447 -0.1825 -0.1132
11680W        W27864   7.211   7.024  12.897  0.0048  0.0328  0.2375
11681W        W27865  11.148   1.676   0.719  0.2353 -0.0613  0.0664
11682W        W27866   8.059   2.347  10.824 -0.4046 -0.0180 -0.1793
11683W        W27867   3.270  17.079  14.936  0.4919  0.0102 -0.4206
11684W        W27868  18.885  15.018   5.312  0.4039 -0.1385 -0.1652
11685W        W27869  14.213   2.940  12.911  0.3147  0.1889 -0.0576
11686W        W27870  13.863   4.165   3.278 -0.1738 -0.1513  0.2626
11687W        W27871  15.912  11.106  11.371  0.1445  0.0473  0.1428
11688W        W27872   5.980   9.207   0.671  0.1644  0.1738 -0.0706
11689W        W27873  18.790  10.761  10.558 -0.1241 -0.2217 -0.1556
11690W        W27874  11.323   6.482   0.170  0.0307 -0.0885 -0.2844
11691W        W27875  11.725  15.196   1.197 -0.4445 -0.3548  0.0849
11692W        W27876   0.494   3.309  12.224 -0.0471 -0.2205 -0.2766
11693W        W27877  18.911   8.724  12.996 -0.1040 -0.1535  0.3485
11694W        W27878  14.717   0.833   0.903 -0.1862  0.3199  0.0784
11695W        W27879   7.488  15.368  12.889  0.1998  0.1226 -0.3005
11696W        W27880  10.398  14.802   3.254 -0.2817 -0.2554 -0.0381
11697W        W27881  10.039   3.963   1.921 -0.0837 -0.1139 -0.3540
11698W        W27882  13.027   4.686  11.022  0.0734 -0.2683  0.0552
11699W        W27883  14.440  17.323   3.371  0.2044  0.4355 -0.1475
11700W        W27884   3.420   7.549  14.109  0.0258 -0.1362  0.2681
11701W        W27885   8.452  10.853  13.172 -0.1439  0.2595  0.2215
11702W        W27886  10.307   4.268  14.885  0.1979 -0.2759  0.0246
11703W        W27887  17.517   6.478  10.067 -0.0403 -0.0318  0.0417
11704W        W27888  14.843  11.344  13.165 -0.0699 -0.1660  0.0630
11705W        W27889   9.701   9.858  12.659  0.2276 -0.0501  0.3852
11706W        W27890   1.353   3.163  13.808 -0.0763  0.0024 -0.3087
11707W        W27891  11.875  10.334  11.913 -0.1943 -0.4953 -0.0618
11708W        W27892   0.255   1.204   2.611  0.2683  0.2868 -0.1108
11709W        W27893   4.300  10.257   5.267  0.0177 -0.2367  0.0585
11710W        W27894   1.078   7.716   4.854  0.1661 -0.0728 -0.2067
11711W        W27895   1.610   4.761  12.301 -0.2083 -0.0707  0.2985
11712W        W27896  10.515   0.929  13.444  0.1320  0.0218  0.3902
11713W        W27897   7.883   8.805  14.135  0.3586  0.0720  0.0717
11714W        W27898  13.202  16.135   4.540  0.1037 -0.1233 -0.0098
11715W        W27899   0.664   0.328   4.797 -0.0440 -0.1100 -0.1395
11716W        W27900  16.592  14.665  14.431  0.1165 -0.0392 -0.0657
11717W        W27901  16.097   5.677   0.369  0.2395 -0.1857 -0.1040
11718W        W27902  13.587   4.449   5.402  0.2351  0.3201  0.3437
11719W        W27903   1.306  15.877   2.888  0.4072  0.0727  0.0468
11720W        W27904  14.475   5.345   3.816  0.0882  0.0716 -0.1741
11721W        W27905   1.106   6.922   0.953 -0.1958  0.2201  0.0055
11722W        W27906   8.893   4.811  14.993  0.0825 -0.1372  0.3212
11723W        W27907  15.340   6.784   3.478 -0.6348  0.1337 -0.3638
11724W        W27908  10.176  14.984  12.356 -0.2093 -0.1043 -0.2645
11725W        W27909   6.503  18.895   3.770  0.2630  0.2034  0.0865
11726W        W27910  16.124   5.210  15.334 -0.0711  0.2321  0.1825
11727W        W27911  10.026   6.958  12.271 -0.0432 -0.0455  0.0530
11728W        W27912  16.307   4.559   1.837 -0.0506  0.2559 -0.1018
11729W        W27913  17.457  10.006   1.072  0.0833 -0.0166 -0.3343
11730W        W27914  10.772  17.124   4.312 -0.0172 -0.0288  0.0878
11731W        W27915   6.859   1.295  11.928  0.0265  0.3049  0.0622
11732W        W27916  10.258   7.214   4.213  0.1195 -0.4764 -0.0341
11733W        W27917  10.616  14.035   9.830 -0.0812 -0.0123 -0.4465
11734W        W27918  14.321  16.619   2.247 -0.0504  0.0335  0.2165
11735W        W27919  10.863  16.698  10.358  0.0834 -0.1797 -0.0943
11736W        W27920  17.975   7.859  12.922  0.0621  0.1050  0.0157
11737W        W27921  15.922   2.696   4.234  0.1439  0.1449 -0.0100
11738W        W27922   2.475   4.216   3.976  0.2811 -0.0118 -0.2271
11739W        W27923   9.675  18.323  12.552 -0.0088  0.1399  0.0167
11740W        W27924   9.902   5.695  11.449 -0.2302 -0.1716 -0.1962
11741W        W27925  18.001  16.510  15.063 -0.1659 -0.0396  0.1811
11742W        W27926  13.502   5.505   1.670  0.1544 -0.1467  0.1842
11743W        W27927  13.053   8.105  15.280  0.2977  0.1239  0.2329
11744W        W27928   6.002   6.707   5.230  0.1110  0.1478 -0.0835
11745W        W27929   7.116   2.739   0.796  0.0151  0.0453 -0.1973
11746W        W27930   6.028   5.000  15.057  0.0535  0.2419 -0.0473
11747W        W27931   0.896   3.743   1.800 -0.2860  0.1208 -0.0575
11748W        W27932  14.115  10.482   3.097 -0.1877 -0.0728 -0.0831
11749W        W27933  11.366  10.106   3.556 -0.0888  0.0216  0.2522
11750W        W27934  15.921   0.585  12.688  0.1797 -0.3563  0.2704
11751W        W27935   5.740  14.473  12.521  0.0630 -0.0216 -0.0508
11752W        W27936   6.331   7.935   1.259  0.1909  0.2600  0.2281
11753W        W27937   4.453   1.239  10.825 -0.0459 -0.0852  0.1148
11754W        W27938  15.061  13.235   3.373  0.0945  0.2909 -0.1141
11755W        W27939   1.863  11.841  11.030  0.1570  0.2497  0.1862
11756W        W27940   8.882  11.089   3.136 -0.1981  0.2722 -0.1643
11757W        W27941  12.624   7.193  10.774 -0.2927  0.3163  0.2900
11758W        W27942   3.949  17.754   0.077 -0.1472 -0.0115  0.1834
11759W        W27943   5.398   3.630   2.955 -0.0535 -0.3339  0.0713
11760W        W27944  11.963   0.594  13.159  0.0683 -0.1091 -0.3020
11761W        W27945  12.964   9.837   4.371 -0.1757 -0.1984  0.0597
11762W        W27946   1.441   7.797  14.468  0.0246 -0.1404 -0.2236
11763W        W27947   8.808   9.664  11.262  0.2324 -0.2321  0.0882
11764W        W27948  17.292   6.628   9.584  0.0648 -0.3625 -0.0527
11765W        W27949   6.282  15.596  13.322  0.1868  0.0300 -0.1331
11766W        W27950   0.239  16.930  13.939 -0.2942 -0.2585  0.0021
11767W        W27951   1.451   9.638   2.205  0.3345 -0.1439  0.2660
11768W        W27952   8.685  15.113  11.960  0.4065  0.0861  0.1942
11769W        W27953  10.837  15.131  12.998 -0.0688  0.1767 -0.3320
11770W        W27954  16.180  15.826  13.968  0.1690  0.0247 -0.1840
11771W        W27955  10.575  11.218  13.845  0.1974  0.1442 -0.1039
11772W        W27956   5.909  15.314   1.705  0.0382  0.1351 -0.0167
11773W        W27957   7.021  11.358  11.506  0.0276  0.2639 -0.0056
11774W        W27958   6.395   9.927  14.137  0.3096 -0.1438 -0.0235
11775W        W27959  16.663   1.706  14.377  0.0873 -0.1027  0.2192
11776W        W27960   7.571  15.639   0.585 -0.1650 -0.0866  0.3202
11777W        W27961   7.600  18.049   0.706 -0.2100  0.1223 -0.1672
11778W        W27962  16.526   3.703   2.799 -0.2228 -0.1072 -0.0996
11779W        W27963  16.049   1.715   4.032  0.0751 -0.0357  0.0641
11780W        W27964   0.201  15.187  12.383 -0.0085 -0.0392  0.0660
11781W        W27965   1.514  17.172  12.146 -0.1237 -0.0774  0.0087
11782W        W27966  18.036  15.274  11.745 -0.0821 -0.0021 -0.1277
11783W        W27967  11.446   5.454   4.188  0.2637 -0.1256  0.0138
11784W        W27968  13.233  13.285  12.498  0.0119 -0.0772  0.0349
11785W        W27969   3.395  10.908   2.097  0.0477  0.1878  0.2127
11786W        W27970  11.497  17.663   3.981 -0.2783 -0.1848 -0.1833
11787W        W27971  16.725   9.138  11.095  0.0512 -0.0028  0.3774
11788W        W27972   5.538   0.582  15.011  0.0816  0.2586  0.0348
11789W        W27973   2.579  17.357   5.414  0.0277  0.2296 -0.0686
11790W        W27974  18.722   5.272   4.544  0.2594  0.2195 -0.1797
11791W        W27975   6.816   2.540  11.300 -0.1827  0.0663 -0.1339
11792W        W27976   6.155   8.013   3.943 -0.0079 -0.3735  0.1719
11793W        W27977   0.517   7.449   3.679  0.1950  0.0377 -0.0635
11794W        W27978  12.310  17.761   3.674  0.0398 -0.3609 -0.1681
11795W        W27979   4.232  10.830  14.690  0.0655  0.1784  0.4748
11796W        W27980  14.199  18.180  11.533 -0.0290 -0.2076  0.1875
11797W        W27981   4.005   5.219  13.022  0.1386 -0.2849 -0.1317
11798W        W27982  16.549  18.535  14.052 -0.1053  0.1313 -0.0644
11799W        W27983   7.747   1.115  14.343 -0.1603  0.1223 -0.0942
11800W        W27984   8.190  17.101   1.316  0.3002 -0.2366 -0.1059
11801W        W27985   4.300   1.023   1.527  0.2179  0.1086 -0.3133
11802W        W27986  14.599   4.359  12.606  0.1503  0.4121  0.3440
11803W        W27987   3.492  18.916   0.442 -0.0827  0.0585 -0.2791
11804W        W27988  11.389  16.872  10.313 -0.2430 -0.0518  0.4070
11805W        W27989   9.791  11.825  14.050 -0.3782  0.0736 -0.0294
11806W        W27990   0.207  13.489  11.318  0.0918 -0.1107  0.1450
11807W        W27991  13.572  18.630  10.805 -0.2483 -0.0825  0.1648
11808W        W27992   2.668   4.073   3.485  0.1359  0.0978  0.0219
11809W        W27993  10.592   6.240   5.104  0.1538 -0.0157 -0.0163
11810W        W27994   7.655  11.675   5.099 -0.2245 -0.1234 -0.0284
11811W        W27995  16.988  11.072  13.955  0.4663  0.2660 -0.0148
11812W        W27996  14.386   9.076   3.341  0.0084 -0.0265 -0.2099
11813W        W27997   2.474  16.995  13.113  0.2332  0.0320 -0.4685
11814W        W27998   7.947  11.468   2.859  0.1598  0.0600  0.0737
11815W        W27999   5.595  16.031   3.795 -0.1984  0.0630  0.0670
11816W        W28000   8.888  18.459   2.542  0.2824  0.2177 -0.2492
11817W        W28001   6.899   9.966   0.639 -0.0275 -0.0823  0.1477
11818W        W28002   1.078   9.445   4.191  0.0240  0.3327  0.0488
11819W        W28003   0.989  15.366  13.778  0.2091 -0.0348 -0.2366
11820W        W28004   4.916  12.673  10.462 -0.1043  0.0925 -0.1141
11821W        W28005   7.253   0.326   1.476 -0.1092  0.1471 -0.0237
11822W        W28006  16.069  14.529  11.634 -0.4022  0.0350 -0.1637
11823W        W28007   9.291   3.991   3.277  0.0684  0.2401  0.0672
11824W        W28008   1.397   1.874   0.473  0.2464  0.0035 -0.2003
11825W        W28009  13.543  10.949  14.054  0.0541  0.2875  0.0338
11826W        W28010   3.717   7.161  12.567  0.1228  0.0202  0.1648
11827W        W28011   1.445  17.819   0.636  0.3890 -0.0149 -0.5996
11828W        W28012  10.278   6.204  12.475  0.1793  0.1223  0.2795
11829W        W28013  17.637   2.433   4.299 -0.1192  0.0908  0.1635
11830W        W28014   5.565  11.351   4.402  0.0519  0.0883 -0.2237
11831W        W28015   4.175  16.286   2.803 -0.0374  0.2133 -0.0886
11832W        W28016   9.335   3.499  14.346  0.3956  0.1574  0.1872
11833W        W28017   1.365   1.661  14.925 -0.0279  0.2055 -0.0304
11834W        W28018   9.225  12.945  14.117  0.0824 -0.1987 -0.2576
11835W        W28019   8.401  11.965  15.060  0.0260  0.0330 -0.3275
11836W        W28020   4.997   2.664  10.875  0.2236 -0.2267  0.0485
11837W        W28021   8.304  13.245   3.820  0.0104 -0.1215 -0.0638
11838W        W28022   9.224   8.094  13.985  0.0749 -0.2157 -0.1098
11839W        W28023  11.869  17.522   3.624 -0.0072  0.0892 -0.0863
11840W        W28024   5.283   4.756   3.084 -0.0392  0.0388 -0.1227
11841W        W28025  17.593  16.877   5.102  0.2532  0.0368  0.1903
11842W        W28026  12.211  13.546  14.428 -0.0526  0.0861 -0.2347
11843W        W28027  17.538  18.355   0.128 -0.1120 -0.1993  0.0442
11844W        W28028  11.626   5.281   3.177 -0.0207  0.0719 -0.2140
11845W        W28029   3.854  16.481   3.776 -0.1234 -0.2944 -0.1015
11846W        W28030   5.130   8.774   3.704 -0.1622  0.1370  0.3459
11847W        W28031   2.604   8.846  14.463 -0.0958  0.0393 -0.2195
11848W        W28032  12.942  14.689  12.865  0.1567  0.3342  0.4092
11849W        W28033  13.479  17.054   4.326 -0.1956 -0.1236 -0.0696
11850W        W28034  18.527  16.334   3.259 -0.0617  0.1432 -0.2209
11851W        W28035  17.486  16.523   2.260 -0.1993 -0.0581  0.1468
11852W        W28036  17.704   7.917   1.913  0.0208  0.0236  0.3816
11853W        W28037   0.986   9.518   2.236  0.1102 -0.0239 -0.2058
11854W        W28038   6.937  12.298   5.005 -0.0986  0.1183 -0.1782
11855W        W28039   8.931  14.116   4.126 -0.2928  0.0287 -0.0332
11856W        W28040   2.892   1.669   2.149  0.0584 -0.2550 -0.0557
11857W        W28041  18.201   1.787  12.122 -0.0033 -0.0662 -0.0909
11858W        W28042   9.414   6.257  12.426  0.0817  0.2198  0.1745
11859W        W28043  15.363   9.706   4.627  0.2332 -0.0332 -0.1178
11860W        W28044   2.968   7.429   2.987  0.1509  0.1878 -0.1795
11861W        W28045   0.056   6.385   0.058  0.1462 -0.2755 -0.2169
11862W        W28046   2.963   9.605   1.221 -0.1248 -0.0410  0.3588
11863W        W28047   9.861  14.183  13.745  0.3861 -0.0596  0.0097
11864W        W28048  12.252  18.346  12.588 -0.0780  0.3348  0.1345
11865W        W28049  14.769  11.691   1.705  0.3417 -0.2012 -0.1867
11866W        W28050  11.630  10.322  10.919 -0.1392 -0.4270  0.1896
11867W        W28051   4.969   6.114  11.117 -0.2556  0.2782 -0.0836
11868W        W28052   0.722   0.860   1.657  0.0866 -0.0940  0.0555
11869W        W28053  14.361   1.995  11.778  0.0868  0.1234  0.2743
11870W        W28054   2.850  13.357   2.522  0.2986 -0.0607 -0.2103
11871W        W28055   6.408  16.614  13.833  0.1872 -0.1071 -0.4394
11872W        W28056   3.142   0.351   3.928  0.2623 -0.1829 -0.0990
11873W        W28057  13.126   2.224   2.374 -0.1571  0.1638 -0.1884
11874W        W28058   6.237  12.593  14.838  0.2539  0.2028  0.0307
11875W        W28059  12.153   7.792   0.746  0.1938  0.2262 -0.2325
11876W        W28060   9.533   7.047   4.834 -0.2852  0.1201 -0.1817
11877W        W28061   3.565   2.014   4.695 -0.1512  0.0645  0.2823
11878W        W28062   6.099   3.453  14.854 -0.0409 -0.2024 -0.0331
11879W        W28063   9.604   8.789   1.374 -0.2013 -0.2413  0.1307
11880W        W28064  10.320  17.829   5.470 -0.0946  0.0082 -0.0960
11881W        W28065   3.675  12.880  10.995  0.1523  0.3679  0.2400
11882W        W28066   0.445   5.791  10.871 -0.0670 -0.0867  0.3202
11883W        W28067  16.202   6.819  12.312  0.1732  0.1155  0.0113
11884W        W28068   4.832  16.182  12.548 -0.0449  0.0419  0.0831
11885W        W28069  18.785  12.926   1.329  0.1265  0.1657 -0.1226
11886W        W28070   8.685   8.833  12.359 -0.5100 -0.0822  0.1515
11887W        W28071  17.409   7.395  12.535  0.0359 -0.0976  0.3383
11888W        W28072  12.266   2.567   4.472 -0.1703 -0.0139 -0.3377
11889W        W28073  15.713  14.382   4.979  0.1884 -0.0840 -0.2116
11890W        W28074   1.062   8.980  14.980  0.1079 -0.2092 -0.2830
11891W        W28075  13.797   3.950  12.296 -0.1477 -0.1372  0.1051
11892W        W28076   2.869   4.144  14.406  0.3035 -0.1493  0.1738
11893W        W28077  15.826   8.426  13.522 -0.1144 -0.1856  0.0533
11894W        W28078   8.944   5.177   2.050 -0.0753 -0.0797 -0.2075
11895W        W28079   2.676   0.518  12.275  0.0996  0.1493  0.3372
11896W        W28080   1.934   8.897  11.750  0.2198 -0.1825  0.1306
11897W        W28081  13.634   2.748  14.659  0.1593 -0.1661  0.2954
11898W        W28082  10.306   2.735  12.566  0.0490 -0.2349  0.0347
11899W        W28083  17.232  12.613   5.556  0.2340  0.2525 -0.0446
11900W        W28084  11.701  18.664   1.640  0.2125  0.1426  0.2869
11901W        W28085  15.519   9.501   2.742 -0.0997 -0.0791  0.1593
11902W        W28086  16.070  15.456  11.822  0.0024  0.2066 -0.0438
11903W        W28087   5.324   9.015  12.678 -0.0291 -0.2567 -0.1984
11904W        W28088   8.255  15.373   4.537 -0.2240  0.0956  0.0419
11905W        W28089  10.708   9.438   2.530  0.3343 -0.2575  0.2076
11906W        W28090  11.878   8.826  15.057  0.0523 -0.2656 -0.3206
11907W        W28091  11.778   9.107  10.554  0.1612 -0.1581  0.2466
11908W        W28092  17.237   3.406   1.285  0.1379  0.2150 -0.3553
11909W        W28093   9.309   5.578   1.603  0.0533  0.2306  0.1237
11910W        W28094  13.534   9.006  10.679  0.0401 -0.1513 -0.0508
11911W        W28095  10.578  15.528   3.983  0.2031  0.0006  0.1247
11912W        W28096  11.834  15.306   2.610  0.1052  0.0163 -0.1143
11913W        W28097   9.795  11.995   0.279  0.0222  0.1033 -0.1235
11914W        W28098   5.365   5.004   2.550  0.1282 -0.0012 -0.0023
11915W        W28099   8.460  15.101   3.146 -0.0073 -0.1259 -0.1916
11916W        W28100  15.311  16.719   3.199  0.1277  0.0701  0.0627
11917W        W28101   4.792   9.376   0.718 -0.1437 -0.1522 -0.0300
11918W        W28102   6.322  17.135  12.808 -0.4596  0.2520 -0.1370
11919W        W28103   9.132  14.690  15.194 -0.3899 -0.0199  0.0514
11920W        W28104   8.292   6.696  10.943  0.2318 -0.0850 -0.2302
11921W        W28105   2.206   3.337  13.248  0.3012  0.0023 -0.0629
11922W        W28106   0.394   7.349  14.350  0.2995 -0.1268  0.1348
11923W        W28107  13.231   8.805  13.966 -0.4355  0.1820  0.1116
11924W        W28108  18.474  14.349   1.371 -0.0682 -0.1311  0.0154
11925W        W28109   1.307   4.863  11.897  0.1038  0.1740  0.0307
11926W        W28110  17.520  12.452  14.248  0.0934  0.0738 -0.1991
11927W        W28111  14.643  18.614   4.350 -0.0139  0.1179  0.0599
11928W        W28112   2.375   3.557  12.255 -0.0074  0.2372 -0.1486
11929W        W28113   7.801   6.951  14.491  0.1263 -0.0871 -0.1081
11930W        W28114   5.976  16.775   1.718  0.0503  0.1862 -0.0248
11931W        W28115   6.643   0.017  11.300  0.1040  0.1546  0.2590
11932W        W28116   5.357  14.859  14.128  0.0649 -0.2889  0.5081
11933W        W28117   6.750   4.562   1.642  0.0461 -0.1365  0.2302
11934W        W28118   8.035  12.105   2.656  0.1198  0.2833  0.0980
11935W        W28119   6.445  16.493   2.327  0.1144 -0.2911 -0.2582
11936W        W28120  15.215   9.197  13.182  0.0826  0.3603 -0.1211
11937W        W28121   6.649  18.800   0.464  0.1977 -0.0285 -0.0736
11938W        W28122   6.828  14.138  13.905 -0.0915  0.0501 -0.2421
11939W        W28123  14.134  15.209   4.172  0.0442 -0.1287  0.2926
11940W        W28124   4.379  11.871   1.225 -0.4087  0.0154  0.1176
11941W        W28125   2.261  15.773  11.732  0.2026  0.2631 -0.0463
11942W        W28126  11.789   0.858   5.009  0.1894  0.0966  0.1229
11943W        W28127   6.209   6.924  10.503  0.0439 -0.0907  0.0528
11944W        W28128  12.586   6.540  13.343 -0.2161 -0.0639 -0.3771
11945W        W28129   0.663  16.804  14.667 -0.0973  0.1003 -0.2727
11946W        W28130   8.189  11.033  12.757  0.1447  0.0984  0.1725
11947W        W28131  18.173  12.362  11.943 -0.1141 -0.2004  0.0025
11948W        W28132   0.533   9.708   2.390 -0.0040 -0.0731  0.0533
11949W        W28133   1.250   5.571  13.621 -0.1982 -0.1873 -0.0183
11950W        W28134  18.291   4.741  10.947  0.0041 -0.1790 -0.0865
11951W        W28135   8.755  15.473  13.362  0.0628 -0.3445 -0.2446
11952W        W28136  17.362   0.322  14.013  0.0953  0.0468 -0.0320
11953W        W28137   3.629   4.688   3.372 -0.0833  0.0345  0.1814
11954W        W28138   7.489  16.118   5.015 -0.0671 -0.0071  0.1485
11955W        W28139   9.264  18.413  14.732  0.2274  0.1211  0.1462
11956W        W28140   6.115  15.288  11.878  0.3770 -0.1543  0.3332
11957W        W28141   5.064   3.181  11.903  0.0058  0.1842 -0.0637
11958W        W28142  15.255  12.038   2.887 -0.0902 -0.0665 -0.0007
11959W        W28143  12.884   2.511   0.907 -0.1091  0.0000  0.0213
11960W        W28144   2.149   0.983   0.789  0.1460  0.2465 -0.0694
11961W        W28145  15.610   2.722   1.871  0.1207  0.0851 -0.0781
11962W        W28146   2.250   5.392   2.631 -0.1013  0.1546 -0.2408
11963W        W28147  13.319   1.671   3.342  0.1123  0.1054  0.1046
11964W        W28148  15.565  10.037  10.675  0.1245 -0.0209 -0.2084
11965W        W28149   3.821  18.347   2.488  0.0868  0.3016 -0.1098
11966W        W28150  11.219   5.951   3.351  0.0155  0.4000  0.3374
11967W        W28151   7.815  10.064   1.113  0.1363 -0.0032 -0.1827
11968W        W28152   9.811   7.300   1.405 -0.1205  0.0887 -0.0560
11969W        W28153   0.651   3.571   2.204 -0.3017  0.1862  0.0464
11970W        W28154   4.996   7.103   0.640 -0.2459  0.1482 -0.2552
11971W        W28155   8.580  16.394   3.436  0.0124 -0.0577  0.0749
11972W        W28156   1.603   6.136  15.263  0.1011  0.0769  0.1035
11973W        W28157   4.736   3.446   0.188  0.0669 -0.0099  0.1047
11974W        W28158   9.266  10.569   0.547 -0.0069 -0.6250  0.2350
11975W        W28159   0.417   1.971   2.959  0.0680  0.0641 -0.2460
11976W        W28160   0.872   3.485   3.919 -0.0047 -0.2989 -0.1455
11977W        W28161  18.368  12.056   3.076  0.2684  0.3243  0.0329
11978W        W28162   9.591   8.386   2.942  0.0656 -0.1276  0.2301
11979W        W28163   7.873  15.710   4.235 -0.4225  0.6002  0.3007
11980W        W28164  10.561  11.440   0.996  0.1263 -0.2368 -0.1439
11981W        W28165   8.136   0.202   2.400 -0.2182  0.0191  0.1526
11982W        W28166  16.872   5.875  11.625 -0.0011  0.3021 -0.0365
11983W        W28167   1.253  10.273  15.250  0.2460  0.3479 -0.3268
11984W        W28168  18.389  13.991   4.636 -0.1346  0.3025 -0.0708
11985W        W28169   0.816  18.431   4.634 -0.0821 -0.0002  0.1091
11986W        W28170   3.514   8.356   2.072 -0.0911  0.1010 -0.0329
11987W        W28171   4.526  10.809   0.432  0.0352 -0.2590 -0.0791
11988W        W28172   6.394  10.978   2.609 -0.0285 -0.1777 -0.2695
11989W        W28173  10.550   4.714  11.868  0.1559  0.0877  0.1519
11990W        W28174   4.360  16.751  11.243 -0.1980  0.1203 -0.0085
11991W        W28175   8.285  15.990   0.953 -0.1201 -0.1857 -0.0219
11992W        W28176   6.419   6.275   1.200  0.0443  0.2931  0.1238
11993W        W28177   3.649   1.961  14.307 -0.0116  0.0646 -0.0577
11994W        W28178   5.765   5.816   5.220 -0.2080 -0.0987  0.0275
11995W        W28179  17.265  15.141   5.155  0.0802 -0.1515 -0.5876
11996W        W28180   3.548   4.807  14.828 -0.3781  0.3489 -0.1558
11997W        W28181   5.978  16.783   3.665 -0.1431 -0.1430 -0.1295
11998W        W28182   0.088   1.017   2.088 -0.0812  0.0267 -0.1232
11999W        W28183   1.209  10.003   2.391  0.2557  0.1620 -0.3337
12000W        W28184   4.579   7.270  12.913  0.0983  0.0829 -0.2969
12001W        W28185   1.456   2.879   5.451 -0.0265  0.2856 -0.1071
12002W        W28186   4.169   6.255  15.015  0.2045 -0.2503 -0.0849
12003W        W28187  16.112   4.905  12.354  0.2502  0.4789 -0.0064
12004W        W28188   5.572  14.345  11.652  0.0245  0.3290  0.1649
12005W        W28189  13.497   3.972   4.343  0.0350  0.0598  0.2132
12006W        W28190   4.526   9.226  14.934 -0.0439  0.0368 -0.0291
12007W        W28191   0.999   9.841   3.937  0.1149  0.0960 -0.1206
12008W        W28192   1.924   7.622  12.622 -0.2423  0.1011 -0.2004
12009W        W28193  17.948   8.127   2.944  0.0320 -0.0623  0.0475
12010W        W28194  15.663  15.290   4.039 -0.1026  0.0675  0.0607
12011W        W28195   9.304  15.238   0.935 -0.2834 -0.0355 -0.0505
12012W        W28196   9.825   4.872   1.664 -0.0201 -0.3531 -0.0801
12013W        W28197  13.585   1.114   3.418  0.0800 -0.1581  0.1390
12014W        W28198  11.484   0.552   2.714  0.0310 -0.0021  0.0950
12015W        W28199   8.505  10.988  11.354 -0.1018 -0.1159  0.0269
12016W        W28200  10.882   3.569   4.126  0.1070  0.3546  0.2209
12017W        W28201   5.020  17.734  14.617  0.0875  0.0619  0.1556
12018W        W28202  12.784  10.564  10.475 -0.1243  0.3685 -0.1172
12019W        W28203  14.652   7.827  13.436 -0.0457 -0.2050  0.0620
12020W        W28204  14.551   8.793  14.000 -0.1729  0.1479 -0.1031
12021W        W28205  13.598   8.744   9.355 -0.0889 -0.2502  0.1050
12022W        W28206   8.288   8.508   3.851 -0.3463 -0.0011  0.1786
12023W        W28207  13.529   0.888  13.910  0.3051  0.0316  0.0555
12024W        W28208   9.255  12.917  11.667 -0.0228 -0.2140  0.0292
12025W        W28209  12.413  16.228  15.081 -0.3143 -0.2700 -0.2282
12026W        W28210   6.927  16.654   3.203  0.0686 -0.0287 -0.2153
12027W        W28211  11.660   4.215   0.466 -0.0126  0.1032 -0.1035
12028W        W28212  16.236  14.113   1.075  0.1951  0.0439  0.2153
12029W        W28213  11.294  10.735   1.072 -0.0419  0.1445  0.2656
12030W        W28214   0.342  18.535  10.322 -0.1109 -0.0739  0.3071
12031W        W28215   3.623   6.222   0.798  0.1173  0.1717 -0.2351
12032W        W28216   0.311  12.555  15.379 -0.4228 -0.1978  0.0716
12033W        W28217  15.739   4.872   5.608  0.1731  0.0703 -0.2487
12034W        W28218   0.680  18.053   5.054  0.2293  0.1514  0.0562
12035W        W28219  18.442  18.787   5.313 -0.1603 -0.2677  0.1616
12036W        W28220  13.971   2.547  14.083  0.1235  0.4382 -0.0781
12037W        W28221   6.868  17.738   2.763 -0.2309 -0.1946 -0.2268
12038W        W28222  15.649  18.934  13.291  0.1608 -0.0287  0.2446
12039W        W28223  12.782   7.738   3.394 -0.0115  0.1884 -0.1815
12040W        W28224   0.143   5.487   4.380 -0.0112  0.0899 -0.1479
12041W        W28225   4.573   3.949   3.735 -0.1222  0.0611  0.1091
12042W        W28226   6.745   0.411   1.597 -0.0379 -0.5752 -0.2232
12043W        W28227   9.827   8.519  11.636  0.2907 -0.1222 -0.0695
12044W        W28228  17.904  17.470  13.244 -0.0016 -0.0572  0.2765
12045W        W28229  10.064  16.839  15.322 -0.2360  0.2454 -0.0297
12046W        W28230   2.028  13.712   3.636 -0.2018 -0.1436  0.0151
12047W        W28231  10.753   2.945  12.692  0.0751  0.1866  0.4311
12048W        W28232   9.694   5.010   2.317 -0.3750 -0.5036  0.0282
12049W        W28233  13.607  11.710   4.754 -0.2448  0.0093  0.1180
12050W        W28234  17.655   2.326  15.358 -0.1226  0.1669 -0.0967
12051W        W28235   4.983  13.906  12.962  0.4526  0.1834 -0.4038
12052W        W28236   8.737  18.563  14.756  0.2916  0.0202  0.1468
12053W        W28237   5.180  16.116   1.659  0.0397  0.0414 -0.1717
12054W        W28238  13.713   7.169  14.128 -0.0253  0.3747  0.1027
12055W        W28239  17.535  15.373   3.019  0.1169 -0.0062  0.2018
12056W        W28240  11.157  11.996   0.306  0.0307 -0.0075  0.0248
12057W        W28241  15.181  11.343  10.592  0.2353  0.1750 -0.3888
12058W        W28242   0.690  11.115  14.415  0.0248  0.1637  0.0376
12059W        W28243  12.448  12.411  14.858 -0.2167 -0.1892 -0.0233
12060W        W28244   7.973  13.211   4.632  0.1531  0.2606 -0.1286
12061W        W28245  12.466  14.023   0.890  0.1235 -0.0951  0.2552
12062W        W28246   8.353  14.036   0.307 -0.1955  0.0764 -0.0623
12063W        W28247  16.444  13.437   0.758 -0.1340  0.2172 -0.0067
12064W        W28248  18.837   9.632  11.459 -0.2953 -0.1932  0.3801
12065W        W28249   3.324   4.616   4.540 -0.1642  0.0858 -0.3237
12066W        W28250   0.341   8.255   3.248 -0.2692 -0.1020  0.0952
12067W        W28251  13.153   2.510  11.392  0.2204 -0.0979 -0.1356
12068W        W28252  14.352  16.795   0.659 -0.2652  0.1149  0.1837
12069W        W28253   4.285   9.807  14.439 -0.0517 -0.1684  0.1090
12070W        W28254  18.193   7.337  12.895 -0.0558 -0.0218 -0.0117
12071W        W28255   0.735  11.667  14.236 -0.1388 -0.1678 -0.0848
12072W        W28256   7.860  15.600  14.920  0.1226  0.0531 -0.0468
12073W        W28257   6.385  18.198   1.136  0.2650 -0.0758  0.1021
12074W        W28258  13.513  18.177  14.931  0.0186 -0.2658 -0.2556
12075W        W28259  18.577   4.111   5.115 -0.0862 -0.0121 -0.0174
12076W        W28260  18.506   6.547  12.445  0.0357 -0.1192  0.1336
12077W        W28261   6.870  12.253  12.099  0.5147  0.1592 -0.0357
12078W        W28262  14.123  14.786  12.630 -0.2101 -0.2743  0.0114
12079W        W28263  12.509   5.770   3.827  0.4922  0.1072 -0.0593
12080W        W28264   2.377   4.529   3.592  0.1703 -0.0498 -0.0835
12081W        W28265   7.511  14.602  14.710 -0.2444 -0.0229  0.0007
12082W        W28266  16.175   7.477   3.581 -0.3353  0.2357 -0.1831
12083W        W28267   1.880  15.610   0.175  0.2386  0.0920  0.0842
12084W        W28268  15.726  14.556  12.172  0.1028  0.0728 -0.0320
12085W        W28269  16.358   8.269   1.661 -0.1377 -0.1825  0.1737
12086W        W28270   3.835  17.276   9.982 -0.2629  0.1351  0.0049
12087W        W28271   3.931  18.107  12.504 -0.0346  0.0413  0.1705
12088W        W28272   1.960   6.993   5.290  0.0587 -0.0191 -0.0828
12089W        W28273  11.712   2.450   0.428  0.0607 -0.0638 -0.1583
12090W        W28274   0.368   8.941  12.688 -0.2580 -0.1280 -0.1894
12091W        W28275  16.261  17.415   0.512  0.1890  0.1386  0.2258
12092W        W28276  13.246  14.382  13.688  0.1542 -0.2039  0.2230
12093W        W28277   8.491  10.790  14.732 -0.0824  0.0731  0.1166
12094W        W28278  17.438   2.000   4.120 -0.0227  0.0228 -0.3528
12095W        W28279   6.509  17.171  13.860  0.0054  0.1298  0.1168
12096W        W28280   2.461   8.833  13.648 -0.1043 -0.0250  0.0819
12097W        W28281   2.175   1.236   0.341  0.1439  0.0878 -0.0267
12098W        W28282   4.337   2.403   1.313 -0.0159 -0.1270  0.0376
12099W        W28283   2.805   7.036  10.642  0.3687 -0.0625  0.2048
12100W        W28284  14.145   9.316  11.728  0.0100  0.0006 -0.2439
12101W        W28285   2.927  11.312   0.446 -0.0589  0.0718  0.1550
12102W        W28286   5.991   2.560  13.410  0.0489  0.2675 -0.1486
12103W        W28287   3.425   9.303  10.925  0.1229  0.2351  0.1765
12104W        W28288   6.039   9.639   2.134 -0.0506 -0.2794 -0.0564
12105W        W28289  13.688   8.993   1.324 -0.1203  0.0813  0.0716
12106W        W28290  10.821  17.838  14.121  0.0783 -0.1184  0.0324
12107W        W28291  12.194  16.624   3.955  0.2619  0.4911 -0.4330
12108W        W28292   4.307  11.806  12.054  0.2007  0.0318  0.0912
12109W        W28293  12.075   2.784  13.912 -0.0437  0.3957  0.0546
12110W        W28294   6.823   1.347   2.640 -0.0220  0.1706  0.0099
12111W        W28295   3.898  13.744  12.137 -0.4199  0.0252 -0.0657
12112W        W28296   2.732  15.235  13.248 -0.1160 -0.4523  0.1489
12113W        W28297   6.915   9.213   2.430  0.3416  0.2355 -0.0532
12114W        W28298  14.848  14.212   1.148 -0.0342  0.1988 -0.1604
12115W        W28299  14.142  10.898   3.611 -0.1233 -0.2359 -0.0097
12116W        W28300  13.450  14.204  11.029  0.0019 -0.0807 -0.1205
12117W        W28301  13.513  10.026   1.377  0.1011  0.0957  0.1379
12118W        W28302  10.312   2.005   3.136  0.2345 -0.2468 -0.1851
12119W        W28303  14.613   1.886   4.435 -0.1648 -0.2131 -0.0379
12120W        W28304   8.247  15.731   1.494 -0.1027  0.1435 -0.1544
12121W        W28305  18.033   8.561  14.631  0.0858  0.2209  0.2056
12122W        W28306   0.639   7.974   3.877 -0.2431  0.2506 -0.0140
12123W        W28307  15.489  11.310  11.659 -0.1906 -0.0045  0.1587
12124W        W28308   4.499  13.244   1.689  0.1640 -0.0198 -0.0482
12125W        W28309   5.890   9.355   4.625 -0.0219  0.2052 -0.1200
12126W        W28310  12.352   1.520   2.821  0.1697 -0.2606 -0.1017
12127W        W28311   6.413   0.492  11.963  0.2240  0.6216  0.3852
12128W        W28312  13.040   8.351   2.805 -0.0250 -0.0215  0.0058
12129W        W28313   8.774  13.049  14.351  0.0613 -0.0019  0.1638
12130W        W28314  10.601  18.044   1.170  0.1001  0.0996 -0.2187
12131W        W28315  16.049  11.001   5.846 -0.2168  0.0156  0.0228
12132W        W28316  11.366  17.140   4.577  0.0775  0.1220 -0.4453
12133W        W28317   3.522  18.734  13.342 -0.2618 -0.0843 -0.0192
12134W        W28318  10.792  16.984  14.139  0.0594 -0.1525  0.0894
12135W        W28319  18.860  14.384  14.927  0.0596  0.2840  0.1048
12136W        W28320  16.675   9.120  14.581  0.2443 -0.3300  0.2646
12137W        W28321  17.673  11.579   1.526 -0.2187  0.1967  0.1816
12138W        W28322   9.562  12.384  13.462 -0.2237  0.0833 -0.0284
12139W        W28323   0.434   9.006   5.056 -0.1753 -0.1319  0.0612
12140W        W28324   7.777   9.421   1.069  0.0226 -0.0773  0.0908
12141W        W28325  18.106   6.073   0.556 -0.2047  0.0453  0.3425
12142W        W28326   4.012  18.879  13.462  0.0041 -0.1856 -0.0068
12143W        W28327   1.694   0.673  12.477 -0.0619  0.1166  0.1548
12144W        W28328  16.751  18.133   4.263  0.1382  0.1570 -0.0896
12145W        W28329  15.423   2.170   2.080 -0.2726 -0.1251  0.0297
12146W        W28330   2.106   2.806   2.479 -0.1768  0.1854  0.2170
12147W        W28331   1.315  11.043  12.369  0.1173  0.1029 -0.0106
12148W        W28332   7.862  12.713  11.401  0.2330 -0.4560 -0.0793
12149W        W28333   1.744   0.982  13.401 -0.0756 -0.1407  0.0668
12150W        W28334   6.720   3.883  15.217 -0.0206 -0.0332  0.1947
12151W        W28335  16.391  17.787  13.355  0.1350 -0.0650  0.2940
12152W        W28336  10.666   6.462  12.735  0.6433  0.1529 -0.0109
12153W        W28337   5.231  15.809  12.497  0.1364 -0.0608 -0.3600
12154W        W28338  17.937   1.786  13.375  0.1802  0.1415  0.1086
12155W        W28339  16.430  13.561   4.161 -0.1998  0.2000 -0.3017
12156W        W28340   7.997   7.122   2.189  0.1282  0.1173  0.1148
12157W        W28341   5.585   0.715   0.360  0.0011  0.0719  0.1373
12158W        W28342   3.856  15.649  12.077  0.1381  0.4736 -0.2673
12159W        W28343   4.843   3.140  14.637  0.0862  0.0980  0.0866
12160W        W28344  12.733   8.325  12.454  0.2727  0.0576 -0.0707
12161W        W28345  10.606   1.416  12.311 -0.3329  0.0413  0.3282
12162W        W28346   8.044   6.661   2.521  0.2877  0.0585  0.0164
12163W        W28347  12.661  18.537   2.135  0.1156  0.2074 -0.3776
12164W        W28348  13.639  12.931  12.600  0.0430  0.2056  0.0040
12165W        W28349  14.526   9.475  14.252 -0.2318 -0.1525  0.0929
12166W        W28350   7.948   1.817  13.255 -0.1906 -0.1827 -0.2778
12167W        W28351   5.531  13.074   5.064  0.0526 -0.0740  0.0609
12168W        W28352  18.381  13.430  12.393 -0.1677 -0.1813  0.2538
12169W        W28353  17.211   1.888   3.359  0.0349  0.0663 -0.0567
12170W        W28354   4.252  12.116   1.636  0.0472 -0.1009 -0.1851
12171W        W28355  11.212   3.637  15.037 -0.0263  0.0699  0.0882
12172W        W28356   1.695   4.289   5.190 -0.1210 -0.1892  0.2127
12173W        W28357  18.157  17.008   1.263  0.1083  0.2558 -0.1101
12174W        W28358  16.164   7.396  12.673 -0.3938  0.2444  0.0519
12175W        W28359   1.556   7.881  12.349  0.5671  0.0587  0.2993
12176W        W28360   8.183   8.765   1.347  0.0680 -0.0948  0.0015
12177W        W28361  14.772   4.530   4.504 -0.0319  0.1922 -0.0309
12178W        W28362   2.177  10.082   2.765  0.3688  0.3754 -0.3326
12179W        W28363  14.904   6.098   1.751  0.1335  0.1356  0.3956
12180W        W28364   1.420  10.801  15.285 -0.0071 -0.0083  0.1533
12181W        W28365  16.228   4.331  11.391 -0.0811  0.1143 -0.1148
12182W        W28366  11.465   9.997   4.968 -0.1066 -0.3017  0.0742
12183W        W28367  18.255   0.475  11.018 -0.0997  0.1016  0.0007
12184W        W28368  12.494   8.392   1.869  0.1528 -0.4432  0.4536
12185W        W28369   7.473   8.070   1.123  0.0443 -0.1675  0.2908
12186W        W28370   0.353   8.203  14.485 -0.0155 -0.1610 -0.0947
12187W        W28371   0.317  10.870  10.461  0.1552 -0.3510  0.1568
12188W        W28372   8.277   8.780   0.423  0.0138  0.2301 -0.2506
12189W        W28373   3.564  15.359   3.266 -0.2437  0.0160 -0.1925
12190W        W28374   0.857  17.408   3.425 -0.0547 -0.1493 -0.1984
12191W        W28375  10.856  15.603   0.293 -0.1099  0.0853  0.1636
12192W        W28376  15.092  12.372   0.952  0.0405  0.2320 -0.0097
12193W        W28377  13.790  15.056   5.071  0.0458  0.2534  0.0943
12194W        W28378   6.159  14.182  12.710  0.1155  0.1272  0.0040
12195W        W28379  12.152   1.506   1.083 -0.0064  0.0495 -0.2260
12196W        W28380  12.193   7.973  12.461 -0.1719  0.1034 -0.2026
12197W        W28381   9.489  10.546   1.668  0.2995  0.0429  0.0339
12198W        W28382   2.574   6.896  12.814 -0.1306 -0.1726 -0.1905
12199W        W28383   0.418  11.364  10.623  0.2765 -0.1297  0.1288
12200W        W28384   6.271  10.536  13.571 -0.3143 -0.1197 -0.1139
12201W        W28385  11.653   7.350  15.274 -0.3826 -0.0076 -0.2078
12202W        W28386   4.387  17.490   3.721  0.1208 -0.0537 -0.1060
12203W        W28387   6.245  10.947   2.125 -0.2280  0.0128  0.0175
12204W        W28388   1.549  10.643  14.436 -0.0424  0.2912 -0.0093
12205W        W28389  11.443   7.443   1.919  0.0010  0.1819 -0.0800
12206W        W28390   1.864   3.769   3.401  0.0887 -0.1445  0.3581
12207W        W28391  17.586   0.290  14.857  0.2146 -0.1669 -0.2178
12208W        W28392   4.369   6.848   0.390  0.2434  0.1379 -0.0892
12209W        W28393   4.854   4.558  13.966  0.1039  0.4798  0.0676
12210W        W28394  11.426   3.358   1.151 -0.0401  0.0754 -0.1406
12211W        W28395   7.791   6.412   4.420  0.1573  0.5480 -0.1022
12212W        W28396   7.008  15.479  12.745 -0.0489 -0.0530 -0.3728
12213W        W28397   9.903   3.381   1.860  0.0658 -0.2179 -0.1707
12214W        W28398  11.578   6.062  14.181 -0.2314 -0.2291  0.2326
12215W        W28399   1.069   8.506   5.831 -0.0731  0.2292  0.2567
12216W        W28400   8.716   3.194   1.223  0.2158  0.1304 -0.0227
12217W        W28401   7.995   9.183  14.474 -0.0811 -0.0861  0.0229
12218W        W28402  11.866   5.701  14.392 -0.1336 -0.1938  0.0434
12219W        W28403   6.508  15.349   2.854  0.1331  0.1127 -0.1451
12220W        W28404   6.769   4.217   3.485  0.1765  0.0651  0.0684
12221W        W28405  18.692  16.322   2.327  0.1523  0.1155  0.1589
12222W        W28406  14.235  12.794   1.513  0.3993  0.1277  0.1195
12223W        W28407  10.780  17.180   1.955 -0.1495 -0.0070 -0.0582
12224W        W28408  17.836  13.318  11.721  0.4122  0.1275  0.2075
12225W        W28409   3.021   3.071   2.562 -0.0562 -0.3716  0.0525
12226W        W28410   0.696  13.889   0.758 -0.0409 -0.0523 -0.0797
12227W        W28411   3.259  10.272  10.875  0.0440  0.0461  0.3482
12228W        W28412   1.658  10.705   3.725  0.3448 -0.0933 -0.1354
12229W        W28413  12.181   1.561  13.256 -0.1569  0.1920 -0.1479
12230W        W28414   7.832   8.711  13.214  0.1791  0.1178  0.1376
12231W        W28415   3.613   0.359   4.279  0.0992  0.0247 -0.0469
12232W        W28416  12.857  17.269  12.852  0.0863  0.0084  0.4360
12233W        W28417  15.242   2.186   3.748  0.0285  0.0047  0.1037
12234W        W28418   5.927   8.848   4.389 -0.2329 -0.2116  0.1665
12235W        W28419   0.681   0.481  12.182 -0.0333  0.1003 -0.0815
12236W        W28420   0.036  18.345  13.688  0.1541 -0.0352 -0.1291
12237W        W28421   3.267   3.749   6.023 -0.1325 -0.4347  0.2667
12238W        W28422   6.124   6.042   1.484  0.1139 -0.1048 -0.4538
12239W        W28423   8.134   6.495   4.876 -0.0149 -0.0763  0.0359
12240W        W28424  18.006  16.522   4.356  0.1423  0.2047 -0.1618
12241W        W28425   0.855   2.666   3.758 -0.0449 -0.0684  0.0209
12242W        W28426  11.250  13.009   2.455 -0.0458  0.0595 -0.2116
12243W        W28427  12.757  18.465  12.511 -0.2424  0.4171 -0.0205
12244W        W28428  11.482  10.569  11.675 -0.1470 -0.0661 -0.1044
12245W        W28429  11.752  17.119  10.730 -0.0305 -0.0305  0.1675
12246W        W28430   3.830  18.396  13.153  0.0420  0.1621  0.1569
12247W        W28431  17.937   6.942   1.529 -0.0688  0.2094 -0.1263
12248W        W28432   8.995   6.563  12.559 -0.0801  0.0797 -0.1151
12249W        W28433  17.027  18.644   3.294 -0.0287 -0.1169  0.3215
12250W        W28434   5.563   7.012   3.404 -0.1747 -0.3385  0.0995
12251W        W28435   8.177  12.806  10.816  0.1174 -0.0373 -0.3038
12252W        W28436   8.707  18.506   1.190 -0.2682 -0.2143  0.1971
12253W        W28437   3.029  13.703  12.198 -0.1404  0.1415  0.1171
12254W        W28438  15.660  14.213   0.123  0.0206  0.2146 -0.2188
12255W        W28439  10.126   7.560  13.618 -0.2775  0.3837  0.1909
12256W        W28440   0.856   8.789   2.447 -0.1570 -0.1683 -0.2037
12257W        W28441  18.352   2.087  12.467 -0.1316  0.2539 -0.0981
12258W        W28442  17.733   3.304   1.145  0.1403  0.2045 -0.0052
12259W        W28443  17.506   5.684   3.376 -0.2835  0.0503 -0.3256
12260W        W28444   2.896  16.181   4.067  0.1410 -0.1369  0.0011
12261W        W28445   3.157  14.194   0.588  0.1706 -0.1578 -0.1164
12262W        W28446  11.873   1.696   2.606 -0.2007 -0.1183 -0.0699
12263W        W28447  18.593   8.575   3.989  0.1443  0.1292 -0.1806
12264W        W28448   0.421  12.945   4.284  0.1614  0.0941  0.1566
12265W        W28449   6.193   6.842  11.798 -0.2282 -0.0810  0.0925
12266W        W28450  11.272   0.699   0.776 -0.1444  0.1383 -0.1418
12267W        W28451   5.444  10.840  14.137 -0.0914 -0.1269  0.0501
12268W        W28452   9.723  16.647   1.796  0.1134 -0.1010 -0.2304
12269W        W28453  17.182  14.357   1.725  0.2822  0.0261 -0.3196
12270W        W28454   8.575  11.768  11.764  0.0757 -0.2208 -0.0317
12271W        W28455  11.435  16.599   3.662 -0.1456  0.0755  0.2595
12272W        W28456   7.847   4.040  15.369 -0.1404  0.1445  0.2285
12273W        W28457  13.700   6.417  14.788 -0.3188 -0.1172  0.1824
12274W        W28458   9.973   5.560   1.527  0.3508 -0.0176  0.1830
12275W        W28459   6.780   9.512  13.153 -0.2987 -0.4206 -0.1071
12276W        W28460  13.843  13.844   2.838 -0.0379  0.2175 -0.1245
12277W        W28461  13.389  16.284   1.652  0.3937  0.2404 -0.1159
12278W        W28462   0.752   5.908   0.140  0.0686 -0.0924 -0.0139
12279W        W28463  11.377  11.418   3.190 -0.0878  0.1238 -0.3091
12280W        W28464   3.976   9.979  13.282  0.0580  0.2711  0.3690
12281W        W28465  17.737   7.442   2.337 -0.2304  0.1138  0.1480
12282W        W28466  13.014   8.360   1.065 -0.2154  0.1789 -0.2023
12283W        W28467  13.419   6.316   0.086 -0.1319 -0.2165  0.2216
12284W        W28468  11.062   2.392   0.788  0.1059  0.1743  0.0511
12285W        W28469  14.132  17.886   5.432  0.0644  0.1194 -0.0611
12286W        W28470   7.483   9.957   3.330 -0.0465 -0.1227 -0.0552
12287W        W28471   1.721   6.805  13.271  0.0091 -0.0047 -0.2038
12288W        W28472   4.064  17.031  14.659 -0.2444 -0.1691  0.0637
12289W        W28473  13.950  14.130  11.128 -0.2655 -0.1464  0.0972
12290W        W28474   4.479   0.468  15.309  0.1223  0.0058  0.0991
12291W        W28475  14.871   7.819  12.923 -0.3068 -0.4267  0.2853
12292W        W28476  17.286   6.495  14.075  0.0506 -0.0757 -0.3123
12293W        W28477   3.632  17.930  10.529  0.2033  0.0019 -0.4523
12294W        W28478   4.785   1.401  14.838  0.0859 -0.0526  0.0804
12295W        W28479   4.615   0.763   4.015 -0.0509  0.1759  0.4700
12296W        W28480   4.391  11.287   3.695 -0.0657 -0.0146  0.0127
12297W        W28481  13.470   6.970   2.471 -0.1039  0.0506  0.0126
12298W        W28482  12.214  14.790  11.866 -0.3280  0.4121 -0.0429
12299W        W28483   3.537   8.580  15.206  0.1145  0.2367 -0.2602
12300W        W28484   6.336  14.846  11.870  0.1731  0.0100 -0.0238
12301W        W28485  14.203  13.085   2.314  0.3345  0.0180 -0.1858
12302W        W28486   4.044  15.233   1.430 -0.2824 -0.1338  0.2773
12303W        W28487  16.055  11.108  12.926  0.1055  0.3015  0.2665
12304W        W28488   4.188  17.611  12.499  0.2114  0.0748 -0.3142
12305W        W28489  17.131   5.429   2.338 -0.1884  0.0023  0.0297
12306W        W28490   9.470   5.420   2.186  0.0746  0.2554  0.0380
12307W        W28491  15.360  10.097  14.987  0.0685 -0.0184 -0.0891
12308W        W28492  15.148  13.903   1.395  0.1966 -0.0134 -0.3607
12309W        W28493   9.747  10.973  15.114 -0.0773 -0.1784  0.2535
12310W        W28494  13.098   8.086  14.663  0.1525 -0.1414 -0.1677
12311W        W28495  10.585  10.454   0.694  0.1360 -0.1202 -0.0927
12312W        W28496   6.444   8.319   2.973  0.1834 -0.2073  0.3291
12313W        W28497   1.063  16.241   2.100  0.2959  0.3427 -0.0145
12314W        W28498   1.603   7.101  11.414 -0.1325 -0.2413 -0.1510
12315W        W28499   8.488  12.230  11.687 -0.1488  0.0298  0.0740
12316W        W28500  11.995   9.959   4.937  0.0329 -0.1361 -0.1049
12317W        W28501   5.504  13.525   5.278 -0.2998 -0.1610 -0.0155
12318W        W28502  17.697  13.183   4.592  0.1242 -0.1667  0.2761
12319W        W28503  12.133   9.581  10.581 -0.0579  0.0582 -0.2442
12320W        W28504  17.838   9.968  11.734 -0.0205  0.0404 -0.0335
12321W        W28505   9.725  18.102  14.783  0.3084  0.0598 -0.0522
12322W        W28506  16.444   6.794  13.843 -0.0593 -0.1955  0.0084
12323W        W28507   6.042   1.059  13.345 -0.0408 -0.0037 -0.0413
12324W        W28508  10.193  14.399  14.859  0.1559 -0.2291 -0.1622
12325W        W28509  18.317   5.154  14.719 -0.1128 -0.2674  0.0184
12326W        W28510  14.743   5.873  13.253  0.0209  0.3500 -0.0123
12327W        W28511   0.998   7.606  13.636  0.4309  0.0002  0.1916
12328W        W28512  15.173   4.604   1.948  0.0224 -0.1223  0.0056
12329W        W28513  16.497   4.148   0.836  0.0205  0.2906  0.1886
12330W        W28514   8.520  17.342  12.411  0.2458 -0.1671  0.1306
12331W        W28515   0.425   3.984   3.128  0.0172 -0.0894  0.2388
12332W        W28516   2.383   0.907   4.913  0.1471 -0.2759 -0.0526
12333W        W28517  15.733  11.789  13.635  0.1199 -0.0030 -0.1305
12334W        W28518   9.450  16.439  11.090  0.0659  0.0386 -0.0023
12335W        W28519   8.566  18.175  13.446  0.1778  0.1122  0.2922
12336W        W28520   1.931  18.840  14.792 -0.0164  0.0911 -0.0021
12337W        W28521   1.104   5.931   1.505 -0.0578  0.1557  0.2007
12338W        W28522   3.426  16.393  11.735  0.2903 -0.2040 -0.2544
12339W        W28523   5.145  15.649   2.593 -0.3231 -0.0521  0.1133
12340W        W28524  11.906   4.303  13.017  0.0570  0.2670 -0.2457
12341W        W28525   4.969  17.212  12.372  0.0696 -0.1774  0.1511
12342W        W28526   3.581  10.125   9.797 -0.0207  0.2099  0.0225
12343W        W28527  15.824  13.795   2.932  0.0437  0.1015 -0.1109
12344W        W28528  15.437   8.353   4.898  0.1305  0.1763  0.1302
12345W        W28529   8.838   3.900   0.280  0.2422  0.0706  0.0946
12346W        W28530   8.169  14.001   3.959 -0.1448  0.1923  0.0414
12347W        W28531   2.470   1.575  14.417 -0.0952 -0.1049  0.0244
12348W        W28532   7.899   4.818  13.904 -0.1332  0.0715  0.2588
12349W        W28533  17.619   5.692   1.423  0.2497  0.1679 -0.4584
12350W        W28534   3.588  14.013   0.849  0.0468  0.2302 -0.0643
12351W        W28535   5.706  12.888  13.625 -0.0076  0.2310  0.0673
12352W        W28536  11.999  14.562  11.091  0.1453 -0.0420 -0.1637
12353W        W28537   2.175   9.200  13.744  0.1286 -0.0162  0.0186
12354W        W28538   5.766  13.944  12.464 -0.2395 -0.1154  0.0259
12355W        W28539  15.300   1.821  11.988 -0.2252  0.1208  0.1308
12356W        W28540  14.670   7.174   5.020 -0.0606 -0.0044 -0.5157
12357W        W28541   3.550  10.713  14.338  0.1442  0.1686  0.0128
12358W        W28542  14.493  12.935   3.345  0.0451 -0.0699  0.0116
12359W        W28543   7.706   8.077  11.080 -0.1118 -0.0383 -0.0730
12360W        W28544   6.161   9.817   4.636  0.0145  0.0583  0.2269
12361W        W28545  15.648   6.159   1.629  0.1393 -0.3557 -0.0492
12362W        W28546  13.467  17.133  11.433  0.0766 -0.1496  0.0313
12363W        W28547  15.627   1.632   0.035  0.0704  0.1627  0.1516
12364W        W28548  13.570   3.436  12.632 -0.0764  0.2664 -0.0542
12365W        W28549   4.089   2.324   5.259  0.0448 -0.0754 -0.0064
12366W        W28550   7.258   5.069  10.886 -0.1890 -0.1222  0.3694
12367W        W28551  12.190  11.589  14.509 -0.1457 -0.1637  0.1399
12368W        W28552   1.481   3.915   9.972 -0.0214  0.3814  0.0338
12369W        W28553  13.937   6.268   5.913  0.0932  0.0961  0.1057
12370W        W28554  12.914   2.958  13.760 -0.3839  0.0189 -0.1001
12371W        W28555   0.672  10.188   2.510 -0.0860  0.0076  0.0836
12372W        W28556   0.404  17.376  13.634  0.3064  0.1578 -0.0629
12373W        W28557  13.293  13.492  13.435 -0.0152  0.0075  0.2010
12374W        W28558  14.536   2.847   4.831  0.1693  0.1566  0.2417
12375W        W28559  15.770   1.755   0.467  0.0986 -0.0353 -0.2059
12376W        W28560  17.152   1.907  13.431  0.0915 -0.1731  0.2383
12377W        W28561   6.749  10.873  12.582 -0.1264  0.0898  0.1890
12378W        W28562   0.684  17.203   1.505  0.2128  0.1510 -0.1467
12379W        W28563  18.194   9.337  11.114 -0.1327  0.1282  0.2822
12380W        W28564   5.588   5.402   5.481  0.0516 -0.2070 -0.1256
12381W        W28565   2.650   0.780  14.859 -0.2135  0.1944  0.0244
12382W        W28566   6.460  16.500   0.632  0.3198  0.2588 -0.1766
12383W        W28567   2.831   6.958  11.959 -0.0830 -0.2090 -0.1370
12384W        W28568   6.044   1.841   1.076 -0.1214  0.0162 -0.2101
12385W        W28569   9.490  12.883   2.794 -0.1008 -0.0249  0.0477
12386W        W28570   1.841  16.845  14.872 -0.1333 -0.1657  0.1457
12387W        W28571  17.854   6.950  11.589 -0.3708 -0.0324  0.0423
12388W        W28572  12.780   4.956  10.669 -0.2873  0.0884  0.1652
12389W        W28573  18.510  14.661   2.301  0.3193 -0.1158 -0.1617
12390W        W28574   8.729  12.608   4.632 -0.2261  0.1710  0.0570
12391W        W28575  13.251   4.945   0.297 -0.1705  0.3269 -0.1412
12392W        W28576   3.839  17.649  14.308 -0.0088 -0.1222  0.0228
12393W        W28577   1.020   1.151  12.888 -0.1753  0.2372  0.0310
12394W        W28578  10.937  13.623   0.654  0.0691 -0.1072 -0.0422
12395W        W28579  13.307   2.199  13.158  0.0062 -0.0811 -0.0996
12396W        W28580   6.751  11.209   0.299  0.3634  0.0027  0.1885
12397W        W28581   1.077   3.970  11.841  0.0230  0.0286  0.1658
12398W        W28582   7.045  11.670  13.446  0.1292  0.1847  0.2923
12399W        W28583  18.105   9.260  11.607  0.0315  0.2113 -0.4275
12400W        W28584   9.488  13.820   0.389 -0.1262  0.0756  0.1822
12401W        W28585   8.400  11.331  14.740  0.1965 -0.1094  0.3179
12402W        W28586   3.781  10.388  10.222 -0.1535 -0.0411  0.6680
12403W        W28587  11.229  13.450  12.534 -0.2658 -0.0286  0.1951
12404W        W28588  10.825   6.129   5.742 -0.4065 -0.0544 -0.4184
12405W        W28589   6.862  18.106   0.455 -0.0670  0.1897  0.0473
12406W        W28590  14.994   1.566  13.853  0.1153  0.0756 -0.1487
12407W        W28591  10.580   7.694  13.774  0.1375 -0.2238  0.0940
12408W        W28592  12.133  18.736   3.342  0.0338 -0.1210  0.0812
12409W        W28593   6.327   8.203   0.846 -0.0045  0.0793  0.0771
12410W        W28594   9.959   8.793  14.126  0.1338 -0.2413  0.0389
12411W        W28595  10.670   6.381   2.299 -0.0603 -0.0379  0.2577
12412W        W28596  17.956   4.046   1.799 -0.1664  0.1630  0.1775
12413W        W28597   4.254  10.439   2.735 -0.1710 -0.1133  0.0278
12414W        W28598   3.884   0.336  14.757 -0.3597  0.4240  0.0861
12415W        W28599   7.918   2.817   4.719 -0.1283 -0.0023  0.4313
12416W        W28600  13.969  13.334  12.699 -0.3404 -0.1132  0.0064
12417W        W28601   7.178   9.598   5.440 -0.0056 -0.2635  0.0877
12418W        W28602   9.656   7.865  11.225 -0.0808  0.2781 -0.1583
12419W        W28603  15.736  10.191   0.524  0.0694  0.0028 -0.0451
12420W        W28604   7.631  18.367   4.194  0.0888  0.5357  0.2491
12421W        W28605   7.103   8.169  14.687  0.4233 -0.3312  0.0879
12422W        W28606   2.728  13.122  12.500 -0.1057  0.0217 -0.1758
12423W        W28607  15.224   7.538  12.682  0.1103  0.1311  0.2935
12424W        W28608  12.525   7.218  15.013  0.2683  0.0226 -0.0269
12425W        W28609  16.757   7.372  14.716  0.0460  0.4033 -0.1129
12426W        W28610   9.120   7.937  13.488  0.0228 -0.0602 -0.1944
12427W        W28611  14.513  17.662   1.427 -0.1175 -0.1358  0.0011
12428W        W28612   8.915   1.375  11.630 -0.3450  0.2830  0.2248
12429W        W28613  18.919  16.782  15.209  0.1316 -0.0730  0.1784
12430W        W28614   2.833  10.740   5.372  0.1482 -0.0875  0.0759
12431W        W28615  17.512  15.983  11.387  0.0624  0.0969 -0.0625
12432W        W28616  10.379   4.679   1.126  0.2549  0.2563 -0.0366
12433W        W28617  16.952  11.538  15.163 -0.1552  0.0338 -0.1270
12434W        W28618  16.921  12.899  15.371  0.3329 -0.1210  0.1721
12435W        W28619  17.482  14.071   4.477 -0.1189  0.0839  0.0045
12436W        W28620  10.134  13.623   5.383 -0.2884 -0.2283 -0.1891
12437W        W28621   6.670   1.813  11.937 -0.2954  0.0882 -0.0110
12438W        W28622  11.769  12.220  12.914 -0.1459 -0.0501  0.1182
12439W        W28623   1.090   6.436  12.024  0.0802 -0.0202 -0.1498
12440W        W28624  16.080  12.256   1.840  0.1282  0.0653 -0.3577
12441W        W28625  14.781  18.466  13.359 -0.1812 -0.0711  0.0064
12442W        W28626   5.126   0.539  14.234 -0.1325  0.1201 -0.1739
12443W        W28627  11.254  14.125  13.230 -0.0066 -0.1822  0.1165
12444W        W28628   3.396  16.282   0.095 -0.0234  0.2708 -0.2995
12445W        W28629   5.692   1.549   1.372 -0.1251  0.1295  0.0580
12446W        W28630  10.116  17.080  11.415  0.2541 -0.1496  0.1129
12447W        W28631   1.739  17.982  11.141 -0.0687 -0.0855 -0.1446
12448W        W28632  17.376   7.803   4.084 -0.1042  0.1683 -0.0714
12449W        W28633  13.816   6.835   4.601  0.0881 -0.0948 -0.0164
12450W        W28634   9.154   4.773   0.490 -0.1183 -0.4164 -0.1257
12451W        W28635   8.126   7.037   4.427 -0.0554 -0.1818 -0.0002
12452W        W28636  15.746  18.414   3.380 -0.0110  0.2005 -0.2033
12453W        W28637   9.643  10.754  12.847 -0.1264 -0.5743  0.0263
12454W        W28638  18.174  12.009  13.008  0.3156  0.0677 -0.0892
12455W        W28639  11.193  18.261  12.588 -0.2805  0.0387 -0.0216
12456W        W28640   5.133  13.686  10.739  0.0132 -0.4095  0.1013
12457W        W28641  17.644  17.561  15.026  0.1848 -0.0196 -0.0116
12458W        W28642   0.663   9.559   0.354  0.1345 -0.2377 -0.1922
12459W        W28643  16.130  18.824  13.424  0.0329 -0.0009  0.1795
12460W        W28644   8.454   1.868   3.807 -0.0026  0.0301  0.2827
12461W        W28645   6.903   7.741  11.547 -0.0040 -0.4007  0.0343
12462W        W28646  10.014   6.810   5.064 -0.2388  0.0484 -0.0191
12463W        W28647   9.521   8.759   0.004  0.0135  0.0150  0.0089
12464W        W28648   1.222  12.066  11.175 -0.3026  0.0162 -0.0041
12465W        W28649  14.382   5.754  14.086 -0.0755  0.3102 -0.0846
12466W        W28650   5.880  15.899  13.236  0.5790 -0.1698 -0.1235
12467W        W28651  10.200  18.760   2.910  0.2247 -0.1492  0.0398
12468W        W28652  15.018   4.008   2.723 -0.1440 -0.2768 -0.1662
12469W        W28653  15.704   3.914   4.553 -0.0340 -0.2470  0.0550
12470W        W28654   7.060   5.849  11.576  0.0929 -0.2223  0.0284
12471W        W28655  14.191  14.272   4.807 -0.1803  0.1390 -0.1363
12472W        W28656   7.290  16.791   4.474 -0.1304 -0.0043 -0.0603
12473W        W28657  15.017  15.503   0.276  0.4002 -0.1329  0.1333
12474W        W28658   3.813   5.600   5.028  0.3147 -0.3908 -0.0039
12475W        W28659   7.534  18.393   3.612 -0.1835  0.0199  0.1424
12476W        W28660   3.260   3.173  13.378 -0.2744  0.0335 -0.1377
12477W        W28661   5.666   9.787   0.135  0.0807  0.0571  0.2490
12478W        W28662   7.730  14.639   4.690  0.2997 -0.1331 -0.1529
12479W        W28663   7.087  11.222  15.227 -0.0310  0.2944 -0.2756
12480W        W28664   2.098   8.691  14.605  0.1619  0.2988 -0.0936
12481W        W28665  16.521   9.130  15.099 -0.0818  0.1781 -0.0731
12482W        W28666  18.402   9.767   2.189 -0.0919 -0.0911  0.1950
12483W        W28667  14.219  15.408  12.723  0.2349  0.0501 -0.4828
12484W        W28668  15.948  14.976   4.967 -0.0622  0.2005 -0.0251
12485W        W28669  14.980  14.317   3.086  0.1018  0.0327 -0.2006
12486W        W28670  12.339   1.906   1.385 -0.0750 -0.3096 -0.0664
12487W        W28671   6.583   6.918  11.500  0.0865 -0.1870  0.0324
12488W        W28672   7.195   0.602  13.540 -0.0395  0.0124 -0.0617
12489W        W28673   2.951  12.299   1.499  0.0192 -0.2220 -0.0169
12490W        W28674   3.078   5.298   2.892  0.1257 -0.1185  0.0523
12491W        W28675   7.244  17.382   3.606  0.0425  0.0211  0.0556
12492W        W28676  14.823   0.545  14.603 -0.1085 -0.1025 -0.1067
12493W        W28677   4.825  18.425  15.011  0.2146  0.2202 -0.2420
12494W        W28678  11.972   7.466  14.753 -0.2064 -0.3417  0.3152
12495W        W28679   1.687  17.026   1.344 -0.1630  0.1744 -0.2473
12496W        W28680  12.086  10.034   0.539  0.0849 -0.2036  0.0407
12497W        W28681   6.652  15.989   2.483  0.0586  0.0531 -0.0029
12498W        W28682   8.723  15.487  14.726 -0.0128 -0.0345 -0.3379
12499W        W28683  12.766   9.711  10.444  0.0194 -0.0057 -0.0515
12500W        W28684  10.556   0.424   4.318 -0.1140  0.3619  0.0619
12501W        W28685  18.434   6.952   1.686  0.1694  0.0125 -0.0405
12502W        W28686   1.143  18.032   1.990  0.0087 -0.0095 -0.2205
12503W        W28687   5.219   2.713  15.267 -0.0397 -0.3354 -0.3531
12504W        W28688  15.609   5.824   2.756 -0.1883  0.1664  0.1365
12505W        W28689   2.247   3.672   3.114 -0.2183  0.0112 -0.2564
12506W        W28690  10.847  14.897   1.317 -0.2062  0.0924  0.1799
12507W        W28691   8.406  13.259  11.605  0.1879  0.0786  0.1214
12508W        W28692   9.731   5.328  13.368  0.0016 -0.1757  0.0890
12509W        W28693  12.421   3.544  12.290  0.0040 -0.4683  0.0419
12510W        W28694  14.729  16.712   5.858 -0.2257 -0.1229  0.1515
12511W        W28695  12.623  12.419  11.753  0.1714 -0.0863  0.0134
12512W        W28696   9.797   9.137   1.086  0.0748  0.1205  0.1078
12513W        W28697   6.023   0.810  11.642 -0.1167 -0.2925 -0.0068
12514W        W28698   0.536   6.287  13.244 -0.1264  0.0450 -0.0092
12515W        W28699   2.119  11.113  13.746 -0.1797  0.0792 -0.0095
12516W        W28700   8.872   0.113   0.282  0.0289 -0.2221  0.1707
12517W        W28701  12.688  18.243   1.171  0.0719  0.0609  0.0182
12518W        W28702   1.214  11.840   0.700 -0.0358 -0.0623  0.3839
12519W        W28703   5.549  18.870   3.370 -0.1299  0.0492  0.0361
12520W        W28704   5.444   1.198   5.244  0.3013 -0.2748 -0.1717
12521W        W28705  17.076   1.788   1.388 -0.0933 -0.2669 -0.0114
12522W        W28706  13.707  11.706  13.536  0.1182 -0.3073 -0.0014
12523W        W28707   5.810   3.377   1.321  0.0596  0.1751  0.0943
12524W        W28708   1.658  18.886   3.482  0.2106  0.1559 -0.1110
12525W        W28709  16.385   8.480  14.327  0.0061  0.1015 -0.3986
12526W        W28710  12.385   3.132   4.688  0.2679  0.2266  0.0726
12527W        W28711   4.731   1.994  13.204  0.1660  0.1138  0.1768
12528W        W28712   4.767  12.610   4.065 -0.2484  0.2449  0.1518
12529W        W28713  18.693   9.254  14.996 -0.0663  0.2171  0.2741
12530W        W28714   6.228  18.542  13.330  0.0803 -0.1386 -0.1237
12531W        W28715  18.180   5.036   3.727 -0.1460  0.0772 -0.1169
12532W        W28716  17.648   4.097   3.680 -0.1913 -0.0512 -0.0276
12533W        W28717  15.642  16.452  15.069  0.3145  0.3013 -0.2936
12534W        W28718   2.050  16.719   1.238 -0.1800 -0.0962  0.1884
12535W        W28719   2.004   0.253  11.535 -0.0566 -0.2132  0.3266
12536W        W28720  15.704  14.919  15.009 -0.0579 -0.1436  0.2860
12537W        W28721   9.046   2.335   9.837 -0.2573 -0.3039 -0.0724
12538W        W28722   4.747   8.397   2.112 -0.0879 -0.0975  0.3461
12539W        W28723   9.766  18.589   4.404 -0.0294  0.1019 -0.2486
12540W        W28724   0.322   5.427   2.707 -0.0161 -0.0770  0.1457
12541W        W28725  11.198  16.689   2.128 -0.1445  0.0110 -0.1523
12542W        W28726   6.283   8.412  11.111  0.1097  0.2979 -0.2260
12543W        W28727  10.773   0.565  13.303 -0.0178 -0.0613  0.4955
12544W        W28728  14.082  17.769  11.267 -0.0644 -0.2323  0.3643
12545W        W28729  10.505  18.577  15.015 -0.0270  0.1060  0.2419
12546W        W28730  17.686  15.422  11.337  0.4005  0.0413 -0.0322
12547W        W28731  16.663  15.736   0.951  0.0977  0.0811 -0.0103
12548W        W28732  17.601   0.448  14.429 -0.0291 -0.0814 -0.0694
12549W        W28733   1.030  14.004  14.020 -0.0705  0.0889  0.1205
12550W        W28734  13.646  10.128  11.351  0.2001 -0.0332 -0.1928
12551W        W28735   5.530   1.262   3.902  0.2585  0.1077  0.3162
12552W        W28736  13.719   5.418  14.371  0.2427  0.0965  0.0270
12553W        W28737  17.417   5.628   2.002 -0.2415 -0.3103 -0.2200
12554W        W28738  11.619   7.873  14.597  0.0470  0.1042 -0.1888
12555W        W28739  18.513   5.790   2.440 -0.2236  0.0867 -0.0137
12556W        W28740  11.476   1.198   4.303 -0.0495 -0.1272  0.0618
12557W        W28741   0.799   3.070  10.854 -0.1283  0.1195  0.2896
12558W        W28742  11.590   1.640  15.272 -0.0248 -0.2232 -0.2182
12559W        W28743  18.822   4.624   3.269 -0.2688 -0.1701  0.1627
12560W        W28744  11.043  16.687  12.471 -0.1490 -0.5161  0.1521
12561W        W28745   9.656  17.404  11.246 -0.2285  0.0468  0.3543
12562W        W28746  12.886  16.874   1.067 -0.1220 -0.1979  0.2856
12563W        W28747  16.416  14.701  13.590 -0.2535  0.1349 -0.0877
12564W        W28748  18.262  18.626  13.965 -0.2928 -0.2351 -0.2060
12565W        W28749   9.943  16.555  14.274  0.0152  0.0693 -0.0501
12566W        W28750   3.984   5.008   2.465 -0.1890 -0.1151 -0.1360
12567W        W28751   1.073   5.258  14.657  0.0524 -0.1684 -0.1292
12568W        W28752   3.633  18.038   5.629 -0.1123  0.2100  0.0934
12569W        W28753  11.085  13.755  13.636 -0.0880 -0.0299  0.2823
12570W        W28754   8.906  12.181  11.981  0.1763  0.3917  0.2151
12571W        W28755   8.424   1.721   4.676 -0.1937  0.0919 -0.1444
12572W        W28756  15.276   1.326  11.911  0.3340 -0.0711  0.1278
12573W        W28757  11.815   8.611  12.037 -0.5036  0.0854 -0.0919
12574W        W28758  17.452   7.699   3.608  0.0160  0.2685  0.0061
12575W        W28759  14.197   5.355  11.579 -0.1022  0.2293  0.4432
12576W        W28760  13.276  12.447   4.224  0.3165  0.1171  0.3439
12577W        W28761   1.624   4.921   0.288  0.0505  0.1522 -0.2584
12578W        W28762   9.877   6.193  12.877 -0.0285 -0.1164  0.3110
12579W        W28763  17.959   0.587   3.369 -0.1490 -0.2560 -0.0864
12580W        W28764   3.053   4.979   5.280 -0.1851 -0.1425  0.0255
12581W        W28765  14.591   4.659  11.226  0.3299 -0.0120  0.0096
12582W        W28766   7.654  14.640   2.644 -0.0820 -0.0719 -0.0555
12583W        W28767   3.906  13.837   4.508 -0.1148  0.2867  0.0240
12584W        W28768  15.111   0.108  14.234 -0.2054  0.1166  0.0534
12585W        W28769   8.766  11.713  14.848 -0.0294  0.3614 -0.0064
12586W        W28770  14.725   8.756  12.133 -0.2867 -0.0273 -0.3758
12587W        W28771  10.225   1.574   2.345  0.1009 -0.1493  0.3695
12588W        W28772  14.367   9.277  13.798 -0.2459  0.2091 -0.0007
12589W        W28773  14.828   3.313  15.213 -0.2073  0.0645 -0.1496
12590W        W28774  16.004   4.222   4.882 -0.2368  0.0713 -0.2298
12591W        W28775  18.310   7.718  14.087 -0.0111  0.0437 -0.0391
12592W        W28776   8.206  12.362  15.220 -0.1435 -0.0664  0.3024
12593W        W28777  13.203   1.753  10.827  0.1048 -0.2511 -0.2075
12594W        W28778  10.298  11.964   4.348  0.0940  0.0901 -0.3068
12595W        W28779   1.536  12.296   3.241 -0.0078  0.0649 -0.1818
12596W        W28780   5.215  18.622   4.021  0.0257  0.2716 -0.2742
12597W        W28781   5.017   5.739   4.140  0.0563 -0.2553 -0.0049
12598W        W28782   9.386   6.356   2.554 -0.1847 -0.1894  0.0572
12599W        W28783   5.510   2.430   2.162  0.1790  0.0041 -0.1310
12600W        W28784  15.997  10.564  12.351  0.0395  0.0150 -0.3171
12601W        W28785  12.202  14.495  10.617  0.0596 -0.2587  0.1011
12602W        W28786   2.924   1.151  12.291  0.1747 -0.2593  0.0820
12603W        W28787  15.143   1.796   4.501 -0.0561  0.1861 -0.4446
12604W        W28788   9.508   6.721  12.151 -0.0676  0.0213  0.2410
12605W        W28789  13.687   5.692   4.970 -0.0901 -0.0904 -0.3157
12606W        W28790   2.958  15.098  11.883 -0.1986  0.3387  0.0595
12607W        W28791  12.306   5.514  12.056  0.2004  0.2277  0.1077
12608W        W28792  13.212  10.998   0.700 -0.2301 -0.1078  0.0088
12609W        W28793   5.139   4.863  13.652 -0.0773  0.0590 -0.0815
12610W        W28794   8.821   0.076  14.433 -0.1503  0.0351  0.3152
12611W        W28795  11.048  18.219   2.901  0.0604  0.2559  0.0479
12612W        W28796  14.299  13.486   0.827 -0.1334  0.1136 -0.0659
12613W        W28797   2.704   6.768   4.631  0.2358  0.3830 -0.2676
12614W        W28798   6.534  13.014  14.887  0.1810 -0.1435  0.3330
12615W        W28799   3.302   2.848  13.858 -0.0227  0.1148  0.1415
12616W        W28800   9.937   5.976  11.052  0.0129 -0.0880 -0.1513
12617W        W28801   6.382   6.218  12.043  0.1464  0.2017 -0.0417
12618W        W28802  14.482   1.314   1.940  0.0534  0.2759 -0.0598
12619W        W28803  11.805   9.918   0.927 -0.1449 -0.2259  0.2980
12620W        W28804   0.394   2.586  11.544 -0.0502 -0.1421 -0.1116
12621W        W28805  10.161   3.821   0.730 -0.4425 -0.0693 -0.0765
12622W        W28806   5.941   2.870   0.427 -0.2563  0.1387  0.0709
12623W        W28807   8.701  13.785   1.420  0.0695  0.2823  0.1583
12624W        W28808  14.664   3.720   4.204 -0.3719 -0.2868  0.0944
12625W        W28809   3.514   3.518   3.747  0.3754  0.0862 -0.1810
12626W        W28810   8.236   5.421  14.703 -0.3683 -0.2353  0.0593
12627W        W28811   6.450  11.024   0.678 -0.0029 -0.2454 -0.1743
12628W        W28812  12.816   8.824  12.260 -0.0889 -0.2005  0.1590
12629W        W28813  18.667   6.529   2.878  0.0012 -0.1423  0.0998
12630W        W28814   3.342  18.960   5.600  0.1335 -0.0731 -0.0935
12631W        W28815   6.877   6.498   3.103 -0.0524  0.3310  0.1306
12632W        W28816  15.232   0.144  12.777  0.3229  0.1861  0.1864
12633W        W28817  12.482   1.303   4.585  0.0948  0.0241 -0.1737
12634W        W28818   4.075  13.362  14.158  0.0770 -0.0461 -0.2627
12635W        W28819  18.676  14.484  11.904 -0.0383 -0.1102 -0.1350
12636W        W28820   4.415   6.762   3.301 -0.2170  0.1856 -0.2019
12637W        W28821  10.437   1.374  14.327  0.0357 -0.1717  0.3150
12638W        W28822   9.122   1.576   3.718  0.1165 -0.0715 -0.3294
12639W        W28823  14.414  17.577   0.154 -0.2448 -0.2511  0.1425
12640W        W28824  15.438  12.563   3.016  0.1808 -0.2505  0.2553
12641W        W28825   8.911   6.489  13.117  0.0314  0.0978 -0.5227
12642W        W28826   8.628  17.468  11.301 -0.0021  0.0455  0.2625
12643W        W28827  17.436  13.587  12.654 -0.1617 -0.2118  0.1425
12644W        W28828   0.137   4.506  11.089 -0.1608  0.2189 -0.1305
12645W        W28829  11.975  11.617   4.281  0.0476  0.1619  0.1929
12646W        W28830   9.009  13.872  13.902  0.1379 -0.2042 -0.3328
12647W        W28831  14.501  14.277   4.344 -0.0042  0.0160 -0.2452
12648W        W28832   3.441   8.659  12.584 -0.0220  0.0226  0.0603
12649W        W28833  17.358  18.909   4.220 -0.1213  0.0223 -0.1263
12650W        W28834   6.281  13.804  11.764 -0.2952  0.3067 -0.2356
12651W        W28835   1.804   5.597  15.186  0.0173  0.2099 -0.1749
12652W        W28836   3.768   0.120   1.402  0.0042  0.2078  0.2105
12653W        W28837   5.720   6.920  12.044 -0.1544  0.0604 -0.0959
12654W        W28838  17.402   6.224   1.675  0.0687 -0.0319 -0.1506
12655W        W28839   8.157   7.256   2.621  0.1014 -0.0131  0.1501
12656W        W28840   0.253   8.939  10.567  0.2581 -0.0371  0.1771
12657W        W28841  14.699  17.800  14.457  0.3717 -0.1093  0.3470
12658W        W28842  14.008   4.760   2.723  0.3220 -0.1870 -0.0582
12659W        W28843   8.649   1.320   5.477  0.0337  0.1092 -0.1383
12660W        W28844   9.531   7.598   5.026 -0.0458  0.1891 -0.1263
12661W        W28845  18.643  13.521   2.886 -0.0691 -0.1715  0.2843
12662W        W28846  17.036   9.257  13.320  0.2055  0.2075 -0.0374
12663W        W28847  18.897   2.839   2.509 -0.1461  0.1335 -0.1067
12664W        W28848   2.100  17.048  12.209 -0.1405  0.1120  0.0758
12665W        W28849  10.207   7.851  10.691 -0.0206 -0.0566  0.1303
12666W        W28850  13.335   8.414  15.090 -0.1770 -0.2156  0.1738
12667W        W28851   7.736   1.849   1.606  0.0960  0.0439 -0.3725
12668W        W28852  11.529  10.732  13.808  0.3896 -0.4089  0.0732
12669W        W28853   4.034   2.016  10.765 -0.0283  0.1143  0.0523
12670W        W28854   8.448   8.985  14.097  0.0450  0.1802 -0.0555
12671W        W28855  15.820  18.919   2.925 -0.1956  0.4047  0.3543
12672W        W28856   8.515   9.976   9.620 -0.1529  0.0607  0.1735
12673W        W28857  16.319   0.057   1.077  0.0105  0.0154  0.1380
12674W        W28858   8.413  16.495   1.161 -0.0853  0.1406 -0.2197
12675W        W28859   8.170  18.826  12.184 -0.1225  0.3155 -0.2470
12676W        W28860   4.187   4.446   1.665  0.1269  0.2659  0.0024
12677W        W28861   2.255  18.329   3.790  0.0046 -0.0506  0.1266
12678W        W28862   4.256  16.237   3.710 -0.0551  0.0346  0.1734
12679W        W28863  10.580  15.207  11.423 -0.1748 -0.0038  0.2591
12680W        W28864  17.876  11.877   5.476 -0.1890  0.1281 -0.3585
12681W        W28865  16.288  17.976  12.290 -0.1821 -0.0645  0.0846
12682W        W28866  13.954   8.026   1.405 -0.0127 -0.2287  0.2484
12683W        W28867  16.524   7.634  15.115 -0.0272 -0.0351  0.0198
12684W        W28868  15.998  18.963  11.534 -0.3253 -0.1471 -0.0108
12685W        W28869   6.907   3.483   0.267 -0.0331 -0.1827  0.1563
12686W        W28870  16.946   7.052  11.659 -0.2564  0.0992 -0.0048
12687W        W28871   4.855  18.760  13.147  0.1383 -0.0797  0.3747
12688W        W28872   9.954  11.947  14.631  0.2502 -0.0520  0.1514
12689W        W28873  13.341   0.531  15.008 -0.0620 -0.1165 -0.1863
12690W        W28874  17.028   5.980   4.948 -0.2106 -0.0761  0.1793
12691W        W28875  10.921  13.065  13.785 -0.0775  0.0259 -0.2183
12692W        W28876   6.197   2.637   5.005  0.2184  0.5671  0.1191
12693W        W28877   5.878   3.860   3.647 -0.0054 -0.1359 -0.0726
12694W        W28878   5.279   4.983  10.795 -0.0394  0.1151 -0.3422
12695W        W28879  13.940  18.746   3.493  0.3285  0.0407  0.1012
12696W        W28880  11.369   0.715  11.816  0.1176 -0.1224  0.2059
12697W        W28881  12.643   3.550  11.792  0.0191  0.2817 -0.0273
12698W        W28882  10.694   6.632  14.596 -0.0378 -0.3412  0.1030
12699W        W28883  12.320  13.038   3.965  0.0016 -0.0328  0.2456
12700W        W28884   4.967   4.081  13.063 -0.2389  0.0946 -0.1495
12701W        W28885   5.528  10.884  13.599 -0.0951  0.2673  0.1766
12702W        W28886  14.638  11.410   0.218 -0.1046  0.1716 -0.0647
12703W        W28887  18.907  18.899   1.932 -0.1930  0.0166 -0.2747
12704W        W28888   7.341   9.860   5.940 -0.2022 -0.0604  0.2720
12705W        W28889  12.924   7.841   2.649 -0.1742 -0.2122  0.0875
12706W        W28890   0.914   4.742   2.675  0.1953  0.2657 -0.1790
12707W        W28891  11.684   4.630  11.124 -0.1945  0.1310  0.0529
12708W        W28892  13.455   1.859  11.788  0.1430  0.1158  0.1486
12709W        W28893   5.858   1.291  11.866 -0.0713  0.0421 -0.3313
12710W        W28894   3.893  12.026  14.831  0.0154 -0.1833 -0.2118
12711W        W28895   5.293   2.521   3.010  0.1512  0.2349  0.2748
12712W        W28896   2.547  10.358  10.854  0.1216 -0.0477  0.3973
12713W        W28897  11.507  18.137   2.483 -0.0756  0.0860 -0.0482
12714W        W28898   8.391   4.160  12.285 -0.1591 -0.0048  0.4051
12715W        W28899   1.718  14.173  13.488  0.2663 -0.1378 -0.0202
12716W        W28900   6.677  11.069  11.663 -0.2732 -0.0240 -0.0777
12717W        W28901   2.268  13.798   1.155  0.2958  0.1818 -0.0495
12718W        W28902  13.173   7.147  15.194  0.2750  0.0556 -0.1005
12719W        W28903  17.893   8.059  14.952  0.1534  0.1317 -0.2594
12720W        W28904   0.482   8.936   3.940  0.1681 -0.2769 -0.1858
12721W        W28905   4.907   4.821  15.022 -0.1511  0.3400  0.1507
12722W        W28906   3.495  14.898   0.698  0.0856 -0.1737  0.4209
12723W        W28907  11.600  13.440   2.312 -0.2394 -0.1080 -0.1950
12724W        W28908  13.691   6.714   0.286  0.0025 -0.0296  0.0005
12725W        W28909  11.878  16.839  14.929  0.1774  0.1066 -0.1063
12726W        W28910   5.733   3.238   1.822  0.0107  0.0605 -0.4875
12727W        W28911  16.568  16.805   4.397  0.0678  0.0182  0.0029
12728W        W28912  18.599  15.844   2.329 -0.0340  0.0113  0.1548
12729W        W28913   1.937   3.817   1.322 -0.2297 -0.0790 -0.1039
12730W        W28914   8.727   0.964  10.215  0.2595  0.2543  0.0178
12731W        W28915  10.185  14.346   3.213  0.1394  0.0174  0.2172
12732W        W28916   2.139   9.079   3.286 -0.3336  0.3369 -0.2173
12733W        W28917   0.559   1.376   1.603  0.3711  0.1599  0.2857
12734W        W28918   0.404  10.802  14.833  0.0739  0.4681 -0.2937
12735W        W28919  18.498  11.404   3.339  0.2028  0.0305 -0.3441
12736W        W28920  14.600   7.296   0.398  0.3123 -0.3637  0.2157
12737W        W28921   9.709  11.023  13.573  0.2160 -0.3171  0.0282
12738W        W28922  18.525   0.212   1.159  0.2523 -0.1304 -0.0957
12739W        W28923   2.152  11.232  15.301  0.3862  0.0059 -0.1982
12740W        W28924   5.605   1.684  13.358 -0.1501  0.0610  0.1488
12741W        W28925  14.985   2.415  13.815 -0.1991  0.2087  0.2608
12742W        W28926  11.175   3.175  12.862 -0.1732 -0.1121  0.2590
12743W        W28927  15.215   6.450  11.209  0.2998  0.1221  0.1092
12744W        W28928   0.616  16.884   3.383 -0.3572 -0.0461 -0.0165
12745W        W28929  15.992   2.205  11.170  0.1338 -0.1444 -0.1804
12746W        W28930  15.024  11.928  11.706  0.0777  0.1092  0.3173
12747W        W28931   4.391  13.748  15.333  0.2326 -0.3618  0.1314
12748W        W28932  14.059  14.444  10.650  0.2190  0.0018  0.3167
12749W        W28933   1.119  10.356   1.639  0.1919  0.1739  0.1914
12750W        W28934   8.451   5.783  10.632 -0.1756 -0.1161  0.3526
12751W        W28935   6.323  14.289   0.391 -0.0285 -0.4737  0.0173
12752W        W28936  10.394  13.561  13.415  0.2422  0.3255 -0.0388
12753W        W28937   6.043  12.619  12.710  0.0057  0.0687  0.0169
12754W        W28938   5.776   4.195  12.527  0.0538  0.2986  0.0047
12755W        W28939   5.304   7.751   0.113  0.1951 -0.0182  0.1910
12756W        W28940  16.745  13.686   5.720 -0.1417 -0.1113 -0.2765
12757W        W28941   9.213  18.341   9.843 -0.0794 -0.2420  0.0191
12758W        W28942  17.445   1.314  14.634  0.0154  0.0616 -0.1428
12759W        W28943  15.301  12.354   4.798 -0.0789 -0.0657 -0.3069
12760W        W28944  10.352   7.978   3.283  0.0972 -0.2047  0.3659
12761W        W28945   6.460   5.907  11.592 -0.0994  0.1821  0.5307
12762W        W28946   4.625  11.151  11.039  0.0628 -0.0380  0.2133
12763W        W28947  13.723  11.127  11.693 -0.3635 -0.1908  0.0066
12764W        W28948   1.879  17.804   2.375  0.1957 -0.1405  0.0524
12765W        W28949   5.208  14.886   4.897  0.1014 -0.1513  0.4233
12766W        W28950  18.943  16.601   1.067 -0.0714  0.2271 -0.3976
12767W        W28951  13.137  11.066   2.430  0.0817  0.0156 -0.1383
12768W        W28952   8.030   2.683  14.010 -0.1331  0.1419 -0.0046
12769W        W28953  10.196   2.977   4.149  0.4048  0.2705 -0.1940
12770W        W28954  14.792   4.770   5.224  0.1923  0.3678  0.1577
12771W        W28955  15.244  13.498   4.580  0.0608  0.1451 -0.0589
12772W        W28956   7.432  12.163  14.814 -0.0672 -0.0752  0.1703
12773W        W28957   5.080   9.821   1.573 -0.2129  0.1395  0.2117
12774W        W28958  13.212   1.107  10.308  0.4086  0.2459  0.0746
12775W        W28959  13.764   3.168   1.489  0.2762  0.3660 -0.4396
12776W        W28960  18.440  16.535   4.115  0.2667  0.0928  0.2600
12777W        W28961  18.387  10.022   4.765  0.0122 -0.1930  0.0682
12778W        W28962  18.147   9.654  12.019  0.1459  0.2671  0.2889
12779W        W28963  11.304   0.473  14.811  0.1226 -0.0898 -0.0166
12780W        W28964  12.908  11.110   4.726 -0.0883 -0.3199 -0.0929
12781W        W28965  14.101  10.468   3.991  0.1639 -0.2315  0.1365
12782W        W28966   7.124   8.953  10.776  0.0181  0.3262  0.0675
12783W        W28967  17.160   7.019   3.070 -0.1649 -0.2214  0.1359
12784W        W28968  15.187   7.220   4.073  0.2999  0.0322 -0.3577
12785W        W28969   3.717   5.251   4.699 -0.2064  0.0475 -0.2117
12786W        W28970  14.945   2.778  15.048 -0.0390 -0.0556  0.1347
12787W        W28971  17.010   7.583   2.274 -0.0362  0.1039 -0.0733
12788W        W28972   2.282  15.832   1.378  0.1929 -0.0358 -0.2512
12789W        W28973   1.879   9.138  10.764  0.0962 -0.0775  0.2408
12790W        W28974  14.566  14.476  10.789  0.1244 -0.0414 -0.0090
12791W        W28975  12.207   6.457  12.535  0.2861 -0.0629  0.0240
12792W        W28976  17.608  14.060   1.615 -0.1065  0.2867 -0.1798
12793W        W28977   8.283   4.763   1.551 -0.3712  0.0280 -0.1270
12794W        W28978   4.600   6.020   4.266  0.0530  0.1074  0.5705
12795W        W28979   1.194   8.442  11.317  0.1465  0.1480  0.0662
12796W        W28980   4.841   5.666   3.356 -0.0034  0.1581 -0.3090
12797W        W28981  15.804   0.775  10.845 -0.1255  0.1855  0.1041
12798W        W28982  16.792  10.864   5.743  0.1005  0.0690  0.0277
12799W        W28983  14.767   7.159   4.440  0.1486  0.1281  0.2177
12800W        W28984  10.003  11.441  10.539 -0.2879  0.2204 -0.0280
12801W        W28985  13.143   2.723   0.441 -0.2527 -0.3207 -0.0380
12802W        W28986  12.890   8.497   2.391 -0.4881 -0.2376  0.2970
12803W        W28987   9.323  13.837   1.524  0.2149 -0.2109  0.0334
12804W        W28988   6.577   7.475  15.325  0.2054  0.2976 -0.1044
12805W        W28989   0.113  18.809  13.453 -0.2708  0.4381 -0.4938
12806W        W28990   6.608   2.197   1.617  0.0471  0.0822  0.1588
12807W        W28991  17.138  16.502   3.272 -0.1509 -0.0892 -0.0161
12808W        W28992  18.586  11.765   9.686 -0.1886 -0.0075  0.3237
12809W        W28993  13.120   2.026  12.753 -0.0719 -0.0225 -0.1822
12810W        W28994   5.000  13.260   0.848  0.0775 -0.0012  0.0445
12811W        W28995   6.331  17.849   2.917 -0.0789  0.0965  0.0020
12812W        W28996  11.297  11.559  13.721  0.0608 -0.0976 -0.1720
12813W        W28997  13.401   1.795  14.320  0.1321  0.1063  0.3456
12814W        W28998   8.130  16.130   0.352  0.0639 -0.1385  0.0249
12815W        W28999   2.176  12.541  13.033 -0.1939 -0.0907  0.0847
12816W        W29000   5.378   7.870   4.463  0.0902  0.1415 -0.1672
12817W        W29001   4.790   6.044   5.085  0.3120  0.0828 -0.1531
12818W        W29002  18.068   6.374   2.235 -0.0120 -0.0696  0.1527
12819W        W29003   2.771   2.582   4.999 -0.1187 -0.0155  0.1517
12820W        W29004  10.071   5.015   0.183 -0.1237 -0.0112  0.4173
12821W        W29005   7.940  12.618  14.779  0.1125 -0.1350 -0.0221
12822W        W29006  16.111   9.634   1.663 -0.0871 -0.0328 -0.2279
12823W        W29007   0.979  16.418   4.128  0.0494 -0.3149 -0.0354
12824W        W29008  17.157  16.526  11.624  0.0175 -0.2833  0.4341
12825W        W29009  10.309   7.566   2.357  0.0867 -0.2598 -0.3091
12826W        W29010   3.652   8.888  10.807  0.1983 -0.0477  0.2741
12827W        W29011  17.849  17.026   3.538 -0.0711 -0.0080  0.0918
12828W        W29012  10.943   7.589   3.058  0.0276  0.1536 -0.2469
12829W        W29013  15.051  17.821  15.294  0.0106  0.1319 -0.0698
12830W        W29014   8.017   4.562  15.213  0.1075  0.0020  0.1864
12831W        W29015   1.851   1.101   4.022 -0.0942  0.1079 -0.1474
12832W        W29016   4.568  12.570  13.134  0.2534  0.3376 -0.1289
12833W        W29017   4.331   2.650  14.788  0.0337  0.2291  0.3282
12834W        W29018  14.432  17.624  11.605  0.0773  0.5764 -0.3851
12835W        W29019   7.545   2.135   4.201 -0.0374 -0.0188 -0.1781
12836W        W29020   3.268  12.112   3.383 -0.1596 -0.2302  0.0952
12837W        W29021   7.692  15.890   2.308 -0.2553 -0.4188 -0.1936
12838W        W29022  10.155   9.477   1.743 -0.1975  0.0282  0.1255
12839W        W29023   2.497  18.015   2.465 -0.0299 -0.0441  0.2169
12840W        W29024  18.018   2.692   4.900 -0.1061 -0.0590  0.0033
12841W        W29025   6.395  11.144  12.988 -0.0983  0.0723 -0.0746
12842W        W29026   2.202  11.573  13.605 -0.5143 -0.2068 -0.0265
12843W        W29027  16.558  10.854   0.710 -0.0590  0.2041  0.2161
12844W        W29028  10.075   6.424  12.038  0.2503  0.0387 -0.1025
12845W        W29029  10.463   8.706   2.338  0.0010  0.0465  0.1852
12846W        W29030   3.306   7.398   2.481 -0.1202  0.0170  0.0125
12847W        W29031   5.574   1.321  13.034  0.1720 -0.2213 -0.3590
12848W        W29032  17.712   6.526   0.407  0.1617 -0.0602  0.0531
12849W        W29033  16.390  15.389  11.436  0.0725 -0.0023 -0.0164
12850W        W29034   1.301  18.675  11.510 -0.2167  0.0598 -0.1814
12851W        W29035  17.909   6.213   4.821 -0.2161 -0.1757  0.0323
12852W        W29036   8.851  12.789  14.805 -0.1392  0.0559  0.3885
12853W        W29037   4.333  10.067  14.986 -0.2118  0.0485  0.2150
12854W        W29038   5.891  17.771   0.288  0.0980  0.2422  0.0186
12855W        W29039  13.905  17.766   0.745  0.0175 -0.1629 -0.1882
12856W        W29040  12.784  17.061  14.848 -0.0476  0.0145  0.1456
12857W        W29041   5.710   5.417  11.905 -0.3936  0.2379  0.3817
12858W        W29042  14.574  11.560  14.902 -0.2098 -0.1644  0.1259
12859W        W29043   7.749   2.698  13.234  0.0167 -0.1286 -0.0987
12860W        W29044  15.318  13.097   2.665  0.1674 -0.4799 -0.1173
12861W        W29045   1.017   5.743  14.527  0.3184  0.0896 -0.3657
12862W        W29046   4.381   0.000   3.579  0.0097 -0.0845  0.0096
12863W        W29047  10.625  11.192   3.573  0.0075 -0.1442 -0.1947
12864W        W29048   9.239   4.673  11.265  0.2169  0.1642  0.0088
12865W        W29049   7.738  10.939   2.746 -0.1335  0.0744 -0.1478
12866W        W29050   4.752  10.113  10.558  0.0645 -0.0967  0.0285
12867W        W29051   8.661   1.383   3.967 -0.1095  0.4123 -0.0358
12868W        W29052   9.980  11.069   2.292  0.3148 -0.2130  0.4458
12869W        W29053   4.375  12.653  14.592  0.0820  0.2362 -0.3937
12870W        W29054   0.656  17.805  11.552 -0.2349  0.0525 -0.2163
12871W        W29055  17.158  18.268   2.996  0.3050  0.0959  0.0538
12872W        W29056  10.950   9.015   3.957  0.0704  0.0477  0.2677
12873W        W29057  15.504   0.257  10.858  0.2681 -0.1184  0.2529
12874W        W29058   3.302   3.335   3.080 -0.3330 -0.1280  0.2451
12875W        W29059   0.916   4.019   2.243  0.0175  0.0155  0.2122
12876W        W29060   6.765   9.510   0.525 -0.3023  0.0842 -0.0704
12877W        W29061  11.032   9.025   2.029 -0.2561 -0.0081  0.0597
12878W        W29062   0.591  13.383   3.799 -0.1064 -0.1627 -0.2863
12879W        W29063   0.130   0.512  11.175  0.0170  0.0388 -0.0630
12880W        W29064   0.957   0.974   2.338 -0.1928 -0.1586 -0.0113
12881W        W29065   1.759   6.641  14.093 -0.0100 -0.1275  0.3005
12882W        W29066   0.875   4.912   3.226 -0.2929  0.2407 -0.0493
12883W        W29067  10.198  15.894   0.598  0.0405  0.0765 -0.2251
12884W        W29068   6.650  15.245   0.586 -0.0923  0.1414  0.2027
12885W        W29069   2.336   8.964  10.646  0.0707  0.2160  0.0556
12886W        W29070  15.849  14.614  11.139 -0.0528 -0.1590  0.3152
12887W        W29071   5.114   7.248  11.093 -0.3473  0.2271 -0.1552
12888W        W29072   7.502  16.604  11.818  0.0703 -0.3593 -0.0230
12889W        W29073  13.066   5.882   4.488  0.2305 -0.1927  0.1571
12890W        W29074  12.336   9.060  10.965 -0.2334  0.0646 -0.0751
12891W        W29075  17.834  15.748   2.850  0.0780 -0.2153 -0.0723
12892W        W29076   3.785  12.892   1.893  0.0139  0.0976 -0.0498
12893W        W29077  14.501   7.130  11.813 -0.1413 -0.1031  0.3850
12894W        W29078  16.344  16.380   2.696 -0.1470  0.1431 -0.0731
12895W        W29079   5.914  18.046  12.784  0.1405 -0.0829  0.0390
12896W        W29080   9.975   3.139  10.720  0.1251 -0.1351  0.0496
12897W        W29081  16.046   7.920   2.550 -0.2730 -0.0221 -0.3027
12898W        W29082   2.915  15.960   2.696  0.0569  0.0728  0.2535
12899W        W29083   5.427   4.543   0.847 -0.0471 -0.2841  0.1122
12900W        W29084   6.600  11.178   9.947  0.1943 -0.2291  0.1285
12901W        W29085   1.023  16.260   2.754  0.0420 -0.2172 -0.1694
12902W        W29086  13.727  16.463  12.964  0.0097  0.0008 -0.0512
12903W        W29087  14.028   2.819   1.063  0.1607  0.0518  0.0064
12904W        W29088  13.488   9.402  13.313 -0.4021  0.0269  0.2553
12905W        W29089   3.471   5.453  14.646 -0.0803  0.3729 -0.2234
12906W        W29090  10.020  14.847  13.573  0.0994  0.0562 -0.2922
12907W        W29091   6.230   8.658   0.788  0.2854  0.1912  0.0368
12908W        W29092  17.485  16.736   1.750 -0.2895 -0.3273 -0.2046
12909W        W29093  13.311  16.317  11.611 -0.0328 -0.0053 -0.2001
12910W        W29094   0.652   1.974   4.612  0.1216  0.3072  0.1848
12911W        W29095  14.985  11.195   2.428  0.0067 -0.0499 -0.0105
12912W        W29096   1.784  15.769   1.228 -0.0135  0.2482 -0.0324
12913W        W29097  15.687  12.107   3.150 -0.0931 -0.0018 -0.2291
12914W        W29098   6.757   7.370   4.206  0.3127 -0.0239 -0.0076
12915W        W29099  13.768   6.501  10.834 -0.1684 -0.3339  0.0268
12916W        W29100  10.597  16.492  13.469 -0.2561 -0.1608  0.4070
12917W        W29101   7.015   2.708   3.330 -0.0744  0.2428 -0.0031
12918W        W29102  15.088   7.519   0.375  0.0507  0.2782 -0.0594
12919W        W29103  17.642   5.203  14.258  0.2505 -0.5571 -0.1007
12920W        W29104   9.543  14.624   0.819  0.2722  0.2245 -0.1945
12921W        W29105   4.418  14.353  14.112 -0.3490  0.0148 -0.1789
12922W        W29106   1.228  10.043   4.902  0.1462 -0.0628  0.0885
12923W        W29107  18.122  18.923  11.006 -0.2551 -0.0235  0.2029
12924W        W29108   6.771  15.475  10.782 -0.7304 -0.1769  0.1421
12925W        W29109  18.722   2.492   1.509  0.0005 -0.1500 -0.2104
12926W        W29110  16.612   0.066  10.057  0.1088  0.2480  0.0308
12927W        W29111  10.654   8.280  13.519  0.1968  0.2543 -0.1082
12928W        W29112  18.471  16.290  13.262  0.0984 -0.2514 -0.0675
12929W        W29113   8.510  14.886   4.435  0.1889  0.0907 -0.2418
12930W        W29114   8.060   4.015   3.057  0.2200 -0.2728 -0.1039
12931W        W29115   2.680  18.798   0.448  0.2843  0.0294 -0.1639
12932W        W29116  18.299   4.660  14.945 -0.1055  0.1287 -0.0275
12933W        W29117  14.109   8.474   2.963 -0.1925 -0.3157  0.1166
12934W        W29118   7.724  10.984  15.230 -0.1486 -0.2145 -0.2907
12935W        W29119   0.312  18.456  14.522  0.0872 -0.3144 -0.0228
12936W        W29120   8.627   3.204  14.856  0.0879  0.1404  0.1382
12937W        W29121   1.014  11.279  11.450 -0.3056 -0.1378  0.0772
12938W        W29122   2.806   2.489   4.305  0.1358 -0.1168  0.2060
12939W        W29123  11.477   8.584   5.591 -0.2856  0.0194  0.0939
12940W        W29124  13.352  13.441  14.069  0.2102  0.2295  0.0088
12941W        W29125   6.231   6.699   3.753 -0.0667 -0.2711  0.0219
12942W        W29126   6.672   1.467   3.143  0.0069 -0.0709  0.2537
12943W        W29127   2.695  16.863   1.424 -0.0119  0.3277  0.0100
12944W        W29128  10.258   0.616  13.155 -0.0550  0.0541  0.2063
12945W        W29129  10.713  18.063   2.054  0.0282 -0.0775  0.3457
12946W        W29130  15.430   2.067   0.648 -0.1555  0.2773  0.1369
12947W        W29131   5.579   0.291   0.031 -0.0319  0.1260 -0.4159
12948W        W29132  16.732  14.082   1.507  0.1399  0.1341 -0.1062
12949W        W29133  17.767  16.935   0.778 -0.2431  0.1441  0.3081
12950W        W29134   3.979   4.884   1.477  0.7718  0.2566 -0.2253
12951W        W29135   2.044  11.018  11.284  0.0935 -0.0032  0.0077
12952W        W29136   3.061   7.665   1.611  0.5209 -0.1543  0.3303
12953W        W29137  17.356  14.917   3.944  0.3483  0.0703  0.3129
12954W        W29138  16.489  16.035  10.639  0.0036 -0.0046 -0.4720
12955W        W29139   9.330   5.123  11.031 -0.2960 -0.1089 -0.1620
12956W        W29140   4.467  11.441   5.409 -0.1640 -0.0443  0.2208
12957W        W29141   7.930  11.964  15.239  0.0840 -0.3544 -0.1674
12958W        W29142   4.148  15.270  13.465  0.0698  0.0385 -0.1188
12959W        W29143   3.856  15.972   3.917 -0.0212 -0.2065  0.1330
12960W        W29144  10.091  14.514  12.238  0.0540 -0.0588  0.0547
12961W        W29145   0.124  13.295   3.924 -0.2819  0.2355 -0.3750
12962W        W29146  16.351   7.324   1.869 -0.1613 -0.1739  0.0226
12963W        W29147  16.321   8.090  13.160  0.1267 -0.2703  0.1645
12964W        W29148   6.230  17.092   3.306  0.4926  0.1441  0.5281
12965W        W29149   2.119  14.626   5.275 -0.1897  0.0506 -0.2981
12966W        W29150   7.626  13.866   0.856  0.1132 -0.1783  0.1416
12967W        W29151  18.226   9.223   1.549 -0.0259  0.2235  0.1421
12968W        W29152  16.075  12.745  11.664  0.0775 -0.0079  0.0881
12969W        W29153  15.201  10.742   1.303  0.6626 -0.0119  0.0605
12970W        W29154   0.274  15.832   0.729 -0.0901  0.0549  0.2251
12971W        W29155  11.488  11.481   4.261 -0.2151 -0.1147  0.0172
12972W        W29156  16.780   2.055  14.678  0.1505  0.0717 -0.1428
12973W        W29157   3.997   9.299  12.862  0.0210  0.0783  0.2414
12974W        W29158  12.543  14.361  13.330 -0.0397  0.0915 -0.0641
12975W        W29159   1.047   8.182   1.922  0.0008 -0.0145  0.0898
12976W        W29160  11.353   6.548  14.031 -0.2059  0.1008  0.0048
12977W        W29161  12.589  12.401  10.578 -0.0465 -0.0615 -0.0555
12978W        W29162  15.611  11.138   0.900 -0.2013  0.0317  0.0132
12979W        W29163  14.928  18.901  11.465 -0.1350 -0.4515 -0.1615
12980W        W29164   1.548  10.308  10.919  0.0648  0.0814 -0.1788
12981W        W29165  10.683   3.202   5.523 -0.1172  0.0035  0.0211
12982W        W29166   2.658  15.111   0.647  0.1200  0.2417  0.0250
12983W        W29167  10.671  12.684  10.315 -0.0418  0.1876  0.1044
12984W        W29168   9.055  10.102  13.327  0.1763 -0.0358 -0.0707
12985W        W29169  15.599  14.061   3.382  0.1653  0.2593  0.2827
12986W        W29170   1.435   8.459   1.712 -0.0279 -0.2342 -0.2663
12987W        W29171   3.737   6.450  14.897 -0.2269  0.0478  0.1766
12988W        W29172  11.275   8.931  11.089  0.1442  0.0954  0.0526
12989W        W29173   8.942  14.908  14.755 -0.0211  0.3349  0.0408
12990W        W29174   5.480  10.310   4.121 -0.0421 -0.2751  0.3487
12991W        W29175   2.382   3.574   5.860  0.0138  0.4096 -0.1529
12992W        W29176   0.837  12.102   4.189 -0.1458 -0.1106  0.0099
12993W        W29177  12.412   7.404  13.274  0.1957  0.2220  0.3135
12994W        W29178  10.796  14.747  12.522  0.0668  0.2351 -0.0962
12995W        W29179  17.970  16.098  10.718 -0.0455  0.0011  0.6094
12996W        W29180   8.326   8.455  13.423 -0.0312  0.0655  0.0406
12997W        W29181   3.775  15.459  12.545 -0.1058 -0.0884  0.2495
12998W        W29182   8.335   9.321   1.694 -0.0288  0.0582 -0.1394
12999W        W29183   5.824   7.901  13.370  0.0181 -0.0706  0.4165
13000W        W29184   5.078   9.250  11.540 -0.1345  0.3799 -0.2002
13001W        W29185   9.385  12.664  10.737 -0.1037  0.2002 -0.3172
13002W        W29186  15.392   3.606   4.306  0.2109  0.1277 -0.0848
13003W        W29187  12.250   4.987   4.250  0.1936  0.1520  0.0816
13004W        W29188   0.735   6.203   3.751  0.2702  0.2264 -0.0045
13005W        W29189   8.978   0.505   1.728 -0.1067  0.6330  0.1084
13006W        W29190  18.602   7.457   1.848  0.1985  0.0820  0.0901
13007W        W29191  11.979   6.604   9.975 -0.3339  0.1594 -0.2954
13008W        W29192   0.550   0.781  10.880 -0.0060  0.0732 -0.0778
13009W        W29193  18.341  12.931   4.072  0.0947  0.1148 -0.1076
13010W        W29194   0.161   7.552  13.026  0.1327 -0.2781 -0.0807
13011W        W29195  16.440  12.250   1.312 -0.3619  0.0221  0.1804
13012W        W29196   9.068   7.323  11.371 -0.2917 -0.3956 -0.2343
13013W        W29197   8.246   0.442   1.130 -0.0160 -0.3108  0.3217
13014W        W29198  11.958  14.140   2.877 -0.3169  0.0530  0.0333
13015W        W29199   1.938  11.529  14.047  0.0003 -0.0370 -0.2999
13016W        W29200  13.794  13.488  10.306  0.1510 -0.1854  0.0016
13017W        W29201   6.644  13.312  13.268  0.1871 -0.1912 -0.4332
13018W        W29202  17.647   6.613   1.335  0.0536 -0.1051 -0.0539
13019W        W29203   0.033   7.647   0.003 -0.0352  0.0907 -0.0779
13020W        W29204   0.960  13.418  10.892 -0.1414 -0.2637 -0.0286
13021W        W29205  18.169   6.372   0.223  0.2156 -0.1483  0.1962
13022W        W29206   8.625   8.867   3.253  0.0579  0.1281  0.1080
13023W        W29207  17.690  10.094  10.715 -0.0188  0.1836  0.0295
13024W        W29208  14.006  13.475   3.691  0.4443 -0.1314  0.1768
13025W        W29209  18.926  11.990   1.879  0.0374  0.2323  0.0122
13026W        W29210   9.871   4.718   0.595 -0.0388  0.0109 -0.0989
13027W        W29211   3.948  17.333   3.930  0.0809  0.1084  0.0939
13028W        W29212   3.196   2.306   1.573 -0.1120 -0.1128  0.2371
13029W        W29213  12.069  13.982   4.113 -0.2962 -0.1287 -0.0352
13030W        W29214  16.063   5.274  11.974 -0.5334  0.0636 -0.2357
13031W        W29215   0.555   5.827   4.458 -0.3188  0.0548  0.1687
13032W        W29216   1.253  17.754   3.811  0.0209  0.4128 -0.0808
13033W        W29217   6.925   0.195   2.937 -0.3152  0.0385  0.2295
13034W        W29218  11.200  11.080   4.767  0.1153  0.0744 -0.3162
13035W        W29219   6.838  13.522   1.407  0.3158 -0.0940  0.0804
13036W        W29220  12.228  11.925   4.762 -0.1231  0.1610 -0.0505
13037W        W29221  14.046   0.727  14.065 -0.1574  0.1827  0.2133
13038W        W29222  11.934   6.644  12.079 -0.1067  0.4445  0.2786
13039W        W29223  15.005  17.975   3.653  0.0200 -0.1615  0.0132
13040W        W29224   3.797   4.988   4.238 -0.0103  0.1283 -0.0215
13041W        W29225  17.694   9.754  15.028  0.1422 -0.1482  0.4431
13042W        W29226  15.425   7.899   5.194  0.1288 -0.0626  0.0350
13043W        W29227   3.853  13.025   2.990  0.1395  0.1655 -0.1197
13044W        W29228   2.280  18.504   4.339  0.3455 -0.0544 -0.1446
13045W        W29229  16.991  10.323  11.481  0.0235  0.0297 -0.3702
13046W        W29230  16.885   4.716  14.882  0.0020  0.2665  0.1555
13047W        W29231   6.950  15.405   9.756 -0.2596  0.1159 -0.0820
13048W        W29232   8.922  16.084  10.324  0.0246  0.0724 -0.2924
13049W        W29233  17.086   2.286  12.500 -0.2294 -0.1002  0.0020
13050W        W29234   1.706   7.947   1.376  0.0132 -0.1298 -0.3667
13051W        W29235  16.039   8.812  14.375  0.0292  0.0957 -0.0041
13052W        W29236  17.791   9.843   1.507 -0.2600 -0.3056 -0.0274
13053W        W29237  11.763   3.299   0.768 -0.0076 -0.1755 -0.0816
13054W        W29238  10.891  18.116   1.575  0.0309  0.1134 -0.0428
13055W        W29239   3.081   3.050   5.063  0.3146  0.0644 -0.5701
13056W        W29240   6.964   0.082  12.766 -0.0448  0.0777  0.2009
13057W        W29241   0.607   2.415   4.129  0.3028  0.3667  0.0756
13058W        W29242   2.834  13.155   9.838  0.0475 -0.0255  0.0596
13059W        W29243  17.910  11.098   2.599  0.0363  0.1374 -0.0404
13060W        W29244   3.612  15.874  14.551  0.1014  0.0489  0.0983
13061W        W29245  18.649  11.604  10.963  0.1335  0.1173  0.1398
13062W        W29246   0.197   2.900   3.806  0.1219  0.0078  0.0872
13063W        W29247   9.837   6.110   4.364 -0.2081 -0.1259 -0.0416
13064W        W29248  16.631   4.819   9.669  0.1620  0.0917 -0.0987
13065W        W29249  16.849   3.303  11.672  0.3871  0.1975  0.2139
13066W        W29250  17.398   5.991  14.145 -0.2123  0.2772  0.2670
13067W        W29251   6.417  12.683   3.427  0.0538 -0.0158 -0.2570
13068W        W29252   2.210  10.409   0.373 -0.2551 -0.0391 -0.0419
13069W        W29253  12.994   3.687   4.768  0.2057  0.0289 -0.2924
13070W        W29254   8.668   4.573   3.677  0.1607 -0.1683 -0.3160
13071W        W29255  11.549   4.462  14.668 -0.4147 -0.0668 -0.0288
13072W        W29256   6.957   8.973   0.780  0.0607 -0.0380 -0.1492
13073W        W29257   3.931   1.135  11.670 -0.2594 -0.3131 -0.3494
13074W        W29258  16.861  10.991   1.932  0.1998 -0.1893 -0.2904
13075W        W29259   6.776  11.521  12.878 -0.0324 -0.0540  0.1551
13076W        W29260   0.467  10.683   5.003  0.1022 -0.0217  0.1719
13077W        W29261   7.970   0.098  11.772  0.2435  0.1156 -0.3655
13078W        W29262   4.784  14.744   5.881  0.0216  0.1619 -0.1102
13079W        W29263  18.543  16.047   0.606  0.1178  0.0419  0.0640
13080W        W29264  18.365  17.585   1.829  0.0544  0.1081  0.2217
13081W        W29265  10.373   6.191   3.566  0.0816  0.2230  0.2782
13082W        W29266   3.522  10.204  14.393 -0.1637 -0.5048  0.4533
13083W        W29267  10.732  14.170  13.622 -0.2647 -0.2647  0.1900
13084W        W29268  17.338  13.378  14.224  0.2111  0.1058 -0.3742
13085W        W29269   8.603   7.412   2.893  0.2333  0.1096 -0.0625
13086W        W29270   4.044   6.242  10.812 -0.1947 -0.0997 -0.0841
13087W        W29271  16.286   8.496   3.492 -0.2584 -0.1874 -0.1892
13088W        W29272   2.809   3.685   3.131 -0.0591  0.0941  0.3244
13089W        W29273   6.179  15.968   1.156 -0.2860 -0.2944 -0.1662
13090W        W29274  10.312   4.174   1.479  0.2217 -0.0763  0.0342
13091W        W29275  18.054   8.797  11.778 -0.0928  0.0156  0.0083
13092W        W29276  16.361  11.454  14.654  0.1342 -0.2712  0.0717
13093W        W29277   7.671  18.290  14.799  0.3535  0.0883 -0.1728
13094W        W29278  17.348   9.380   3.650 -0.0967  0.1720  0.2204
13095W        W29279  15.710   5.929   5.154  0.1679 -0.2657 -0.1888
13096W        W29280  10.764  17.405  14.406 -0.1279  0.0192  0.0852
13097W        W29281  14.674  12.914   5.200  0.0160  0.1004  0.0933
13098W        W29282  11.594   5.841   2.429  0.0372 -0.1319  0.1869
13099W        W29283  18.603  17.097   0.325 -0.0766  0.1506 -0.1470
13100W        W29284  11.962  13.643  13.480 -0.1363  0.1095 -0.1408
13101W        W29285  12.618  12.622   3.488 -0.1248 -0.4134 -0.1070
13102W        W29286  16.682   0.626   2.287  0.0369 -0.1164 -0.1913
13103W        W29287   7.033   3.636   2.297 -0.1966 -0.1255 -0.1465
13104W        W29288   9.997   4.600  11.029  0.1610 -0.2716 -0.4845
13105W        W29289  15.249  17.896   2.058  0.0587 -0.4733  0.2233
13106W        W29290   3.385  14.038   4.553  0.2859 -0.1319  0.1510
13107W        W29291   9.953   0.354   3.158  0.0720 -0.0025  0.1028
13108W        W29292   0.884   0.395  14.044  0.4463  0.0264  0.0197
13109W        W29293   6.667   4.353  14.693  0.5426  0.0586 -0.2368
13110W        W29294  10.633   6.435   0.920  0.1661 -0.2751  0.2433
13111W        W29295   9.048  14.004   1.114  0.1256  0.3328 -0.0040
13112W        W29296  10.351   2.184  11.509  0.0145 -0.1211  0.0652
13113W        W29297  10.368   6.921   5.795  0.0335  0.0812 -0.1423
13114W        W29298  18.133  14.613   4.850  0.0381 -0.3706  0.2570
13115W        W29299  14.472  15.097  11.184  0.0173 -0.0215 -0.0734
13116W        W29300   5.516   6.837  11.142  0.3281  0.1786 -0.0874
13117W        W29301  14.665  15.684  12.483 -0.1789  0.0248 -0.0782
13118W        W29302  10.326   5.428   4.671 -0.2663  0.0363 -0.2000
13119W        W29303   2.074   2.095   3.159  0.0234 -0.0050  0.1146
13120W        W29304  10.753  11.242  14.385 -0.0127 -0.0463  0.1085
13121W        W29305   4.554   4.659   0.723 -0.0687 -0.2874  0.0684
13122W        W29306   3.816   4.704  12.341 -0.4329  0.3469  0.2480
13123W        W29307  16.259  12.929   0.408  0.0327 -0.0551 -0.0259
13124W        W29308   3.840  11.700  12.447 -0.0976 -0.2783 -0.0543
13125W        W29309  12.787  18.645  14.730  0.2623 -0.1213 -0.1184
13126W        W29310  10.231   9.552  10.995 -0.0448 -0.2575  0.0246
13127W        W29311  15.488   8.329  13.892  0.0203  0.0418 -0.0757
13128W        W29312   0.956   1.543  11.164 -0.1439 -0.0579  0.2880
13129W        W29313   2.070  10.779  10.681 -0.0823  0.1652 -0.4127
13130W        W29314  15.591   3.550   3.146 -0.0679 -0.0532  0.1073
13131W        W29315   5.517   0.412   4.236  0.0775  0.0246 -0.2163
13132W        W29316   4.147  11.144  11.307  0.1617 -0.1990 -0.0657
13133W        W29317   4.561   7.722  12.760 -0.1061  0.1514 -0.0888
13134W        W29318   6.467   9.058  11.353 -0.0710 -0.1167 -0.0504
13135W        W29319  10.914  10.136  12.267  0.4288 -0.0040  0.3608
13136W        W29320  16.880  13.748   3.718  0.1670  0.1473 -0.1001
13137W        W29321  15.992   2.147   0.739  0.1578 -0.1149 -0.0746
13138W        W29322   5.498  18.277  15.096 -0.2195  0.2433  0.0512
13139W        W29323   6.825  15.346  13.261  0.1507  0.2244  0.1874
13140W        W29324   2.586  16.528  13.297  0.3076  0.0462  0.0549
13141W        W29325   8.032  16.982   3.964 -0.2182 -0.0808 -0.2936
13142W        W29326   3.953  10.405   1.073 -0.4441  0.1684  0.1635
13143W        W29327  12.487  13.434  12.357  0.0499  0.2903 -0.0098
13144W        W29328   6.629  15.547   2.249 -0.1958  0.1855  0.1080
13145W        W29329  15.287  13.837  14.790  0.1582  0.1478  0.0103
13146W        W29330   2.566   2.114   5.131  0.0492 -0.3085 -0.0701
13147W        W29331  16.509  10.661   1.674  0.0083  0.2302 -0.0341
13148W        W29332  16.770   5.279   2.734  0.0653 -0.1632  0.0943
13149W        W29333  10.634   4.792   4.011 -0.1469  0.2394  0.2924
13150W        W29334   3.008  14.386  14.593 -0.2416  0.2010 -0.3519
13151W        W29335   7.736   0.647  15.128 -0.1121 -0.1334 -0.3046
13152W        W29336   3.369  10.116  14.900 -0.1081  0.4026  0.0186
13153W        W29337  13.353   4.762  15.165 -0.4742  0.1503 -0.0662
13154W        W29338   0.192   9.963  11.219 -0.0606  0.4445 -0.0244
13155W        W29339  10.268   9.265  11.457 -0.2940 -0.1702 -0.1622
13156W        W29340  15.514  15.667  10.904 -0.1446 -0.2016 -0.3025
13157W        W29341   1.868   9.934   4.187  0.1233  0.0492  0.0006
13158W        W29342  10.897   6.823   0.112  0.2006 -0.1076  0.0622
13159W        W29343  18.360   5.112  13.870  0.2231  0.0720 -0.2741
13160W        W29344   2.078   8.574  10.883  0.0090 -0.0483  0.0231
13161W        W29345  11.423  16.531  12.119  0.2160 -0.2277  0.2110
13162W        W29346  14.870  10.490   2.105 -0.4268 -0.4891 -0.0683
13163W        W29347  13.873   6.059   0.345  0.1363  0.1876  0.1666
13164W        W29348   6.417  16.009  12.545 -0.1746  0.5422  0.3427
13165W        W29349   7.642  17.491   0.454 -0.1146 -0.0509  0.2118
13166W        W29350   5.877   7.800   2.721 -0.0864 -0.2991 -0.1877
13167W        W29351   1.661  13.132   0.563 -0.0182  0.0153  0.0037
13168W        W29352  16.732  16.807  12.762 -0.1987  0.1285  0.1779
13169W        W29353   6.136  10.013  11.537 -0.1512  0.0507 -0.2225
13170W        W29354   5.647  16.596   0.484  0.0025  0.2387  0.1225
13171W        W29355   1.707   5.437  14.574 -0.0743  0.0033  0.1627
13172W        W29356   8.368   9.231  12.376 -0.0241  0.2576  0.2776
13173W        W29357   2.528  15.037  11.578  0.1763 -0.1436  0.0860
13174W        W29358  17.611  18.423   1.125  0.2565  0.1644  0.2236
13175W        W29359   0.133   5.369   0.233  0.2822 -0.1741  0.3547
13176W        W29360  16.796   2.057   5.118  0.0986 -0.1875 -0.0049
13177W        W29361  17.094  12.147  15.046  0.2968 -0.1636  0.2132
13178W        W29362  18.430   3.113  14.216 -0.1227  0.0847  0.1084
13179W        W29363  15.613   3.803   1.699  0.2621 -0.0462 -0.0042
13180W        W29364   6.023  11.525   2.525  0.0688 -0.3053  0.2891
13181W        W29365   2.336  15.339  14.027  0.3050 -0.1272 -0.0308
13182W        W29366  11.795   1.561   4.430  0.0425 -0.1030  0.0664
13183W        W29367   4.911  15.832  10.753  0.2300 -0.0083 -0.4250
13184W        W29368   2.611  17.182  15.176 -0.0581  0.0243 -0.0660
13185W        W29369   2.238   9.887   3.858  0.2825  0.0088  0.2330
13186W        W29370  14.252  18.613   0.415 -0.2065 -0.1228  0.1881
13187W        W29371   3.003   1.010  15.185  0.1155 -0.0973 -0.0076
13188W        W29372   7.926   8.259  13.808  0.4116  0.2386 -0.3658
13189W        W29373  10.795  17.778  11.573  0.0315  0.0152 -0.0208
13190W        W29374  15.778   2.155  15.296 -0.2483  0.2778  0.3716
13191W        W29375   8.545  11.357  15.200 -0.1481 -0.4741  0.2778
13192W        W29376   7.093   0.577  14.528  0.0027 -0.0867 -0.0030
13193W        W29377   0.036   5.705  12.308 -0.1460 -0.0264  0.2831
13194W        W29378  18.293  17.929  14.865  0.0347  0.1021 -0.3863
13195W        W29379   7.479  11.815  13.148  0.0867 -0.1757 -0.0923
13196W        W29380   3.782  16.987   2.138  0.0206  0.1195  0.0123
13197W        W29381  15.404  12.980  12.904  0.1822 -0.0640 -0.1756
13198W        W29382  13.239   8.325   0.655 -0.1860  0.0182  0.3928
13199W        W29383   8.614   2.208   2.118  0.0961 -0.0373  0.1291
13200W        W29384  15.221  11.879   4.642 -0.3297 -0.2919 -0.1291
13201W        W29385  16.470   3.583   4.396 -0.0848  0.2888  0.1837
13202W        W29386   6.753   3.367   1.794 -0.3085 -0.2808  0.0416
13203W        W29387   0.792   2.473   0.772 -0.0150 -0.0512  0.2839
13204W        W29388  12.850   5.932   2.585 -0.1585 -0.1662  0.2875
13205W        W29389  11.127  11.812   4.223 -0.1972  0.2650 -0.0263
13206W        W29390  12.803   5.076   4.316  0.2473  0.2233 -0.1998
13207W        W29391   3.746   9.516  11.333 -0.1482 -0.1258 -0.0416
13208W        W29392   0.915   8.010  12.552  0.3944 -0.2035  0.3648
13209W        W29393  17.723  11.514   3.691 -0.1778 -0.0584  0.1466
13210W        W29394   6.121   5.333  12.249 -0.1457  0.2606  0.2367
13211W        W29395  11.644   3.133  13.839  0.0106 -0.1030 -0.0261
13212W        W29396   8.995  14.956   1.794  0.1613  0.0999 -0.2033
13213W        W29397   0.133   7.617   2.571  0.0309  0.3205  0.1019
13214W        W29398  13.445  17.401  13.711 -0.1535  0.2830 -0.0202
13215W        W29399  12.265  17.706   2.429 -0.0912 -0.2664 -0.2402
13216W        W29400  11.240   2.127   3.297  0.2423  0.0061  0.0939
13217W        W29401   0.372   2.742   5.035 -0.1391 -0.5348  0.2931
13218W        W29402  14.220   4.657  12.850 -0.3802  0.3320  0.0697
13219W        W29403  18.720   8.717   3.440 -0.0618 -0.0604 -0.0099
13220W        W29404  16.274   5.529  14.110 -0.0432  0.3887 -0.0245
13221W        W29405   1.957   2.059   1.295  0.2755  0.0878 -0.1494
13222W        W29406   9.509  10.782  11.651 -0.1537 -0.0821 -0.1790
13223W        W29407   3.110  12.589   3.219 -0.1898  0.0713 -0.0065
13224W        W29408   9.163  13.115   5.482 -0.1305 -0.0148 -0.0561
13225W        W29409   9.872  12.858   5.610 -0.1965  0.4877 -0.0033
13226W        W29410  18.525  18.096   1.429  0.1391 -0.0297 -0.0636
13227W        W29411   5.643   9.920  11.410  0.0325  0.0136 -0.1456
13228W        W29412  18.024   2.763  11.480  0.1195 -0.3004  0.0103
13229W        W29413   1.671  17.782  14.263 -0.0042 -0.1067 -0.1267
13230W        W29414  15.555  17.251   1.355  0.2539  0.0047 -0.1760
13231W        W29415   6.332   5.304   0.409  0.0280 -0.2969  0.0293
13232W        W29416  14.530   7.664  11.732 -0.0124 -0.1758 -0.0176
13233W        W29417  16.902   3.857  12.729  0.1101 -0.1982  0.0440
13234W        W29418   1.092  17.569   4.263 -0.1659 -0.0521 -0.1380
13235W        W29419  12.361   6.353  15.173 -0.3364  0.2095  0.1830
13236W        W29420  16.396  17.190  12.851 -0.1490 -0.3917  0.0452
13237W        W29421  16.067   6.341   1.917  0.0505 -0.0641 -0.1010
13238W        W29422   5.892   4.975  11.580  0.0255 -0.1091 -0.1196
13239W        W29423  13.101  17.740   3.773  0.3170 -0.3276 -0.2281
13240W        W29424  16.499  18.154   0.970 -0.3158 -0.0156  0.3887
13241W        W29425   2.540  16.230  15.276  0.2227  0.0026 -0.5142
13242W        W29426  12.838   0.441   2.386 -0.1477  0.0796  0.0088
13243W        W29427  10.314   9.225   3.071  0.0326  0.1949 -0.0755
13244W        W29428   2.925  16.720  15.055  0.3114 -0.0172  0.2072
13245W        W29429   3.469  18.945   3.818 -0.2386  0.2766 -0.2117
13246W        W29430  18.408   4.542  12.531  0.1669  0.1714 -0.3799
13247W        W29431   4.436  12.166   0.800  0.1691 -0.2061  0.0180
13248W        W29432  15.961  14.428   2.723  0.1407 -0.0098 -0.3482
13249W        W29433   3.904   1.939   5.050  0.0267  0.0313 -0.0076
13250W        W29434  12.625  12.185   5.045  0.1045  0.1718 -0.1151
13251W        W29435  16.892   9.608  11.071 -0.0174 -0.0764  0.1338
13252W        W29436   5.848  10.748  15.337 -0.3182  0.2347 -0.2049
13253W        W29437  17.182  18.038   1.830  0.2846  0.2213  0.0002
13254W        W29438   3.268  13.922  15.040 -0.0234 -0.0188  0.0165
13255W        W29439   8.700   1.532  13.913  0.1340  0.0946  0.0531
13256W        W29440  11.787   0.579   0.615 -0.0378  0.0416  0.0670
13257W        W29441   2.061  15.578   3.632  0.0743  0.1582  0.1579
13258W        W29442   6.509   7.367   3.401 -0.2388  0.1001  0.3108
13259W        W29443   1.557  16.898   1.863  0.0776  0.3732 -0.2570
13260W        W29444  18.916   0.469  12.953  0.5011 -0.2247 -0.1077
13261W        W29445   1.376  14.575  12.801  0.2447 -0.4191  0.1570
13262W        W29446   2.737  15.698  12.886 -0.1294  0.3658  0.0894
13263W        W29447   1.311   7.054  13.494 -0.0779  0.2538 -0.1883
13264W        W29448  12.872   4.967  12.576  0.0222  0.1211  0.0410
13265W        W29449  11.349  13.550  10.819  0.1455 -0.1050  0.0216
13266W        W29450   9.119   7.987  11.831  0.1476 -0.3840 -0.0250
13267W        W29451   4.064   9.282  11.059  0.0238  0.0050  0.5293
13268W        W29452   7.756   4.329   0.827 -0.1071  0.0346  0.0525
13269W        W29453   4.866   6.618  12.322 -0.0162  0.0654 -0.1294
13270W        W29454  11.362  16.018   5.194 -0.0169  0.0739 -0.0989
13271W        W29455  13.768   1.126   2.880  0.0649 -0.1533 -0.3190
13272W        W29456   1.408   9.793  10.726 -0.0930  0.0059  0.3444
13273W        W29457  10.465   3.970  13.043  0.0390 -0.1247 -0.0438
13274W        W29458   4.641   1.267  12.809 -0.0710 -0.3323 -0.0245
13275W        W29459  13.217  10.154  14.318 -0.0348 -0.0854  0.1153
13276W        W29460   6.143   9.721   3.940 -0.0241 -0.2043 -0.1667
13277W        W29461   3.541  17.059  13.207  0.2542 -0.0472 -0.1483
13278W        W29462  14.107  14.625   1.955 -0.0394 -0.1944  0.0923
13279W        W29463  12.405  18.997   1.864  0.0873  0.1367  0.0226
13280W        W29464   8.747   2.363   4.596 -0.0260 -0.3257 -0.2008
13281W        W29465   6.993   5.886   1.932  0.1976  0.3523  0.0772
13282W        W29466  15.346  12.268  14.439 -0.2789  0.0929 -0.0582
13283W        W29467  11.960   1.883  11.417  0.1073  0.0028 -0.3568
13284W        W29468   7.683   9.164   4.031  0.0200 -0.4833  0.6108
13285W        W29469   8.242   7.598   4.168  0.0624  0.2074  0.0792
13286W        W29470   9.405  13.046   1.012  0.1920  0.4174 -0.1939
13287W        W29471   4.152  12.012   3.791 -0.3371  0.1797 -0.2241
13288W        W29472  16.435   4.099   3.491 -0.2223  0.1161 -0.1415
13289W        W29473   7.011   0.849  11.677  0.0379 -0.0062 -0.1795
13290W        W29474   5.046  15.315  11.748 -0.2706 -0.1154 -0.0274
13291W        W29475  13.981  13.838   4.644  0.0411  0.4846 -0.2207
13292W        W29476   3.278  10.165   4.415  0.3886 -0.1122  0.0037
13293W        W29477   1.209   8.156   4.527 -0.4509 -0.1594  0.0401
13294W        W29478   8.456  15.217   3.618  0.3637  0.0308 -0.0149
13295W        W29479   5.865  17.104  13.017  0.1081 -0.1210 -0.4399
13296W        W29480   1.695  15.629  15.094  0.2151 -0.4180 -0.1324
13297W        W29481  16.528   8.376   4.426  0.2844 -0.0596  0.0597
13298W        W29482   4.661  10.634   5.168 -0.1015 -0.1103 -0.1062
13299W        W29483   1.290  11.267  11.944  0.1970  0.1835 -0.0385
13300W        W29484   9.620   3.642   3.068 -0.0538  0.0945 -0.0180
13301W        W29485   3.208   6.497   3.441 -0.2616 -0.0318  0.0833
13302W        W29486  14.833   4.217   5.040 -0.1243 -0.1145 -0.1116
13303W        W29487  14.434   1.996  14.967 -0.1432 -0.1187 -0.3378
13304W        W29488   0.042  13.378  12.116 -0.0616  0.2302 -0.0959
13305W        W29489   8.750  12.037  14.439  0.0540  0.2667  0.0256
13306W        W29490  10.092  14.098  10.560  0.1919 -0.0343 -0.3232
13307W        W29491   1.502   8.716   0.639 -0.3450 -0.3237 -0.1386
13308W        W29492  15.859   0.834  11.366 -0.1715 -0.1032 -0.0831
13309W        W29493   4.608  17.280   1.073 -0.2198  0.1056 -0.0386
13310W        W29494   4.017   5.956  10.371  0.2789  0.0085 -0.0625
13311W        W29495  18.520  11.239   9.924 -0.0043 -0.0584 -0.0760
13312W        W29496   2.615   3.791  13.076 -0.1846 -0.0155 -0.0351
13313W        W29497   7.016  11.197  10.916 -0.0954  0.2746  0.0194
13314W        W29498  11.945   0.031  11.260  0.1212  0.0680  0.0251
13315W        W29499  13.644   6.427   1.091  0.1273 -0.0708 -0.1003
13316W        W29500   9.816  17.329  12.797  0.0509  0.0350 -0.1214
13317W        W29501   6.610  18.554  13.951 -0.0940 -0.1571  0.3237
13318W        W29502  15.694   0.804   1.290  0.0292  0.0583 -0.4671
13319W        W29503   1.594  15.416   2.858  0.2123  0.0094 -0.0594
13320W        W29504   8.139   3.262   4.555  0.0712  0.3018 -0.0174
13321W        W29505   6.135  14.055  10.757  0.2971 -0.0913  0.0809
13322W        W29506  13.782  10.711  11.915 -0.1495  0.1627  0.0204
13323W        W29507   9.905   2.870   3.026  0.2836 -0.0138  0.0436
13324W        W29508   6.777  17.138   9.749  0.1460  0.0964  0.2057
13325W        W29509  16.752   5.525  11.977 -0.0751  0.2500  0.0610
13326W        W29510   8.021   8.538  10.880 -0.1695 -0.2495  0.0674
13327W        W29511   4.232  11.283   2.303 -0.0114 -0.0163  0.3627
13328W        W29512  16.011   5.192   0.470 -0.0739 -0.0998 -0.3259
13329W        W29513   5.813  14.391  13.597 -0.1295  0.0085 -0.1684
13330W        W29514  12.876  12.501  12.254  0.0443 -0.0706 -0.0670
13331W        W29515  13.690   3.036   3.542 -0.1215  0.0724 -0.3544
13332W        W29516  17.567  13.427   4.176 -0.0974  0.1141 -0.1177
13333W        W29517   8.626   0.668   0.227 -0.2470 -0.1884  0.0540
13334W        W29518   6.653   0.815   3.919 -0.0885 -0.2488  0.2772
13335W        W29519  11.775   0.012   3.071 -0.1527  0.2007 -0.3294
13336W        W29520  13.202  14.584   0.460 -0.1748  0.2043 -0.0332
13337W        W29521  15.319   6.761   3.011  0.1093 -0.0137  0.2358
13338W        W29522   1.995  14.339  10.659  0.0774  0.0862  0.0975
13339W        W29523   8.847   9.607   3.287 -0.0181  0.2428 -0.0028
13340W        W29524   8.298  15.318  14.910  0.1656 -0.1513 -0.2131
13341W        W29525  18.599  17.467   0.641 -0.1685 -0.0809 -0.1801
13342W        W29526   0.515  17.667   3.218 -0.2011  0.1728  0.3057
13343W        W29527  16.438   5.372  14.950 -0.0354 -0.0253  0.0296
13344W        W29528  10.926  13.555  14.288  0.5389 -0.0420  0.1085
13345W        W29529   4.043   5.524   4.270 -0.1592 -0.0886  0.0145
13346W        W29530   0.558  18.115   1.846 -0.0392  0.1107 -0.1758
13347W        W29531  18.640  17.964   5.569 -0.4348 -0.0505 -0.1179
13348W        W29532   2.534   4.642  15.010 -0.0256  0.0470  0.3708
13349W        W29533   8.232   7.875  13.552  0.2106  0.0649  0.0528
13350W        W29534  12.836   8.031  13.258  0.0693 -0.1531 -0.0559
13351W        W29535   5.571   1.338  14.510 -0.1884 -0.0636 -0.0822
13352W        W29536   4.895  15.951   9.219 -0.2810  0.1070  0.0427
13353W        W29537  17.440   5.922  13.065  0.1311  0.0070  0.2963
13354W        W29538   3.564  13.970   2.848 -0.0271 -0.2529 -0.4448
13355W        W29539  18.282   8.310  10.516  0.0265  0.2145  0.0276
13356W        W29540  18.288   0.080   3.281  0.0888 -0.1973 -0.0524
13357W        W29541  13.936   1.155  13.896 -0.1632 -0.0719 -0.2383
13358W        W29542   1.844   0.565  10.580  0.1332  0.2246 -0.0073
13359W        W29543   8.258  14.890   5.377 -0.0125 -0.1328  0.0937
13360W        W29544  10.409  18.113  15.353  0.2566 -0.1408 -0.1136
13361W        W29545  13.210  16.516   1.233 -0.3738 -0.1747 -0.0345
13362W        W29546   1.611   9.821   1.624 -0.1005 -0.0752  0.0233
13363W        W29547   5.196  12.794   1.247  0.0046  0.0239  0.0056
13364W        W29548  15.619   6.620  14.121 -0.0981  0.1836  0.2752
13365W        W29549   9.502   3.900   4.344  0.0225  0.2297 -0.0621
13366W        W29550   1.539   2.769   4.148 -0.1505  0.0681 -0.2787
13367W        W29551   9.612  12.754   3.720  0.0436  0.2135  0.0992
13368W        W29552  17.255  18.154  10.974  0.1276 -0.1538 -0.0488
13369W        W29553   3.704  10.281  11.269 -0.0129  0.1567  0.2126
13370W        W29554   8.885   7.303   1.027  0.1893 -0.0653 -0.0322
13371W        W29555  17.263  12.887   2.897  0.0630  0.3004 -0.2270
13372W        W29556   9.268   4.764  12.604 -0.1108  0.0264  0.0229
13373W        W29557   4.588  14.450   4.603 -0.0228 -0.3300 -0.0403
13374W        W29558   9.863  12.640   5.026 -0.3644 -0.1141 -0.0862
13375W        W29559   1.869   2.577   0.135  0.0651 -0.1644 -0.0154
13376W        W29560  14.898  10.132  15.074  0.0862  0.3993 -0.0366
13377W        W29561   2.429  10.915  14.989 -0.1337  0.2258  0.2680
13378W        W29562   6.126   2.795   2.268  0.1665  0.0983 -0.5026
13379W        W29563  18.055  11.649   3.308  0.2100  0.0083 -0.2940
13380W        W29564   0.514  11.051   2.713  0.3989 -0.0754  0.0049
13381W        W29565   1.933   8.247   3.846 -0.0555  0.2607 -0.0899
13382W        W29566  17.717   3.837  12.398 -0.0003  0.0963  0.0091
13383W        W29567  11.626   5.878  10.397 -0.2009  0.1177 -0.0895
13384W        W29568  17.956   6.500  11.557  0.2657  0.0823 -0.0393
13385W        W29569   7.920  18.707  14.977  0.3286  0.0047 -0.0240
13386W        W29570   9.916  18.975  10.733 -0.1826 -0.1643 -0.2629
13387W        W29571   6.184  11.915   1.493 -0.1023 -0.2142  0.2352
13388W        W29572   7.265   4.300  15.365 -0.0377  0.0789 -0.0771
13389W        W29573  17.695   5.757  12.624 -0.1604 -0.1067  0.2352
13390W        W29574   7.473   6.549   9.443 -0.0414 -0.0420 -0.1437
13391W        W29575   8.414   4.915   1.990 -0.2371 -0.2788 -0.0492
13392W        W29576  14.311   4.890  15.085 -0.1195 -0.0358 -0.3379
13393W        W29577  14.930   0.590   2.679 -0.6099 -0.0484  0.0322
13394W        W29578   9.285   3.208  11.721  0.0343  0.1164  0.0167
13395W        W29579  16.154  12.953  13.868  0.0016  0.1452  0.1561
13396W        W29580   7.352   2.634   3.682 -0.1830 -0.0286  0.0217
13397W        W29581   5.585   6.159  13.772  0.1939  0.2873 -0.0200
13398W        W29582  15.277  13.988   0.889  0.4194 -0.3070 -0.2101
13399W        W29583   6.879   8.735   4.466 -0.1420 -0.2627  0.0057
13400W        W29584   3.091   4.150   0.129  0.4099  0.1204 -0.1537
13401W        W29585  16.912  13.708  12.643  0.1244 -0.3055 -0.2192
13402W        W29586  16.148  17.517   2.183  0.0700  0.1110  0.1045
13403W        W29587  12.362   0.868   4.851  0.3883 -0.2620 -0.2329
13404W        W29588   4.696  10.141  13.082  0.3806  0.0530  0.1148
13405W        W29589  11.167   4.591   1.132  0.1349 -0.1172  0.1227
13406W        W29590  17.505   7.040   1.738 -0.2123 -0.0974  0.3728
13407W        W29591   8.966   5.214   1.408  0.1539  0.0183  0.0150
13408W        W29592   8.835   5.716   3.060 -0.1485 -0.0109 -0.0856
13409W        W29593   4.384   9.448   3.247 -0.1586  0.0358  0.0215
13410W        W29594   6.854  16.809   0.650  0.0205  0.0181 -0.1587
13411W        W29595   4.364   4.896  13.147 -0.2298 -0.2338 -0.1640
13412W        W29596   1.697   8.786   2.064 -0.2465  0.3079 -0.0498
13413W        W29597   5.592   0.667   5.107  0.3005 -0.0105  0.0063
13414W        W29598   0.462   7.681   5.606 -0.1580 -0.0445 -0.1163
13415W        W29599  10.970  13.278   9.937 -0.0789  0.5403  0.3270
13416W        W29600  11.256   4.106  13.575  0.1824  0.0123 -0.0148
13417W        W29601   9.563   2.948   2.563  0.1120 -0.0916 -0.0418
13418W        W29602  10.629   7.884   3.832 -0.0009 -0.2413  0.3077
13419W        W29603   5.424   7.198   0.960  0.1107 -0.2176  0.1344
13420W        W29604  11.013  18.934   1.115  0.0106  0.0116 -0.0750
13421W        W29605  11.140   9.612  13.916  0.2646  0.0570 -0.3313
13422W        W29606   0.105   3.704   1.186 -0.2798  0.0346  0.1229
13423W        W29607   5.286   8.639  15.262  0.2738 -0.0379 -0.3408
13424W        W29608  15.204  11.723  12.295  0.0633 -0.1549  0.0798
13425W        W29609  13.847  14.045   2.399 -0.2992  0.4617  0.0123
13426W        W29610   8.950  17.249   3.240 -0.0437 -0.2656 -0.3507
13427W        W29611  15.190  10.522   4.502 -0.1942 -0.0252  0.1224
13428W        W29612   9.864   0.397  11.246  0.2831 -0.1142 -0.0173
13429W        W29613   6.541  17.427   2.423  0.0637 -0.2648 -0.0664
13430W        W29614  18.841  12.034   2.658  0.1894  0.2225  0.2160
13431W        W29615   0.901   6.730   1.888  0.3045  0.0618 -0.1194
13432W        W29616  14.738   2.811  13.942  0.0665  0.0207 -0.3438
13433W        W29617  18.625  10.283  10.742  0.1838 -0.2208  0.0154
13434W        W29618   9.697  14.263  10.820  0.2235  0.0931 -0.1479
13435W        W29619   2.050   0.349   0.538  0.1566 -0.3009 -0.0797
13436W        W29620  10.044  13.561  10.527 -0.3649 -0.3111  0.0967
13437W        W29621   9.730   0.260   5.001 -0.1948 -0.0920 -0.0816
13438W        W29622   7.356  14.653  11.172  0.2897  0.3564  0.0903
13439W        W29623  18.170   8.944   3.298 -0.3406  0.3763  0.0581
13440W        W29624   8.715   4.293  14.030  0.1286 -0.1222  0.3073
13441W        W29625   4.551  15.717  14.916  0.0526  0.1250  0.1829
13442W        W29626   8.657   0.796  12.183 -0.2689  0.4805  0.1796
13443W        W29627  11.996   1.487   0.326 -0.1689  0.0850 -0.1318
13444W        W29628  15.576  13.547  11.361 -0.1346 -0.0476  0.0040
13445W        W29629  10.704  12.420  11.636  0.1212  0.0184  0.2498
13446W        W29630  16.664   5.644   5.133 -0.0160 -0.0655  0.3393
13447W        W29631  12.870   9.582   2.379  0.0476 -0.0304 -0.0590
13448W        W29632   7.664   1.120   3.463 -0.2378 -0.0098  0.0995
13449W        W29633  11.601  15.742  14.617 -0.1307  0.1613  0.3027
13450W        W29634   6.902  16.349  15.041  0.2353 -0.2619  0.0149
13451W        W29635  15.259   3.650   2.317  0.1627 -0.1584  0.1796
13452W        W29636   6.863   2.375  12.969 -0.1580 -0.0701  0.2899
13453W        W29637  18.795   5.964   2.027 -0.1690 -0.1569 -0.1410
13454W        W29638  17.884   2.231  13.660 -0.3734 -0.3014  0.0524
13455W        W29639   2.122  14.984  11.947 -0.2849 -0.2417  0.4230
13456W        W29640   2.575   8.406  12.835  0.3994 -0.2222  0.0854
13457W        W29641   3.993  10.467  12.120  0.0894  0.3458  0.0633
13458W        W29642   9.211   1.202   0.884  0.0820 -0.2483 -0.1539
13459W        W29643   7.366  15.670  10.993  0.3075  0.3311  0.0954
13460W        W29644   1.218   9.348   3.056 -0.2442 -0.0305  0.0718
13461W        W29645  14.347   4.652   3.967 -0.1258  0.0548 -0.2214
13462W        W29646  15.914  12.724   0.702 -0.1902  0.2742 -0.0320
13463W        W29647   1.493   8.049   4.158  0.2213 -0.0082  0.1003
13464W        W29648  12.398   3.064  10.225  0.3042  0.0408 -0.1677
13465W        W29649  12.656  11.273   2.863 -0.0424 -0.1137 -0.0042
13466W        W29650   5.376  15.049  13.109  0.0885 -0.0148 -0.0201
13467W        W29651  11.201  12.131  12.860  0.3193  0.2313 -0.1514
13468W        W29652   5.577   6.547   4.195 -0.0957  0.1609  0.1637
13469W        W29653  12.212  13.490  10.252  0.0389 -0.2112  0.0089
13470W        W29654  15.373  11.982  11.323  0.3888  0.1619  0.0081
13471W        W29655  14.601   5.671  12.031  0.2077  0.0170  0.0475
13472W        W29656   8.065  18.604   2.382  0.1277  0.0972 -0.1374
13473W        W29657  17.369   8.872   2.941  0.2366  0.1430  0.2850
13474W        W29658  15.601  12.592  12.174  0.1007 -0.1216  0.1606
13475W        W29659  12.733   6.885  11.744 -0.4874 -0.3964 -0.2484
13476W        W29660  16.098   1.464   3.630 -0.1071 -0.0379  0.0703
13477W        W29661   7.876  18.204  14.335  0.2469  0.0904  0.1188
13478W        W29662   5.466   6.144   2.921  0.4423  0.1326  0.0215
13479W        W29663  12.688  11.842   1.641  0.0547 -0.0099  0.0947
13480W        W29664   1.770   1.141  10.555 -0.0182  0.0692 -0.0279
13481W        W29665  11.145   9.199   1.563  0.1826 -0.2313 -0.0711
13482W        W29666   9.408   7.327   1.842 -0.0816  0.1511  0.2242
13483W        W29667   8.161  15.961  15.179  0.1059 -0.0729  0.4790
13484W        W29668  12.224   5.452   3.077 -0.0405 -0.0976  0.0011
13485W        W29669   0.831  16.013   3.137  0.0101  0.0632 -0.1712
13486W        W29670   8.867   1.269  12.154 -0.3485 -0.1709  0.0908
13487W        W29671   4.863  13.267   4.452  0.0228  0.2794  0.0440
13488W        W29672  15.836   7.930  13.338  0.1500 -0.0293 -0.1476
13489W        W29673  10.037  14.165   2.782 -0.0292 -0.1872  0.2336
13490W        W29674  14.367   5.515  14.925 -0.0916  0.1207 -0.0814
13491W        W29675  10.405  18.557   0.138  0.1502  0.2615  0.0181
13492W        W29676  16.240  12.041   2.349  0.2040  0.0560  0.1865
13493W        W29677  11.643   7.404  12.949  0.1768  0.1475 -0.2906
13494W        W29678   4.422   7.748   0.795  0.1295 -0.0417  0.0517
13495W        W29679   9.841  12.761  11.874 -0.1786 -0.0412 -0.1373
13496W        W29680   5.236   7.120   5.721 -0.0587  0.1321 -0.2798
13497W        W29681   8.707  11.154  10.967 -0.3382 -0.4966 -0.3271
13498W        W29682   4.762  15.714   4.135 -0.0925 -0.1682 -0.5132
13499W        W29683  17.089   0.134   5.026 -0.1143  0.1302 -0.0920
13500W        W29684   1.950  14.007  14.643 -0.1612 -0.1215 -0.1496
13501W        W29685   8.304   1.474  13.434  0.1009 -0.0748 -0.0868
13502W        W29686   5.631  18.038  12.049 -0.0039 -0.0915  0.4469
13503W        W29687   4.461  13.632  12.908  0.1445 -0.2730  0.2281
13504W        W29688  11.141  14.419   4.618 -0.2143 -0.1954  0.1078
13505W        W29689   7.615   8.835  11.693  0.1626 -0.0240  0.2142
13506W        W29690  15.836  12.086  11.084 -0.5635 -0.2513  0.1539
13507W        W29691  17.565   2.985  12.253  0.0768 -0.1676  0.1883
13508W        W29692   7.017   0.410  14.034 -0.2616 -0.0913  0.1649
13509W        W29693   8.651   2.945   0.815  0.0222 -0.4117  0.1249
13510W        W29694   8.513   7.334   1.368  0.0574 -0.4231  0.3180
13511W        W29695   1.706  11.908   4.457  0.1274 -0.3057 -0.0370
13512W        W29696   8.618  18.412   4.112  0.0514 -0.0389  0.1957
13513W        W29697   6.294   5.458   2.802  0.1150  0.0675  0.0441
13514W        W29698   8.280  16.639   4.267  0.0518 -0.0976  0.3972
13515W        W29699   6.873  12.619  11.218  0.0931  0.2679 -0.0793
13516W        W29700   9.051  16.306   2.528  0.0313  0.0490  0.1101
13517W        W29701   4.921   0.715   3.475  0.0565 -0.0349 -0.1253
13518W        W29702   2.491  14.227  14.664 -0.0324  0.1920  0.2013
13519W        W29703  17.315  11.737  12.527  0.0322 -0.1718 -0.4288
13520W        W29704   9.356   0.479  13.017  0.2011  0.1445  0.2573
13521W        W29705  17.293   2.823   4.283 -0.0897 -0.2522 -0.2302
13522W        W29706   5.394   4.452   2.220  0.1001 -0.0298  0.1626
13523W        W29707  17.476   6.375   2.255  0.3230 -0.1696 -0.1594
13524W        W29708   0.953   8.576  13.365  0.0360  0.1751 -0.2656
13525W        W29709  16.007  11.276   3.029  0.0117  0.1986 -0.2073
13526W        W29710   4.674   6.494   4.201 -0.1672 -0.0750 -0.3876
13527W        W29711   9.638   7.524  11.567  0.1054 -0.3738  0.0819
13528W        W29712   1.690  15.503  11.248 -0.0759  0.3195  0.1145
13529W        W29713  15.559  18.430  11.050 -0.3021  0.1902 -0.1700
13530W        W29714  12.543   9.279   3.519  0.1674 -0.1934 -0.3715
13531W        W29715  18.711  12.431   5.804 -0.1090 -0.1909  0.0496
13532W        W29716  13.102  14.951  12.211 -0.0048 -0.0752 -0.1815
13533W        W29717   0.761   2.920  14.878 -0.0722  0.0145 -0.2061
13534W        W29718  10.561   4.168   0.464 -0.0659 -0.0713 -0.1487
13535W        W29719   5.908   4.006   3.186  0.0516 -0.0601  0.2760
13536W        W29720   5.355   3.244   1.472  0.0393  0.0442  0.1224
13537W        W29721  15.423  10.009   1.615 -0.1289 -0.1372 -0.0406
13538W        W29722  18.412   2.785   3.581 -0.0379  0.2114  0.2257
13539W        W29723  11.067   1.730   4.006 -0.1239  0.2325 -0.2385
13540W        W29724   7.328   8.781  12.483  0.1731  0.0339 -0.2471
13541W        W29725   9.782  11.131  11.940 -0.3434 -0.0377  0.2456
13542W        W29726  11.784   2.958   0.326  0.5735  0.0678  0.1723
13543W        W29727  10.114  17.380   3.045 -0.0806 -0.0841  0.2613
13544W        W29728  18.679  10.958  12.251 -0.0025  0.0465  0.0134
13545W        W29729   9.798   5.040  14.624  0.0185 -0.1648 -0.0896
13546W        W29730   2.131   1.670   2.782 -0.0138  0.0883 -0.0694
13547W        W29731  18.765  18.795  13.889 -0.2257  0.0582  0.2858
13548W        W29732   3.790  13.793  11.252  0.3219 -0.1886 -0.0263
13549W        W29733   9.181   4.167  11.806 -0.1242  0.1543 -0.1523
13550W        W29734   0.335  16.765   2.991  0.2257  0.0181 -0.2247
13551W        W29735  14.329  17.091  11.341  0.0525 -0.1795 -0.2007
13552W        W29736  18.610   8.766   3.002 -0.1234 -0.2205  0.0870
13553W        W29737   2.583  12.166   0.685  0.0424 -0.1003  0.2118
13554W        W29738   8.270   6.763   1.119  0.1178 -0.0249 -0.0746
13555W        W29739   8.766  10.600  14.295 -0.0808 -0.0855  0.0819
13556W        W29740   3.091  17.882  11.120  0.0074 -0.0369  0.1313
13557W        W29741   4.021  17.448   4.901  0.1969 -0.1608  0.3263
13558W        W29742   0.305   4.069   4.966 -0.0895 -0.0478  0.0850
13559W        W29743   8.546  12.028  10.868 -0.0099  0.1757 -0.0021
13560W        W29744   5.127   7.057  13.722  0.0693 -0.1051 -0.2661
13561W        W29745   1.594   8.290   0.932  0.0940 -0.1328 -0.4081
13562W        W29746   9.988   6.542  14.046 -0.2255 -0.0613 -0.0161
13563W        W29747  18.505  12.216   0.191 -0.3212 -0.2651 -0.1451
13564W        W29748  14.228   3.618   0.363  0.1352 -0.0826 -0.0442
13565W        W29749   0.036   9.577  14.591 -0.2640  0.1916  0.2523
13566W        W29750   5.166   8.320   4.416 -0.3763 -0.1217 -0.3007
13567W        W29751  15.663  11.514  12.125 -0.2099  0.1710  0.1970
13568W        W29752   8.506  16.154  12.905  0.2228  0.1660 -0.1218
13569W        W29753   1.095   9.519  12.318 -0.1186 -0.2994 -0.3491
13570W        W29754   4.974   3.964   4.129  0.3021 -0.2949  0.0069
13571W        W29755  15.746  18.877   5.159  0.0036 -0.0459  0.1600
13572W        W29756   8.415   7.407   0.373  0.1270  0.0872  0.0384
13573W        W29757   1.676   1.916   0.920 -0.1348  0.0141 -0.1769
13574W        W29758  13.457   6.630   2.813  0.0303  0.0145 -0.1934
13575W        W29759   7.522  15.586  14.507 -0.0104  0.0214 -0.4223
13576W        W29760   9.588   8.341   4.905  0.1940 -0.0401 -0.1344
13577W        W29761  10.946   2.422   1.627 -0.0625  0.1418  0.3085
13578W        W29762   8.341  17.388   1.738 -0.1535 -0.0135  0.1205
13579W        W29763  10.800   9.719  10.710  0.1479  0.1512  0.1154
13580W        W29764  15.822   8.036  15.295  0.0246 -0.0484 -0.0974
13581W        W29765  12.706  15.713   2.186 -0.0079  0.1687  0.0927
13582W        W29766   5.775  10.962  12.422  0.1622 -0.0314 -0.1471
13583W        W29767   3.859   6.104   5.161  0.2587 -0.5837 -0.0014
13584W        W29768  17.378  10.786   2.684 -0.0150  0.0710  0.1538
13585W        W29769   9.618   9.565   3.979 -0.0402 -0.2390 -0.0994
13586W        W29770  18.150  16.415   2.324 -0.0881 -0.1055 -0.4861
13587W        W29771   1.157  17.136   5.443  0.0322 -0.1418  0.2951
13588W        W29772   0.019   6.142   4.384 -0.0567 -0.0292 -0.1259
13589W        W29773  10.488   7.176   2.637  0.0156  0.2870 -0.1300
13590W        W29774  16.354  15.871  14.833  0.1531 -0.0049  0.1060
13591W        W29775   1.346   3.003   4.943  0.1413 -0.0617  0.0658
13592W        W29776  10.439  14.697  11.059  0.0480  0.0269  0.1207
13593W        W29777  16.569   3.388   4.887  0.2563  0.0723  0.1592
13594W        W29778  14.338  18.342   3.384 -0.3117 -0.2144 -0.0619
13595W        W29779  16.047   6.415   2.987  0.0343  0.0390 -0.2817
13596W        W29780  17.335  16.045  12.401  0.0741 -0.0548 -0.2518
13597W        W29781  11.612   4.067   2.050  0.0093 -0.0278 -0.0892
13598W        W29782  11.711   8.097   1.969  0.3139 -0.1005 -0.0822
13599W        W29783  12.390   9.663   2.595 -0.1485  0.1278  0.0328
13600W        W29784   6.273  17.404   0.086  0.2439 -0.1548 -0.1269
13601W        W29785   9.874  13.910   1.414  0.2838 -0.2458  0.1326
13602W        W29786   7.889  18.103   4.596  0.0477 -0.0405 -0.1444
13603W        W29787   2.660   7.069   3.840 -0.0795 -0.0299  0.3332
13604W        W29788  12.969   0.471  14.589  0.1676  0.0536 -0.3482
13605W        W29789  12.909   4.974   5.629 -0.0049  0.0166  0.0299
13606W        W29790  13.605   5.127   3.698  0.1944 -0.3587  0.2136
13607W        W29791  15.131  10.021  14.109 -0.2464  0.0744  0.0955
13608W        W29792   4.781  13.121  11.791 -0.0693 -0.3223 -0.2652
13609W        W29793  11.798   7.668   1.617 -0.2217  0.1936  0.0303
13610W        W29794   9.138   6.272  13.960  0.2295 -0.0422 -0.1166
13611W        W29795   3.226   5.267  15.050 -0.0836 -0.2674  0.0370
13612W        W29796  11.262   1.430  13.881  0.0390  0.0800 -0.0220
13613W        W29797   6.789  12.045   6.079  0.0329 -0.1459  0.3572
13614W        W29798  14.293  17.750  14.074 -0.0731 -0.1499 -0.2669
13615W        W29799   0.754   0.502   0.010 -0.1929  0.0079 -0.0243
13616W        W29800   3.721   8.214   1.501 -0.3647 -0.0365 -0.1766
13617W        W29801  17.897  13.377  14.391  0.0137 -0.2823  0.3126
13618W        W29802  18.477   7.832  12.699  0.1888  0.0473  0.0165
13619W        W29803   9.604  10.061   1.128 -0.3573 -0.2258 -0.0749
13620W        W29804   2.562   5.366   0.182  0.0590 -0.1873  0.1748
13621W        W29805   5.923   1.273   0.443  0.3384 -0.1510 -0.1495
13622W        W29806  15.578   6.231   4.370  0.1131  0.0582 -0.0441
13623W        W29807  15.821  15.800   5.827  0.0709  0.0791  0.3296
13624W        W29808   8.210   4.050   1.187  0.1680  0.1031 -0.0844
13625W        W29809   7.843  12.129   4.921  0.0994  0.1108  0.0528
13626W        W29810   8.269   9.301   0.682 -0.1833  0.1157 -0.1992
13627W        W29811   5.191  18.422  12.835  0.2816 -0.3661 -0.1724
13628W        W29812  18.894  15.696   0.441 -0.5006  0.0986 -0.1426
13629W        W29813   8.453   5.053   3.724  0.1585 -0.0747  0.2982
13630W        W29814   6.561  15.979  14.565  0.1314 -0.0301  0.0897
13631W        W29815   5.149   7.070  12.166  0.2471  0.1011 -0.1696
13632W        W29816   2.143   6.923   4.307  0.4379 -0.1598 -0.0622
13633W        W29817   1.789   2.235  11.089  0.0515 -0.1931 -0.0670
13634W        W29818  17.220   4.355  15.080 -0.2112 -0.1223  0.2810
13635W        W29819  10.994  14.035  10.646 -0.4235  0.0025  0.0379
13636W        W29820  13.071  11.185   1.111 -0.0736  0.2763  0.0399
13637W        W29821   6.433   3.274   2.127 -0.2449  0.2408  0.0049
13638W        W29822  17.794  14.870   1.658 -0.1175 -0.2445  0.0732
13639W        W29823  13.574   0.390   4.392 -0.0126  0.0408 -0.1321
13640W        W29824   7.365   0.138  13.413  0.2959  0.1086 -0.0538
13641W        W29825  17.431  12.425   2.169  0.1515  0.2723  0.1237
13642W        W29826  18.290   2.268  13.926 -0.0006  0.1090  0.1170
13643W        W29827   7.257   9.237  13.026 -0.1593 -0.0569 -0.0508
13644W        W29828  15.571   5.307  12.837 -0.2504 -0.0238  0.1524
13645W        W29829   6.834  16.996   2.092 -0.2007  0.5323 -0.2170
13646W        W29830  12.468  17.909   0.082  0.0757  0.0177  0.0430
13647W        W29831  16.291  11.064   0.237 -0.2011  0.1151  0.0832
13648W        W29832  16.619  16.190   0.760  0.5800  0.0397 -0.1369
13649W        W29833  14.068   8.552  12.795 -0.1419  0.0479 -0.3079
13650W        W29834   4.300   4.873  10.553  0.0685  0.1332 -0.0790
13651W        W29835  14.261   5.136   4.228  0.0897 -0.0066  0.2505
13652W        W29836   1.145   4.336   5.311  0.1238 -0.3487  0.0880
13653W        W29837   9.415  16.316   3.462  0.2769 -0.1562 -0.3062
13654W        W29838   1.504  13.145   3.876  0.0722  0.1195 -0.0721
13655W        W29839   8.045   6.925   1.687 -0.2015  0.0401 -0.0701
13656W        W29840  17.216   4.245  14.547 -0.1704  0.0269  0.1408
13657W        W29841   3.151   1.272   0.221  0.0516 -0.1690  0.1147
13658W        W29842   6.729  18.404  13.163 -0.1032 -0.2390  0.0388
13659W        W29843   1.021   5.103  10.623  0.1090  0.2359 -0.1475
13660W        W29844  10.272  12.680   4.730 -0.3928  0.1564  0.0242
13661W        W29845   3.122  18.617   4.789 -0.3294  0.0465  0.1004
13662W        W29846  14.945  15.806  13.083  0.1095 -0.0316  0.1003
13663W        W29847  17.727  18.470   5.278 -0.0726  0.0400  0.1012
13664W        W29848  10.639  17.939   2.889  0.2298  0.0153 -0.0803
13665W        W29849  10.986   3.175  12.063 -0.0296 -0.1168  0.0182
13666W        W29850   7.122   3.489  14.387 -0.2027  0.2161  0.0661
13667W        W29851  11.308  18.685  15.056  0.5315  0.2492  0.2619
13668W        W29852   0.565  18.410   4.189 -0.0429  0.0662 -0.1350
13669W        W29853  17.967   2.061   1.810 -0.0214 -0.3679  0.2258
13670W        W29854  10.378  16.720   3.050  0.1026  0.2196 -0.0490
13671W        W29855   0.629   8.899   3.189 -0.1455  0.2006 -0.0230
13672W        W29856  16.506  12.796  14.913  0.0217  0.0808 -0.0469
13673W        W29857  12.585  13.511  14.856 -0.0535  0.3905  0.0120
13674W        W29858  11.686  11.000   1.221 -0.1371 -0.0609  0.0824
13675W        W29859   7.760   5.242   0.975 -0.1045 -0.2376  0.0593
13676W        W29860  17.032  14.247   5.228  0.4221 -0.0773  0.0462
13677W        W29861   5.634  16.300  11.114  0.2079  0.2448 -0.0092
13678W        W29862  15.630   8.072   4.444  0.0362 -0.0661  0.1094
13679W        W29863   2.888   8.925   0.771 -0.1498 -0.0105  0.1031
13680W        W29864  11.202  13.568   3.558  0.0755 -0.0658  0.0955
13681W        W29865  12.331  12.909  14.603  0.1048  0.0688  0.1294
13682W        W29866  18.855   6.481  14.583 -0.1689 -0.2155  0.0902
13683W        W29867   0.151  16.918  13.461 -0.0302 -0.2613  0.0060
13684W        W29868   5.215   2.279  10.731  0.1208 -0.1766  0.4236
13685W        W29869   8.704  10.183   3.550  0.1383 -0.1023 -0.0876
13686W        W29870   6.143  18.755  14.943 -0.0246  0.0700  0.1256
13687W        W29871  10.202  14.402   0.169 -0.2847  0.1742  0.2861
13688W        W29872  11.460   4.555  11.570  0.2350  0.3650 -0.1082
13689W        W29873   8.044   8.058   0.836 -0.0187 -0.2861  0.2049
13690W        W29874  18.294   7.924   4.018 -0.0299  0.2186 -0.3154
13691W        W29875  14.504  16.368   4.402 -0.0929  0.0474  0.3520
13692W        W29876  14.603  16.096   0.302  0.0128  0.1771  0.0781
13693W        W29877   4.209  17.802   4.129 -0.0139  0.2939  0.0392
13694W        W29878   9.539   6.472   4.560  0.0330 -0.1202 -0.2575
13695W        W29879  14.873  16.572  14.454 -0.2446  0.1465 -0.1703
13696W        W29880  15.591  17.662   3.025 -0.0131  0.0945 -0.4032
13697W        W29881   1.244  14.520   1.362 -0.0214 -0.2568 -0.1260
13698W        W29882   2.873  18.923   3.581 -0.3352  0.1310 -0.3888
13699W        W29883  14.461   2.582  14.324 -0.0469  0.2030  0.1225
13700W        W29884  10.673   9.538  14.052 -0.3409 -0.0008 -0.2786
13701W        W29885  15.572   0.264   1.967  0.0931 -0.2415  0.3530
13702W        W29886  15.842   1.854   3.435  0.1724  0.3273  0.2307
13703W        W29887  14.412   6.931  14.833  0.1353  0.0302 -0.2472
13704W        W29888   1.891   5.792   2.852 -0.0485 -0.3429  0.1680
13705W        W29889   9.094   4.645   2.077  0.0285  0.0503  0.0857
13706W        W29890  11.293   9.357   4.122 -0.1860  0.2100  0.2117
13707W        W29891   6.981  18.205   3.169 -0.0850 -0.0664  0.5480
13708W        W29892  16.036   5.151   3.978  0.3092 -0.0228 -0.0200
13709W        W29893  16.256  18.772  11.088  0.5571  0.1822  0.0564
13710W        W29894  15.058   9.226   1.613 -0.1446  0.0362  0.1976
13711W        W29895  13.555   7.572   1.987 -0.0899  0.1382  0.0229
13712W        W29896   6.737  18.190   1.902 -0.0608 -0.2361  0.1136
13713W        W29897   9.597   7.127  15.232 -0.2275  0.3075  0.0014
13714W        W29898   5.826  14.387  13.054 -0.0276  0.1816 -0.2231
13715W        W29899  18.854  12.892  12.155 -0.1212  0.0893  0.0582
13716W        W29900  14.949  10.989   1.974  0.2069 -0.0220 -0.2549
13717W        W29901  11.588   5.554   4.619 -0.1808  0.5737 -0.1848
13718W        W29902  16.178  11.027   3.882 -0.3478 -0.1538  0.0408
13719W        W29903  12.078   8.586  13.528  0.1406  0.0090 -0.0314
13720W        W29904  14.283   2.452  13.238  0.0055  0.1413  0.4008
13721W        W29905   3.109  17.742  12.109  0.1828  0.1435 -0.0202
13722W        W29906   3.592   4.384  13.095  0.0117  0.0036  0.0290
13723W        W29907  13.226   0.416   0.102  0.1441 -0.1049 -0.1679
13724W        W29908  10.296  10.820  11.754  0.3234 -0.1839 -0.1206
13725W        W29909  17.816  14.507   9.731 -0.0923 -0.2130  0.2859
13726W        W29910  10.984  15.913   2.693  0.0746  0.0020 -0.2232
13727W        W29911   3.796   0.297   4.782 -0.3756 -0.1216  0.0254
13728W        W29912   5.988   0.810  12.183  0.0756 -0.3204  0.1282
13729W        W29913  18.352   2.881   0.409  0.1424  0.0605  0.4916
13730W        W29914   1.733   3.430  15.245  0.0630  0.1147  0.0650
13731W        W29915  11.290   4.992   3.375  0.0317 -0.1596  0.3081
13732W        W29916  10.435   8.470   1.366 -0.0873  0.0433  0.3541
13733W        W29917  14.328   3.455   5.503 -0.2236  0.1594  0.0176
13734W        W29918   4.983  10.403   5.978 -0.0274 -0.0130 -0.2177
13735W        W29919   4.280  13.460   1.224 -0.0655 -0.1523  0.2573
13736W        W29920   4.223   2.856  13.364 -0.1490  0.1478 -0.0324
13737W        W29921   2.538  11.047   0.590 -0.0247 -0.0222  0.0798
13738W        W29922   9.328   2.051  12.605  0.2335 -0.0182 -0.0648
13739W        W29923  15.284   2.719  14.686 -0.0675 -0.0749  0.1869
13740W        W29924   5.620   3.574   3.934  0.4567 -0.1381  0.1563
13741W        W29925  14.811  11.804  14.077  0.0789 -0.1222 -0.0637
13742W        W29926   1.193  14.897  13.908 -0.0181 -0.4214  0.1707
13743W        W29927   6.544   9.079   1.048  0.1285  0.0918 -0.0374
13744W        W29928   2.308  18.561  15.022  0.0377 -0.2974 -0.2107
13745W        W29929   7.817  17.295   1.688 -0.1149  0.1837 -0.1201
13746W        W29930   3.823  13.450   5.635  0.1083  0.0249 -0.2848
13747W        W29931  13.974   3.519  15.275 -0.0612 -0.0516 -0.0826
13748W        W29932  12.690   7.406  13.972  0.0946 -0.1060 -0.3998
13749W        W29933  11.818   8.353   3.970 -0.0751  0.0187 -0.1419
13750W        W29934  15.905  12.733   0.125  0.0505  0.0971 -0.0980
13751W        W29935  12.677   8.880  11.337  0.0057  0.2518  0.0756
13752W        W29936  18.271   6.184   2.736  0.2132  0.2112 -0.2034
13753W        W29937  11.148  11.228   2.083  0.3114  0.0338  0.0141
13754W        W29938  12.987   3.243   4.514 -0.1071 -0.0492 -0.0767
13755W        W29939   4.066   7.027   1.874  0.0994 -0.2373 -0.2992
13756W        W29940  11.749  10.493   9.859 -0.3877  0.3347 -0.0324
13757W        W29941  17.454  13.343   3.049 -0.0694  0.2086 -0.0005
13758W        W29942  11.447  16.750   4.162 -0.1919 -0.1005 -0.0036
13759W        W29943   2.445   5.561   4.019 -0.5581 -0.3119  0.1139
13760W        W29944  18.225  13.397   0.713 -0.3857 -0.1186 -0.3321
13761W        W29945  12.894  12.520  14.983  0.0347  0.1534 -0.1449
13762W        W29946   8.916  18.366  11.707  0.1759  0.0779  0.0301
13763W        W29947   5.345  12.882   0.746  0.3168  0.0255  0.1312
13764W        W29948  11.350   3.229  15.355 -0.1286  0.1486  0.3771
13765W        W29949   5.530  18.011  13.148  0.1926  0.2133 -0.3402
13766W        W29950   2.387   7.828  14.751 -0.1781 -0.2593 -0.1151
13767W        W29951  13.413  16.055   2.144  0.0332  0.2192 -0.0513
13768W        W29952   7.392   4.099  10.870 -0.3861 -0.0983 -0.0981
13769W        W29953  10.342   2.855  14.065  0.0535 -0.3158 -0.0422
13770W        W29954  18.365  17.524   4.332 -0.2789  0.1788  0.1014
13771W        W29955   3.513  11.330  13.460  0.3032 -0.1242 -0.0459
13772W        W29956   9.210  10.031  12.788 -0.0417  0.0128 -0.0470
13773W        W29957  10.817  14.384   9.600 -0.2428  0.5050  0.3421
13774W        W29958   6.079   9.343   3.514 -0.1124 -0.0041 -0.1429
13775W        W29959   4.596  10.288  11.483  0.1953 -0.1154  0.1185
13776W        W29960  14.443   2.130   0.860  0.1965 -0.0057  0.0772
13777W        W29961  12.090  13.260  12.005  0.0008 -0.2416  0.0221
13778W        W29962   6.595  16.647  14.286  0.3882  0.1404  0.0653
13779W        W29963  10.962  11.222   1.201 -0.0447 -0.2775 -0.1172
13780W        W29964   0.918   6.258   0.586 -0.1758  0.3914  0.0736
13781W        W29965   4.219   4.172  11.474  0.0243 -0.0591 -0.0617
13782W        W29966   5.890  10.697   3.000 -0.1474 -0.2513  0.0846
13783W        W29967  15.239  14.450  13.295  0.1360 -0.2155  0.1459
13784W        W29968  15.915   2.757   3.285  0.0022  0.0163  0.2246
13785W        W29969   8.885  11.631   1.340  0.0336 -0.2970  0.0588
13786W        W29970  13.029  12.763  11.750 -0.0612 -0.0579 -0.0581
13787W        W29971  12.037  17.607   4.157  0.1344  0.3153 -0.2839
13788W        W29972   6.619  12.284   1.406  0.1968 -0.0676  0.0789
13789W        W29973   2.813  10.821   2.448 -0.1539  0.2540 -0.3014
13790W        W29974  10.565  11.575   1.536 -0.2016 -0.3109  0.2077
13791W        W29975   1.728  14.450   1.141 -0.4274  0.1367 -0.0277
13792W        W29976  14.708   4.825   3.140 -0.2256 -0.0493 -0.0769
13793W        W29977   9.239   1.677   4.465  0.1126 -0.0654  0.1057
13794W        W29978  10.206  18.071  14.888  0.0704  0.0017  0.1309
13795W        W29979  13.766   4.570   4.426  0.1037 -0.1902  0.1336
13796W        W29980   1.051   8.115  14.565 -0.1962 -0.1789 -0.0305
13797W        W29981   8.785   0.442   0.708 -0.0794 -0.0757 -0.0681
13798W        W29982  17.970  16.945  10.476 -0.0800 -0.2851  0.1583
13799W        W29983  10.889  16.915   2.831  0.1459 -0.1059 -0.0811
13800W        W29984  10.736   9.246  13.665 -0.0668  0.0480  0.1953
13801W        W29985   4.012   9.380   1.131 -0.1454  0.1104 -0.1012
13802W        W29986   1.197   3.070   3.916 -0.1079 -0.3661 -0.2950
13803W        W29987  12.307  13.671   2.786  0.3138 -0.1998 -0.0413
13804W        W29988  13.962   0.987   4.038  0.0154 -0.2582 -0.0984
13805W        W29989   0.271   5.189   5.889 -0.2397 -0.0924  0.3354
13806W        W29990   5.554   5.354   5.011  0.0656  0.3822 -0.3269
13807W        W29991   8.490  13.183  10.975 -0.0683  0.1183 -0.0942
13808W        W29992  11.948   2.799  10.652  0.2272  0.2880 -0.1214
13809W        W29993   4.717  14.241   0.691 -0.3381  0.1715  0.0076
13810W        W29994   3.031  10.945   3.505 -0.1658 -0.0116  0.0085
13811W        W29995   8.709  17.789  14.037 -0.0360  0.1721 -0.3851
13812W        W29996  17.367   6.402  15.369  0.0421 -0.4429 -0.2329
13813W        W29997   6.042   7.592   1.083  0.2045 -0.2568 -0.1535
13814W        W29998  12.684   4.079  12.557 -0.0638  0.0455  0.1044
13815W        W29999  14.080   3.336  10.352  0.1058  0.3161 -0.1649
13816W        W30000   8.786   7.152  14.345  0.2570  0.1853 -0.2204
13817W        W30001   7.938  18.268  11.343 -0.0926  0.1552  0.0640
13818W        W30002   8.642   2.058  13.935 -0.2614 -0.1327 -0.0666
13819W        W30003   4.224  11.960   2.858  0.0101  0.1768  0.2357
13820W        W30004  10.601  10.780  12.647 -0.1151 -0.3013 -0.3494
13821W        W30005   0.436  17.916   1.203  0.0318 -0.2398  0.0024
13822W        W30006   3.949   8.294   5.433  0.2210 -0.0299  0.1380
13823W        W30007  13.288   6.490   2.328  0.0707 -0.1513 -0.1549
13824W        W30008  10.183  12.750   3.903 -0.2718  0.0780 -0.1194
13825W        W30009  18.805  10.322   3.651 -0.2397 -0.1770  0.3899
13826W        W30010   8.407   5.606  13.103  0.3203  0.0085 -0.0725
13827W        W30011  16.428   9.939  10.336 -0.3686  0.1470 -0.1838
13828W        W30012   6.044  12.057  12.639 -0.1247 -0.2526 -0.1074
13829W        W30013  11.349  14.265  13.769 -0.3159  0.1585  0.0571
13830W        W30014  10.618   5.626  12.390 -0.0557  0.1944 -0.1467
13831W        W30015   9.493   5.960   3.011  0.2259 -0.0010 -0.1292
13832W        W30016  18.052   5.276   3.295 -0.1101 -0.1297  0.2175
13833W        W30017   4.172   6.913   0.841 -0.0888  0.0915 -0.3000
13834W        W30018  17.431   0.941   1.182 -0.3431  0.1005 -0.0103
13835W        W30019   2.300   6.551   5.222  0.0352  0.0727  0.0326
13836W        W30020  13.010  13.536  10.903 -0.1699 -0.3231 -0.1650
13837W        W30021  10.083  12.400  12.096  0.1685  0.2133 -0.1492
13838W        W30022  15.504  14.183   2.891  0.2471 -0.1948 -0.3053
13839W        W30023  12.563  18.518   4.011  0.0871  0.1672 -0.1724
13840W        W30024  10.395  16.142  13.076 -0.3709  0.1155  0.0470
13841W        W30025  15.285  16.850  13.688  0.1703  0.0078  0.1167
13842W        W30026  15.230   1.896  13.474 -0.0614 -0.3028  0.1874
13843W        W30027   3.247   4.226   3.431 -0.1900  0.1224 -0.2811
13844W        W30028   8.474  10.326   1.666 -0.1013 -0.0759  0.0196
13845W        W30029   2.479  13.303   0.955  0.1394 -0.0283  0.0891
13846W        W30030  11.194  17.281  15.312 -0.1160 -0.4291 -0.0233
13847W        W30031  16.921  13.391  15.330 -0.2586 -0.1412  0.1339
13848W        W30032  11.112  13.337  10.450  0.1127  0.3707 -0.1865
13849W        W30033   7.532   3.707   2.339 -0.0118 -0.2239 -0.0988
13850W        W30034   4.587  13.080   4.075  0.0385 -0.3103  0.0665
13851W        W30035   5.358   4.575  15.250 -0.1056 -0.4806 -0.0099
13852W        W30036  15.192   2.597   2.157 -0.1028 -0.0785 -0.0578
13853W        W30037   6.675   4.546   3.117  0.2042  0.2296 -0.1592
13854W        W30038   9.511   0.939   1.170  0.2191 -0.0447 -0.2237
13855W        W30039   5.163   8.350   2.989  0.3106 -0.2728  0.2474
13856W        W30040   0.880  16.827  12.944 -0.1483 -0.1567 -0.0717
13857W        W30041   4.925   9.464  15.196 -0.1805  0.0820 -0.0158
13858W        W30042   0.644  14.953  12.616  0.1331 -0.0562  0.3481
13859W        W30043  18.621  16.884  13.919  0.4325  0.2934  0.1568
13860W        W30044  17.289  15.356   4.287 -0.1998 -0.0142 -0.4399
13861W        W30045  12.492   6.250   2.424  0.1108 -0.2178 -0.3579
13862W        W30046   9.249   9.374  11.214  0.0787  0.1255  0.0449
13863W        W30047  16.760   3.660  13.188 -0.4100  0.0136  0.2342
13864W        W30048  10.764   5.099  13.518  0.0826  0.1469 -0.2362
13865W        W30049   6.386   0.389   0.770  0.3234 -0.2691 -0.1653
13866W        W30050  14.335  18.200   4.399 -0.2797  0.0028 -0.0796
13867W        W30051   2.955   0.838  12.714 -0.0440  0.1602  0.4637
13868W        W30052   7.538  14.202   5.056 -0.3340 -0.2160  0.1473
13869W        W30053  18.736  12.291   2.280  0.2304  0.0926 -0.1106
13870W        W30054   2.972   6.916   1.967 -0.0806 -0.0251 -0.0271
13871W        W30055   0.230   1.234  13.240  0.2166  0.2864  0.1266
13872W        W30056  18.709   5.375  12.542 -0.0279  0.0847 -0.1215
13873W        W30057   1.523   1.135   5.295 -0.1767  0.0816  0.2297
13874W        W30058   8.388   9.801   3.459  0.0013  0.0186  0.4919
13875W        W30059   4.652  18.714   2.525  0.1764  0.1069  0.2646
13876W        W30060   4.774   4.529  13.065  0.0681 -0.0461  0.3564
13877W        W30061   0.758  15.272   3.406  0.2286  0.3683  0.2087
13878W        W30062   0.676  13.929  10.053 -0.1440 -0.0074  0.1935
13879W        W30063   1.924  14.064  11.667 -0.2794  0.0674 -0.0385
13880W        W30064   2.094   8.714   2.897 -0.0752  0.2173  0.1186
13881W        W30065   6.048  18.348  11.661 -0.0089 -0.1164 -0.1811
13882W        W30066   1.434   2.930  11.497  0.1594 -0.0425 -0.2557
13883W        W30067  15.526   4.291  11.252 -0.1161 -0.3582 -0.0740
13884W        W30068   7.039   7.304   0.108 -0.2138 -0.0796  0.2829
13885W        W30069   7.601  12.445   0.743  0.0547 -0.2030 -0.0939
13886W        W30070   3.718  17.185  10.480 -0.0120  0.5569 -0.1707
13887W        W30071   7.504  12.303  11.404  0.0905 -0.1146 -0.1676
13888W        W30072   1.160  14.423   4.965 -0.1647 -0.1450  0.0477
13889W        W30073   9.009   5.972   0.857  0.0854  0.0254 -0.0807
13890W        W30074  13.949  14.327   4.327  0.0719  0.2200  0.0186
13891W        W30075   1.913   6.001   0.935 -0.3955 -0.2372  0.1664
13892W        W30076  10.701  16.989  12.632  0.2726  0.0920 -0.0046
13893W        W30077  18.259  14.810   1.241  0.1523 -0.1832  0.4151
13894W        W30078   9.493   5.464   4.742 -0.0237  0.2615 -0.0808
13895W        W30079   4.768   6.973   2.956  0.1859  0.3767  0.2424
13896W        W30080   5.032   7.523  12.861 -0.2496  0.0557 -0.4880
13897W        W30081  15.613   5.767   3.716 -0.1492  0.1612  0.0286
13898W        W30082   0.222  18.204   5.213  0.1835 -0.6718  0.3432
13899W        W30083  14.092   9.568  12.654  0.4515  0.0524 -0.2849
13900W        W30084  12.494   6.277   3.866  0.4616  0.1703  0.3687
13901W        W30085  18.361  13.421  14.474  0.2335 -0.1070 -0.0809
13902W        W30086  15.874  16.872   1.626 -0.3056 -0.0822  0.0652
13903W        W30087  11.197   0.668   3.641 -0.0811  0.3484  0.0395
13904W        W30088   7.539   1.480   5.742 -0.0254 -0.2491 -0.2679
13905W        W30089   7.682   7.215   4.561  0.0957 -0.1606  0.0329
13906W        W30090   9.861   2.369   4.907 -0.1980  0.1295  0.0831
13907W        W30091   9.774   4.807  13.678  0.0596  0.0253 -0.0197
13908W        W30092  18.656   7.691   4.295 -0.2482  0.6500 -0.2648
13909W        W30093   9.775  18.003   2.388  0.0940 -0.4442  0.2406
13910W        W30094  16.921   8.628  12.404 -0.1245 -0.2414  0.0542
13911W        W30095   0.149   0.764  11.609  0.1955  0.4299 -0.1004
13912W        W30096  14.411   7.511  10.331 -0.0520 -0.2058  0.0897
13913W        W30097   2.465  11.516   0.254  0.0282  0.1084 -0.0063
13914W        W30098   6.889   9.688  14.940  0.2006 -0.1015  0.3030
13915W        W30099   1.430   1.261   2.991 -0.1105  0.1913 -0.0095
13916W        W30100  15.041   4.511   2.817 -0.0552 -0.2566  0.0942
13917W        W30101  13.285  12.692   4.713  0.1187 -0.0263  0.0077
13918W        W30102  13.230   8.080  10.532 -0.1693  0.0576 -0.1533
13919W        W30103  18.825   2.999   0.400  0.0525  0.1469 -0.3057
13920W        W30104   3.847   5.222  12.172 -0.4678  0.0578 -0.3839
13921W        W30105  10.358   7.084  11.253  0.1372  0.0122  0.1810
13922W        W30106   7.496  18.649  14.486  0.1061  0.1626  0.1164
13923W        W30107   1.833  18.390   0.575 -0.1927  0.0506 -0.1315
13924W        W30108   6.960   8.399   2.869  0.0653 -0.0969 -0.2234
13925W        W30109  14.612  13.103   4.209 -0.0302  0.0346  0.2844
13926W        W30110   3.677   8.662  13.757 -0.0742 -0.0777  0.3344
13927W        W30111  18.144  12.349   4.772 -0.2362  0.0373  0.3729
13928W        W30112   3.663   1.962  11.215  0.0951  0.1170 -0.0224
13929W        W30113  17.554  13.821  15.105 -0.0218  0.0902 -0.0584
13930W        W30114   5.060   2.635  10.167 -0.1834 -0.0893 -0.0789
13931W        W30115   2.272   8.087  13.761  0.3335 -0.2526 -0.3558
13932W        W30116   2.893  16.182  13.401  0.2131 -0.2607 -0.2169
13933W        W30117   5.916  17.742  12.363 -0.0882  0.0245 -0.1653
13934W        W30118   3.030   2.932  14.999  0.4666  0.0084 -0.1039
13935W        W30119  17.821   2.385  11.209 -0.3992 -0.3518 -0.0257
13936W        W30120  10.207  17.675  12.978  0.0223 -0.3376 -0.1153
13937W        W30121  15.365  16.033   1.320  0.1833  0.1974 -0.0537
13938W        W30122   9.031  15.808  11.207 -0.0922 -0.0685  0.0088
13939W        W30123   4.160   9.511  15.142 -0.2500 -0.0307  0.0351
13940W        W30124   4.466  17.520  15.366  0.1953 -0.2035  0.0548
13941W        W30125   9.653  10.835  10.964  0.3789  0.2833 -0.2385
13942W        W30126  16.003  11.718   4.877  0.0677  0.0647  0.3534
13943W        W30127   6.905   9.522   1.119 -0.1809  0.0379  0.1140
13944W        W30128   6.732   6.727  13.686 -0.2753  0.1425  0.0375
13945W        W30129   0.927  12.603   1.350 -0.0260 -0.0474 -0.3166
13946W        W30130   5.065  10.703   3.391 -0.1912 -0.3526  0.2357
13947W        W30131  15.702   1.601   1.888 -0.0169 -0.0041 -0.2373
13948W        W30132   0.948   4.493  13.638 -0.1352 -0.2239 -0.3928
13949W        W30133   2.634  14.294   3.194 -0.2235 -0.2324 -0.1495
13950W        W30134  12.279   0.346   5.127  0.0388  0.1700  0.2492
13951W        W30135   1.762   3.463   9.892 -0.0702  0.2714  0.0659
13952W        W30136   2.111   6.198   4.807  0.0025  0.0337  0.0759
13953W        W30137   8.948   3.910  13.753 -0.1930 -0.0637 -0.0729
13954W        W30138  10.898  12.702   2.021 -0.2619  0.0142  0.2104
13955W        W30139   8.725   6.745  15.169 -0.1683  0.2268  0.1770
13956W        W30140  17.146  10.610   1.844  0.0212  0.1817  0.1931
13957W        W30141  18.959   7.397  13.460 -0.3080  0.1296  0.0759
13958W        W30142  18.679   0.602  14.752 -0.1390  0.1472  0.0786
13959W        W30143  14.425   6.213   5.166 -0.4585 -0.1025 -0.0046
13960W        W30144  17.132   9.466  11.874 -0.0953 -0.1554 -0.2077
13961W        W30145  10.892   1.529  14.492 -0.1196 -0.2204  0.1222
13962W        W30146  17.175  14.129  12.885  0.1361 -0.0378  0.1445
13963W        W30147   4.219  12.222  13.239 -0.0533  0.0702  0.0413
13964W        W30148   0.248  11.876  12.235 -0.1122  0.1856  0.0452
13965W        W30149   9.060  13.884  14.629 -0.1824 -0.0890 -0.3261
13966W        W30150  18.110   2.591   2.008 -0.1528  0.0848 -0.4345
13967W        W30151  12.770  10.556  12.709  0.0125 -0.0230 -0.1697
13968W        W30152   8.949  15.855   2.306 -0.0567 -0.0188 -0.3599
13969W        W30153   7.136   6.033  13.609  0.3392 -0.1699  0.1128
13970W        W30154   7.398   6.472  15.312  0.2878  0.0340 -0.3980
13971W        W30155  18.920   3.431  14.463  0.2414 -0.1770 -0.1448
13972W        W30156  14.691  14.644   3.399  0.0014 -0.1308 -0.0711
13973W        W30157  10.759   8.228   0.013  0.0522  0.3060 -0.1563
13974W        W30158   8.416   4.297   2.787 -0.0478  0.1419  0.4244
13975W        W30159   0.580  13.659  10.471 -0.1639 -0.1516 -0.2711
13976W        W30160   6.388   0.047   1.784 -0.0583  0.0138 -0.0601
13977W        W30161  12.137   5.619  12.856  0.0867 -0.4450 -0.1444
13978W        W30162   7.597   9.528  13.769 -0.0792  0.1160  0.2615
13979W        W30163  13.059   9.237  10.518  0.3302 -0.3254  0.2703
13980W        W30164  11.729   1.487  12.141 -0.3377 -0.1228 -0.1262
13981W        W30165   4.095  18.805  14.523  0.2633 -0.2201  0.2286
13982W        W30166   2.422   8.673   1.760  0.1980 -0.5144 -0.1748
13983W        W30167   0.592   2.074   0.972  0.0500 -0.1371  0.1338
13984W        W30168   6.839  18.497   5.043 -0.2663 -0.2222  0.2090
13985W        W30169   6.453  15.174  12.237  0.3949  0.0586  0.1041
13986W        W30170  18.967  13.711   1.093  0.0858 -0.2851 -0.0221
13987W        W30171   0.103  12.955  14.524  0.0864  0.3479 -0.0978
13988W        W30172  14.706  13.438   0.460 -0.0573 -0.1884  0.0247
13989W        W30173   4.517   9.178   3.816 -0.1768  0.1975 -0.0647
13990W        W30174   4.897  13.363  12.972  0.0615  0.1635  0.2471
13991W        W30175  10.194  13.377   1.989 -0.1927  0.3855  0.2046
13992W        W30176   8.070   9.977  14.398  0.3507  0.2258 -0.1672
13993W        W30177  16.221   9.855  15.381  0.0159 -0.1275  0.0229
13994W        W30178   8.983   5.641  14.386  0.0230 -0.1528 -0.3288
13995W        W30179  15.931   4.081  14.508 -0.1218  0.0034  0.0939
13996W        W30180   8.364  14.975  11.413 -0.0376 -0.0136 -0.4815
13997W        W30181   1.613  13.977  12.093 -0.0502  0.1564  0.0038
13998W        W30182  11.677  12.618   0.180 -0.2416  0.1935 -0.2112
13999W        W30183  13.463   9.194   4.156 -0.0154 -0.1317  0.1175
14000W        W30184  10.875  11.865  10.854 -0.3605 -0.1424  0.2216
14001W        W30185  16.869  15.874  15.220  0.0850  0.0836  0.0233
14002W        W30186   9.617   6.660   2.210  0.2344  0.1227 -0.3677
14003W        W30187   1.203   6.963   1.448  0.1256 -0.0543 -0.3635
14004W        W30188  14.977   1.105   4.540  0.4546 -0.1014 -0.0195
14005W        W30189  15.773   2.738   0.722 -0.0330 -0.1835 -0.0010
14006W        W30190   2.267  14.835   4.507 -0.0068 -0.0961 -0.0467
14007W        W30191   6.557  15.551   0.223  0.1709 -0.0490 -0.1198
14008W        W30192  15.433  16.024   4.277  0.2103 -0.1901 -0.1010
14009W        W30193   6.831   2.398  13.807  0.1689  0.3579 -0.1478
14010W        W30194   1.511  16.817  13.396  0.0477  0.0428 -0.0584
14011W        W30195   8.749  14.061  11.128 -0.1265 -0.2181  0.0391
14012W        W30196  14.049   8.346   0.090  0.1566  0.1077 -0.2494
14013W        W30197   6.710  11.184   1.074  0.1497  0.0034  0.1841
14014W        W30198  17.756  11.203   1.820 -0.0640  0.1018  0.4283
14015W        W30199   5.017  15.108  15.321 -0.2135  0.1298  0.1122
14016W        W30200   8.770  12.305   3.174  0.0677  0.0505 -0.1555
14017W        W30201  16.530  11.780   4.111 -0.1670  0.1108 -0.3333
14018W        W30202  14.617   8.656   0.985  0.2887 -0.0235  0.0686
14019W        W30203   1.799   4.276   0.612  0.0511  0.1358 -0.1168
14020W        W30204   1.710  13.503   2.671  0.2530  0.0605 -0.1333
14021W        W30205   2.367  11.702  13.145  0.1711 -0.1231  0.0374
14022W        W30206  12.188  13.667  15.285 -0.3623 -0.2012  0.1486
14023W        W30207  14.720  12.282  13.826  0.2044 -0.0547  0.1322
14024W        W30208   0.149  13.851   5.320  0.2248  0.2411 -0.2587
14025W        W30209   1.276   3.570  13.451 -0.1869 -0.2155  0.1431
14026W        W30210  11.514  15.682   4.636  0.0190 -0.2157  0.2037
14027W        W30211   0.565   1.759  11.468 -0.0149 -0.0312  0.1363
14028W        W30212   7.122  10.671  12.298 -0.0396 -0.4680  0.0507
14029W        W30213  17.699   7.207   1.173  0.2163 -0.0622 -0.0625
14030W        W30214  13.616  12.753  11.948 -0.2032  0.3091  0.2573
14031W        W30215   0.492  10.088   0.558  0.0703  0.0147 -0.2134
14032W        W30216  14.779   0.405  13.221 -0.1666  0.1437 -0.2385
14033W        W30217   3.270   8.679   2.767  0.1812  0.0052 -0.0177
14034W        W30218   4.586  18.847  12.708  0.0979  0.0418 -0.0504
14035W        W30219  18.166  15.701  13.599 -0.0241 -0.1271  0.0540
14036W        W30220  18.358  18.130   5.926 -0.4062 -0.1128  0.0160
14037W        W30221   6.297   9.078  15.118  0.1208  0.1985 -0.0419
14038W        W30222  17.880  15.220  12.666  0.0207 -0.1035 -0.1550
14039W        W30223  11.471  12.499  10.669  0.1550  0.0529  0.0977
14040W        W30224  18.074  12.570  12.931 -0.1025 -0.0688  0.2592
14041W        W30225   4.696   5.543   5.128 -0.1557  0.0260 -0.0323
14042W        W30226  18.282   4.842  12.951  0.1288  0.0805 -0.0688
14043W        W30227   0.956   4.704   1.866 -0.0568 -0.0176  0.2988
14044W        W30228  18.127   1.636   0.609 -0.2617 -0.2530  0.2284
14045W        W30229   6.832   8.902  12.300 -0.0270  0.1595 -0.0562
14046W        W30230  12.040   7.092  12.349 -0.0332  0.1324 -0.0708
14047W        W30231   2.578  18.660   4.946 -0.0415  0.1833 -0.0598
14048W        W30232  12.301   3.042  14.502 -0.0844  0.2598  0.0297
14049W        W30233   4.632  17.005   4.491  0.0447  0.2950 -0.3627
14050W        W30234  13.851   4.049  11.311 -0.0252  0.2504 -0.2339
14051W        W30235   2.561   5.013  14.522 -0.0851 -0.1580 -0.1203
14052W        W30236   0.924  18.641   1.080  0.0927 -0.1053  0.4747
14053W        W30237  14.275   7.005  13.267 -0.0370  0.0597  0.1030
14054W        W30238  16.651   8.240  11.546  0.1193  0.1606 -0.0353
14055W        W30239   5.045  12.879   2.609  0.0788  0.1572 -0.2235
14056W        W30240  13.036  16.081   0.299 -0.0502 -0.1900 -0.0700
14057W        W30241   7.289  14.494  12.933 -0.3873  0.4538 -0.0324
14058W        W30242   4.066  16.603  14.371  0.3447 -0.3543 -0.0736
14059W        W30243   8.023  10.486   5.021 -0.1338 -0.0990 -0.2805
14060W        W30244   5.033   2.455  12.009  0.0846  0.2648 -0.2300
14061W        W30245   4.197   2.583   2.428 -0.0727 -0.1394  0.0161
14062W        W30246   6.744   5.373  11.391 -0.1889 -0.1531  0.3072
14063W        W30247   0.414  15.957   0.155 -0.1513  0.2369 -0.3759
14064W        W30248  13.886   1.135   0.963 -0.2951  0.3330 -0.0399
14065W        W30249   6.011   7.669   3.629  0.5653  0.0935  0.4281
14066W        W30250  15.253  17.468  15.002  0.3786 -0.0155  0.0547
14067W        W30251   9.442  17.176  14.513  0.1218 -0.2266 -0.0009
14068W        W30252  17.487   6.089  10.826  0.3025 -0.2349  0.0690
14069W        W30253  11.141  14.493   1.361 -0.1997 -0.1408 -0.2815
14070W        W30254  13.370  13.221  11.944 -0.0560 -0.1990  0.0645
14071W        W30255  11.396   4.833  13.040  0.0046  0.0326 -0.3701
14072W        W30256  10.687   7.119  13.248 -0.2668  0.3611  0.1237
14073W        W30257  10.339  16.989   3.632  0.1827  0.2135 -0.4230
14074W        W30258   2.783   0.737   3.869 -0.0971  0.1730  0.1685
14075W        W30259  18.473   0.868  10.022 -0.0036 -0.0094  0.0189
14076W        W30260   2.771  18.237   0.401 -0.1293 -0.0976  0.0587
14077W        W30261   0.870  13.892  13.291 -0.1482  0.2842  0.0776
14078W        W30262   4.034  12.485  12.844  0.1014 -0.3393 -0.1361
14079W        W30263  13.110  14.449  11.990  0.2379  0.0812  0.0051
14080W        W30264  18.537   2.598   3.081  0.0008 -0.0833  0.0356
14081W        W30265   5.148  11.460  15.016 -0.3183 -0.1899 -0.1445
14082W        W30266   5.080   4.186  12.179  0.1489 -0.2293  0.2726
14083W        W30267   1.076  10.809  11.904 -0.0936  0.1026  0.0180
14084W        W30268  15.613   2.133  11.646  0.0309  0.1740 -0.0126
14085W        W30269   7.965   7.699   3.721 -0.2119 -0.0287  0.0275
14086W        W30270   5.721  10.267  12.831 -0.1454  0.0622  0.1282
14087W        W30271   9.566   4.446   1.037 -0.1075 -0.0800  0.0877
14088W        W30272   0.183   1.966   0.137 -0.1667 -0.0424  0.3147
14089W        W30273  18.490  12.555   3.176  0.1423 -0.0439  0.0450
14090W        W30274   6.974  17.473   1.504  0.0493  0.0298 -0.2227
14091W        W30275   0.127   4.281  14.638  0.0906  0.1592  0.0589
14092W        W30276  16.605  13.375   2.684 -0.0876  0.0522  0.0341
14093W        W30277   1.800   6.206   4.440 -0.2537 -0.3282 -0.2259
14094W        W30278   4.338   5.880   0.613 -0.2049 -0.0385 -0.4591
14095W        W30279   5.144   7.663  14.358 -0.1347  0.0067 -0.1041
14096W        W30280  11.518   1.498   0.425 -0.1927 -0.0449  0.1945
14097W        W30281  17.254  15.592  14.985  0.1933 -0.1210 -0.0692
14098W        W30282  16.302   8.617  13.805 -0.1661  0.0713 -0.0181
14099W        W30283   9.334  16.743   2.326 -0.0676  0.0559  0.1803
14100W        W30284  17.967  16.612   2.718  0.0907 -0.0061 -0.2782
14101W        W30285   3.044  15.263   2.150 -0.0795 -0.2081 -0.0356
14102W        W30286   2.687   5.533   1.174 -0.1761  0.1826 -0.1344
14103W        W30287  15.476  17.994   2.664 -0.4436  0.3920 -0.0787
14104W        W30288  12.883   9.379   0.513  0.2326 -0.2843  0.0204
14105W        W30289   3.730   4.588   2.659 -0.2243  0.0795  0.1097
14106W        W30290   5.936   5.124   0.205  0.4227 -0.1471 -0.4530
14107W        W30291  18.870   5.807   0.062 -0.0436 -0.0924 -0.0660
14108W        W30292  14.296   8.012   1.768  0.1201  0.0365  0.0948
14109W        W30293   2.465  12.604  14.286  0.0207  0.0177 -0.0145
14110W        W30294  17.283  13.035   3.902 -0.1537 -0.0097  0.0733
14111W        W30295   5.187   4.479   2.666 -0.3680 -0.3304 -0.1093
14112W        W30296  15.580  12.352  13.705  0.2230  0.0623 -0.1277
14113W        W30297  12.176   7.791  11.412 -0.0816  0.2440  0.2037
14114W        W30298  13.577   2.011   3.685 -0.0167 -0.1402 -0.2190
14115W        W30299   7.180   5.574  11.124 -0.1131 -0.0795  0.1063
14116W        W30300   9.825   5.407  11.073 -0.0345  0.0936 -0.0811
14117W        W30301   5.137  12.997   3.574  0.2109  0.0467  0.0399
14118W        W30302  10.753   0.749  12.498 -0.0443  0.0826  0.2336
14119W        W30303   4.941   4.444   3.115  0.1601 -0.1334  0.0517
14120W        W30304   8.896   2.855  14.041 -0.1550 -0.1038 -0.4530
14121W        W30305  12.011   1.639   3.765  0.2667 -0.1068  0.1021
14122W        W30306   0.995   0.040  11.254 -0.0287  0.0972 -0.1803
14123W        W30307  18.944  12.824  13.500 -0.1870  0.0656 -0.2541
14124W        W30308   1.984   3.570   4.475 -0.3246  0.0233  0.1201
14125W        W30309   2.757  15.482   1.181  0.2150  0.0166  0.0493
14126W        W30310   0.713   6.253  11.801  0.0143 -0.0391  0.0515
14127W        W30311   9.301  18.314  13.559 -0.2393 -0.3072  0.1783
14128W        W30312  13.016   1.357  15.217  0.2407 -0.2612 -0.3654
14129W        W30313   7.032  11.756   3.888  0.0388  0.2097  0.2158
14130W        W30314   6.676   0.270   0.390 -0.3406  0.1300 -0.2877
14131W        W30315  18.157  18.927   4.743 -0.0852  0.2812 -0.0117
14132W        W30316   9.119   0.599   3.382  0.4088  0.1584  0.1092
14133W        W30317  18.342   0.003   3.781  0.2520 -0.0901 -0.2310
14134W        W30318  12.549   1.537   0.189  0.0859 -0.0132  0.1110
14135W        W30319   6.413   3.973  10.915 -0.1590 -0.0935  0.0208
14136W        W30320   0.793  18.247  14.392 -0.2236  0.0164 -0.1053
14137W        W30321  14.399  14.997   3.755  0.2422  0.0653  0.0201
14138W        W30322  16.858   2.259   1.094 -0.0027  0.0167  0.0948
14139W        W30323   7.769   8.103   2.382  0.0216 -0.0263  0.1676
14140W        W30324   4.779   3.527   4.217 -0.0413 -0.0173 -0.1314
14141W        W30325  16.706   6.414  10.934  0.3323 -0.0386  0.1346
14142W        W30326   1.281   1.945   2.141  0.0231  0.3534 -0.0804
14143W        W30327  10.228   9.506  13.840  0.5018 -0.1673 -0.1508
14144W        W30328   4.468   4.378   5.105  0.0364 -0.0681 -0.0996
14145W        W30329  14.943  17.416   3.316 -0.1381  0.0397 -0.2358
14146W        W30330   8.732   4.531   5.334 -0.2490 -0.0813  0.0431
14147W        W30331  10.253   1.839  11.010 -0.1363  0.0071  0.0289
14148W        W30332  15.811   5.719   4.215  0.0020  0.3448  0.1966
14149W        W30333   5.571  15.903  13.975 -0.0628  0.1742  0.2503
14150W        W30334  17.669  12.141   0.985 -0.2827  0.3434 -0.1436
14151W        W30335   9.067   9.302  13.737  0.3466  0.1183  0.1357
14152W        W30336  15.339   0.389  13.230  0.1924 -0.1216 -0.1056
14153W        W30337   8.902  13.867   3.626  0.3637  0.1747 -0.1665
14154W        W30338  12.714   1.539  11.518  0.0672  0.0812 -0.2135
14155W        W30339   6.412  16.069   2.055 -0.1171  0.2328 -0.1396
14156W        W30340   7.180  14.810   4.554 -0.0949 -0.3581  0.0264
14157W        W30341   7.456   6.561   3.345 -0.0978  0.1599 -0.2256
14158W        W30342  16.157   9.539  14.967  0.1471 -0.0948  0.1462
14159W        W30343   1.395   8.853   3.238  0.2315 -0.1865 -0.1529
14160W        W30344   8.620  15.416  11.536  0.1374  0.0135 -0.0800
14161W        W30345  16.787  12.898  13.096  0.2792 -0.0649  0.0563
14162W        W30346  15.588   1.377   3.550 -0.1950 -0.0806 -0.0516
14163W        W30347   6.422  16.441  15.223  0.0582  0.0470 -0.1258
14164W        W30348  18.645   5.972  13.303 -0.0859  0.0561 -0.1150
14165W        W30349  14.369  11.280  10.931 -0.1000 -0.0355  0.0600
14166W        W30350  12.901  13.238  14.018 -0.2389 -0.1821  0.0243
14167W        W30351   7.803   0.371   4.282 -0.0561  0.4289 -0.0065
14168W        W30352   8.354  12.872  14.104  0.1754 -0.2296 -0.0209
14169W        W30353   7.758  12.437   2.853  0.0659  0.1408 -0.0570
14170W        W30354  18.164   2.100   5.263 -0.0778  0.0915  0.0820
14171W        W30355   1.793  11.101   2.744  0.4043 -0.4308  0.1063
14172W        W30356   2.993  11.060   4.431 -0.2404 -0.1231 -0.0034
14173W        W30357  10.466   4.434  12.595 -0.0673 -0.0424  0.1167
14174W        W30358  17.158  10.968  14.376  0.0922 -0.0578 -0.1111
14175W        W30359   9.051  11.402   9.821 -0.2678  0.2770 -0.0237
14176W        W30360  15.481   3.858  14.182  0.1984  0.0267 -0.1070
14177W        W30361  14.991   5.822  11.560  0.0259 -0.4311 -0.1563
14178W        W30362   1.570   9.739  15.292 -0.0354 -0.0616  0.2322
14179W        W30363  17.664  10.992   5.174 -0.0310  0.2759 -0.1184
14180W        W30364   2.067   3.048   4.619 -0.3142  0.2369  0.2758
14181W        W30365  18.983  17.058   0.808 -0.1010 -0.0721 -0.0008
14182W        W30366   5.274  10.072  14.645 -0.1136  0.0229 -0.0798
14183W        W30367  13.582   2.883   2.971 -0.0713  0.1763  0.0747
14184W        W30368  12.781  12.189  14.584 -0.2447  0.4121 -0.1492
14185W        W30369   4.611  16.382   4.590  0.3766  0.0439  0.2787
14186W        W30370  13.587  13.113   4.867  0.0188 -0.1202  0.1215
14187W        W30371  15.165   0.966   4.013 -0.0038  0.0312 -0.0791
14188W        W30372   0.416  11.356   4.496 -0.0354 -0.0815 -0.1347
14189W        W30373  10.111   2.737  12.104  0.0029 -0.0516 -0.0571
14190W        W30374   4.170  12.665  15.225 -0.0757  0.1136  0.1435
14191W        W30375  15.989   7.726   4.453  0.0463 -0.2871  0.1489
14192W        W30376   0.474   2.679  10.827  0.1977  0.3337 -0.0746
14193W        W30377  18.150  14.097   5.490  0.2655  0.0353  0.1912
14194W        W30378   8.397   4.211  14.421 -0.3594  0.2705  0.0684
14195W        W30379   6.186   2.801   3.846  0.1742 -0.2351  0.1925
14196W        W30380  12.781   7.706  11.126 -0.4368 -0.0635 -0.2241
14197W        W30381   2.541  11.216  11.928 -0.0629  0.0051  0.0151
14198W        W30382  10.856   6.368   0.434  0.0793  0.1448 -0.2230
14199W        W30383  16.327  16.866  12.456  0.3513  0.0415  0.1408
14200W        W30384   5.658   3.113  15.209 -0.1169  0.1295  0.1007
14201W        W30385   6.604   1.381  11.449 -0.3919  0.0451  0.1202
14202W        W30386  11.455  18.546   4.827 -0.1664 -0.1906 -0.1885
14203W        W30387  13.472   0.810   9.940  0.3425  0.0077  0.4046
14204W        W30388   8.300  18.148  13.947  0.2043 -0.3943 -0.1540
14205W        W30389  14.527  11.108   0.614  0.1558 -0.1333 -0.0678
14206W        W30390  15.137   7.562   2.941  0.0164 -0.2131  0.0695
14207W        W30391   8.850  15.743  14.353  0.1645  0.0089 -0.1091
14208W        W30392   9.697   8.603  12.605 -0.1436 -0.3353 -0.1525
14209W        W30393   3.084  14.169   2.998  0.1192 -0.0570  0.0016
14210W        W30394   9.799  12.150  10.547  0.0145 -0.4146 -0.0713
14211W        W30395  16.065   4.125  12.091  0.0572 -0.3068 -0.5017
14212W        W30396  18.570   7.252  11.077 -0.1803  0.0234  0.0825
14213W        W30397   4.634   0.086  15.085  0.2326 -0.2246  0.3155
14214W        W30398   1.920  13.859  10.679 -0.1371 -0.1933  0.2583
14215W        W30399  13.024   3.050   2.180 -0.0428  0.0713  0.3429
14216W        W30400   7.205   5.276   2.148 -0.1386  0.1242  0.0149
14217W        W30401  10.563   2.402   0.597  0.1899  0.0177  0.3675
14218W        W30402  13.113  12.431  10.449 -0.0070 -0.2006 -0.2500
14219W        W30403   1.693   5.756   0.270 -0.1757 -0.0820  0.3957
14220W        W30404   6.388   6.386   4.127 -0.0969  0.1668  0.0923
14221W        W30405   8.387   4.685  12.159 -0.0270 -0.4481  0.0155
14222W        W30406  13.918  17.296  11.031  0.1862  0.0122 -0.2054
14223W        W30407   1.436   5.507   2.359  0.1128  0.0247  0.2655
14224W        W30408  10.114  10.616   4.851 -0.2645 -0.2196  0.1060
14225W        W30409  18.102  13.325   4.278  0.1757 -0.0505  0.1061
14226W        W30410   1.760  18.661   2.224  0.0011 -0.0942 -0.4099
14227W        W30411   7.947  15.033  12.497  0.1018  0.4025 -0.1605
14228W        W30412   0.007  15.545   2.243  0.1076 -0.6328 -0.1073
14229W        W30413   1.370  11.647  11.489 -0.2061 -0.1736  0.1606
14230W        W30414  10.089  10.202   3.653 -0.0102  0.1807 -0.0149
14231W        W30415   8.256  14.029   1.315 -0.2154 -0.1187 -0.2581
14232W        W30416   5.274   1.966   4.812  0.3432  0.0217  0.2844
14233W        W30417  17.061   7.670  15.023  0.0999 -0.2525  0.2066
14234W        W30418  12.644  13.830  10.615  0.2628  0.1619  0.1496
14235W        W30419  18.900   9.001  10.932  0.3341 -0.0504 -0.1081
14236W        W30420   7.833  16.425  14.461  0.0729  0.1398  0.0580
14237W        W30421  12.895   8.936  10.881 -0.0162  0.0747  0.0048
14238W        W30422   3.110   8.088   4.350 -0.0602  0.2429 -0.1463
14239W        W30423   8.019   4.808  11.422 -0.3481  0.1208  0.2221
14240W        W30424  16.757  10.315   4.950 -0.0454  0.1687 -0.1295
14241W        W30425  15.108   4.678  11.062 -0.2537  0.0304 -0.2909
14242W        W30426   3.763  12.380   2.707 -0.2014  0.1666 -0.0663
14243W        W30427   1.762  14.910  12.322  0.0326  0.0923 -0.1991
14244W        W30428  13.799   9.893  15.099  0.2002 -0.0068 -0.4408
14245W        W30429   5.986  16.370  13.286  0.3268 -0.0760  0.0377
14246W        W30430  11.686   6.863   4.444  0.1442  0.4018  0.0057
14247W        W30431  14.283   4.475   3.178  0.0205  0.1819  0.1873
14248W        W30432   0.229  18.922   3.605 -0.1645  0.3281  0.1190
14249W        W30433   5.383   0.206   1.141  0.1191 -0.0211 -0.0362
14250W        W30434   4.670  18.125   0.199 -0.1014  0.0832  0.0676
14251W        W30435  10.960   6.166  15.308 -0.0960 -0.4642  0.0981
14252W        W30436  14.047  11.935   4.998 -0.2290 -0.0207  0.1421
14253W        W30437  13.753   1.541  12.035  0.1623  0.2009  0.2707
14254W        W30438  17.698   4.988  11.400  0.0155  0.2914 -0.2094
14255W        W30439   6.103  12.737   3.033 -0.1267  0.2602  0.1574
14256W        W30440  10.640   9.290   1.622  0.0288  0.1372  0.2171
14257W        W30441  16.608   6.736   1.346 -0.2962  0.1722 -0.3190
14258W        W30442  15.319   9.126  14.502 -0.0877  0.2324  0.2236
14259W        W30443  16.894   3.042  14.707  0.1584  0.2566  0.0324
14260W        W30444   4.136  18.969   1.092 -0.0888 -0.0591 -0.0388
14261W        W30445  12.777  13.188   4.542 -0.1951 -0.3597  0.1414
14262W        W30446  11.795   2.549   1.735 -0.1091 -0.2796 -0.0851
14263W        W30447  16.592   8.624   3.102 -0.3645 -0.2789 -0.0762
14264W        W30448  10.717   9.719  13.553 -0.0641  0.4103  0.1410
14265W        W30449  17.879   7.958  10.549 -0.5028 -0.0757  0.0080
14266W        W30450   0.172   0.264  13.356  0.1407  0.0337  0.0801
14267W        W30451   0.904  11.597  13.685 -0.2786 -0.2959  0.0609
14268W        W30452   6.060   2.762  12.560  0.0748  0.1077 -0.0948
14269W        W30453   9.547   9.140   9.497 -0.1633 -0.1288 -0.0558
14270W        W30454  12.881  12.075  10.889 -0.3103 -0.5403  0.2621
14271W        W30455   5.248   2.932   3.315  0.1064  0.0402 -0.1904
14272W        W30456   8.969   7.435  12.634  0.3435  0.2591  0.2444
14273W        W30457  18.790  12.513  15.195 -0.0368  0.2110 -0.2219
14274W        W30458   7.063  10.396  14.059  0.0762  0.2303 -0.2566
14275W        W30459  10.597   9.937   0.936 -0.3214  0.2452 -0.0668
14276W        W30460   6.991   3.484  11.580 -0.0624  0.3087 -0.4580
14277W        W30461   2.882  15.374  11.418  0.2319  0.3249 -0.0010
14278W        W30462  10.170  13.902   0.076  0.0835  0.0974 -0.0954
14279W        W30463  18.797  11.314   0.184 -0.0506 -0.2383 -0.1355
14280W        W30464  16.532   8.338  12.034  0.1939 -0.1027 -0.2383
14281W        W30465   5.287  11.429   4.873  0.2162  0.0224  0.0539
14282W        W30466   8.881  15.304   3.388 -0.0481 -0.2867  0.2050
14283W        W30467   6.735  11.322   3.032 -0.0609 -0.1292 -0.0264
14284W        W30468  16.851  15.118   4.329 -0.2217 -0.0192 -0.2191
14285W        W30469   6.331  16.784   2.864 -0.1926 -0.2296 -0.2791
14286W        W30470  15.924  13.740   1.947 -0.1675  0.1975  0.1037
14287W        W30471  13.030  17.693  12.141 -0.1153 -0.2003  0.4614
14288W        W30472   4.452   8.504   5.204  0.1065  0.0335  0.0224
14289W        W30473   5.836   7.641  12.878 -0.2468 -0.0738 -0.2789
14290W        W30474   1.019  12.915   3.095  0.1247  0.0368 -0.0184
14291W        W30475  12.288  17.921  12.832 -0.0982 -0.0749  0.0774
14292W        W30476  13.004   5.355   1.419 -0.2742  0.1188  0.0069
14293W        W30477   0.188  16.407  12.209 -0.2170 -0.0805 -0.2112
14294W        W30478   9.683  18.877   3.019  0.0937  0.3594 -0.0640
14295W        W30479  17.738   3.841  14.003  0.2582 -0.3588 -0.0052
14296W        W30480   8.661   2.425   2.843  0.0945  0.1591 -0.3522
14297W        W30481   9.473  12.147   5.091 -0.0314  0.1449  0.2529
14298W        W30482   4.673  11.888  14.020  0.0453  0.3044 -0.1855
14299W        W30483   4.258  17.258  13.479  0.2707 -0.2803  0.0514
14300W        W30484  18.912  16.486  14.747  0.0434 -0.0546  0.1255
14301W        W30485  10.720   9.466   3.831  0.1153 -0.2103 -0.0754
14302W        W30486   7.626   4.752  10.577 -0.0686 -0.1981  0.1920
14303W        W30487   2.105   7.298   1.396 -0.1343  0.3031  0.0875
14304W        W30488   7.303  15.839   0.214 -0.2596  0.0198  0.0100
14305W        W30489  18.152   5.418   0.321 -0.2511  0.0451 -0.3687
14306W        W30490  17.179   4.919   0.059 -0.3007  0.1646 -0.1830
14307W        W30491  11.951  15.786   3.391  0.1378 -0.2606  0.3195
14308W        W30492  13.978  10.481  10.672  0.2816  0.0432  0.1489
14309W        W30493   0.411  18.904   4.086  0.0392 -0.1069  0.0301
14310W        W30494   4.019  13.050   4.652  0.2010 -0.1353  0.0990
14311W        W30495   9.130   9.916   4.092 -0.1087  0.4052  0.0386
14312W        W30496  10.592   1.109  10.636 -0.1262 -0.0431  0.1163
14313W        W30497  17.900  18.635   9.777  0.1017 -0.1127  0.1835
14314W        W30498   4.826  18.857   4.488 -0.1629 -0.0221 -0.1638
14315W        W30499   9.905  15.208  10.030  0.0052  0.1827  0.0958
14316W        W30500   2.637   7.869   3.466  0.0009  0.0697 -0.0442
14317W        W30501  13.750   8.235   0.563  0.2159  0.0233 -0.0367
14318W        W30502   2.808   8.639   0.374  0.2985  0.0826  0.0287
14319W        W30503  14.672   0.684  14.160  0.0549  0.4355  0.1796
14320W        W30504   7.408  15.147   0.172 -0.1528 -0.0255 -0.1036
14321W        W30505   3.779  11.431   0.558  0.2747  0.1330  0.2141
14322W        W30506   4.971   3.102  10.550  0.0079 -0.0694  0.0624
14323W        W30507   7.896   1.150   4.785  0.1968  0.1397 -0.0950
14324W        W30508  11.119  14.163   1.810  0.1507 -0.0086 -0.0929
14325W        W30509  14.952   4.148   0.038  0.0665 -0.0132  0.4564
14326W        W30510   2.257  18.555   2.256  0.0576 -0.0718 -0.1150
14327W        W30511   3.957  16.441  11.436  0.0182  0.2057  0.1086
14328W        W30512   8.150   3.803   1.602  0.0838 -0.0741  0.1003
14329W        W30513  16.032  12.204  13.775 -0.2796 -0.1667  0.0618
14330W        W30514   5.923  11.042   2.469  0.0804  0.1766  0.1923
14331W        W30515   9.878   4.967  12.010 -0.1829  0.2243  0.2445
14332W        W30516  17.813   7.689   3.955  0.0993 -0.2188 -0.3953
14333W        W30517   5.615   7.448  11.773  0.2170  0.0076 -0.0172
14334W        W30518   8.189  10.839   4.716  0.0017 -0.0718  0.1434
14335W        W30519   6.520   6.733  14.713  0.3224  0.3117  0.0079
14336W        W30520   2.383   8.738   5.353 -0.0149  0.1101 -0.2043
14337W        W30521  12.738   9.758  11.616  0.0702 -0.1238  0.1840
14338W        W30522   4.604   9.852   0.008 -0.1505  0.1952 -0.1872
14339W        W30523   4.149   0.499   1.186  0.1845  0.5277  0.0122
14340W        W30524   1.375   5.428   4.680 -0.1775 -0.0828  0.1992
14341W        W30525  18.355   2.949   0.894 -0.0955 -0.0738  0.0818
14342W        W30526   4.354   3.145  14.776  0.1397  0.1335  0.0628
14343W        W30527   3.215  11.911   4.912 -0.0380 -0.0594 -0.5224
14344W        W30528  18.526  10.540  11.916  0.1134  0.0223  0.0101
14345W        W30529  13.361  16.134   5.240  0.0638  0.0133  0.1488
14346W        W30530   7.883  16.367  12.127  0.0638 -0.2424 -0.4997
14347W        W30531  18.553   2.257  14.364  0.1120  0.2617  0.1556
14348W        W30532  17.932  12.341  15.030  0.1346  0.4655  0.0852
14349W        W30533  14.930  15.604  11.713  0.0435 -0.0770  0.4135
14350W        W30534   3.532   2.711   1.733  0.2620  0.0812  0.1877
14351W        W30535  13.415  12.987  15.024  0.0672  0.4081 -0.0870
14352W        W30536   9.846  18.146  13.869 -0.0353 -0.1091  0.0393
14353W        W30537  16.259   2.655   2.453 -0.4783 -0.1277 -0.1834
14354W        W30538   1.464  10.151   2.023 -0.2678  0.0833 -0.2582
14355W        W30539   9.336   1.034   3.746 -0.1290 -0.2427  0.0219
14356W        W30540  10.473  10.496   3.571  0.1035 -0.2074  0.2621
14357W        W30541  11.040  12.840  14.305  0.1851  0.1761 -0.1063
14358W        W30542  13.686  17.197  12.039 -0.3796 -0.0332  0.1902
14359W        W30543   2.710   9.706   4.200  0.0274  0.1010 -0.1364
14360W        W30544   7.989  14.014  11.887 -0.1119  0.2135 -0.0876
14361W        W30545  10.602   9.179   0.986 -0.1005  0.1201  0.0815
14362W        W30546   7.995  16.035  12.613 -0.3495 -0.1171  0.0516
14363W        W30547   2.027  16.226   1.084  0.2946 -0.0018 -0.2530
14364W        W30548   5.156  11.158   2.074  0.0741  0.2105 -0.4934
14365W        W30549  12.802   2.188  13.086 -0.4870 -0.1479  0.1838
14366W        W30550  18.499  11.958   4.910  0.0049 -0.3951  0.4551
14367W        W30551   3.404  16.078  13.340  0.1315 -0.0264 -0.4099
14368W        W30552  15.152   7.994  14.911  0.1537  0.1443  0.2762
14369W        W30553   6.289   1.460   2.353 -0.0159 -0.2948 -0.0603
14370W        W30554   7.835  10.753   1.107  0.4694 -0.0679  0.0064
14371W        W30555  12.546   5.342  10.836  0.1882 -0.0034  0.0077
14372W        W30556   3.079  16.150  12.040  0.1011  0.1068 -0.1618
14373W        W30557  18.879   2.604  13.154  0.1518  0.1126 -0.1270
14374W        W30558   0.511  13.400  13.405 -0.3053 -0.2623  0.1679
14375W        W30559   9.640   2.475   2.655 -0.0162 -0.2119  0.0545
14376W        W30560  12.194   2.536  13.401 -0.2518 -0.0926  0.1283
14377W        W30561  16.258   2.986  15.302 -0.0255 -0.3638 -0.0510
14378W        W30562  12.448   4.648  11.672 -0.1873  0.0627  0.1667
14379W        W30563  10.889  17.419   4.741  0.2220  0.1360  0.0988
14380W        W30564  18.421  10.266   3.302  0.2419  0.0533 -0.2292
14381W        W30565  11.478   1.542   2.989  0.0374  0.2445  0.1173
14382W        W30566   8.898   0.160   3.479  0.0653 -0.1979  0.0570
14383W        W30567  15.156   1.135   3.574 -0.1198 -0.0090  0.0213
14384W        W30568  13.959   4.987   4.585  0.0864 -0.0370 -0.1884
14385W        W30569  15.756   4.080   1.298  0.5691  0.2648 -0.1542
14386W        W30570   7.220   9.341  14.580  0.1974 -0.0106 -0.0911
14387W        W30571   5.925   8.945   1.175  0.1901 -0.0889 -0.0749
14388W        W30572  11.384  13.925   2.372 -0.1081 -0.0428  0.2952
14389W        W30573  18.182   3.588  14.029  0.0339 -0.3175 -0.0876
14390W        W30574   3.516  12.646  14.108 -0.1011 -0.0688 -0.2408
14391W        W30575   9.922  17.252   3.861 -0.3193  0.3033 -0.2161
14392W        W30576   1.373   1.337  13.237 -0.2325  0.0838  0.1563
14393W        W30577   2.710   9.112  15.047 -0.1101  0.1375  0.2097
14394W        W30578  15.057   1.004   0.468  0.3320 -0.0331  0.0911
14395W        W30579   3.436   1.167  11.582 -0.1290 -0.2932  0.0683
14396W        W30580  15.413   6.978  10.508 -0.1875 -0.1177  0.0420
14397W        W30581  18.989   6.814   0.381 -0.0161 -0.1481  0.1703
14398W        W30582  17.611   5.323   3.064  0.0576  0.2042 -0.0335
14399W        W30583  13.841   4.719   3.266 -0.1510  0.4256  0.1198
14400W        W30584   4.654  16.935  12.004 -0.1369 -0.0362 -0.2267
14401W        W30585  16.840  10.447  14.165  0.0265 -0.3060  0.0931
14402W        W30586  16.308  13.733  11.973  0.2527 -0.1068  0.0523
14403W        W30587  18.647  10.048  13.278  0.0007 -0.0681 -0.3209
14404W        W30588   1.214   3.034  15.015  0.0394  0.0660 -0.1658
14405W        W30589  10.074  17.609  10.495  0.4375 -0.0429  0.4494
14406W        W30590  10.659  12.845  12.410  0.4764  0.0163 -0.0791
14407W        W30591  16.290  17.174   1.825 -0.0871 -0.0520  0.2479
14408W        W30592   3.606   1.003  13.566  0.3035  0.1547 -0.3979
14409W        W30593   7.327   1.390   2.533 -0.3721 -0.1120  0.2715
14410W        W30594  11.179   1.397  12.986 -0.1562 -0.2145 -0.4064
14411W        W30595   9.081  12.980  12.460  0.1794  0.0975 -0.1610
14412W        W30596  18.839   6.160  12.629  0.0585 -0.0464  0.0643
14413W        W30597   2.959  11.873   1.682 -0.0730  0.1486  0.1963
14414W        W30598  17.171  12.019   0.101 -0.1413  0.0697 -0.1024
14415W        W30599  17.563  14.770  15.338  0.3768 -0.2217  0.1847
14416W        W30600   1.133   1.606  12.851  0.0746  0.0220  0.0229
14417W        W30601   2.223  10.869   2.957  0.0627  0.2412 -0.0575
14418W        W30602  15.285   8.911  13.806 -0.3308 -0.1225  0.0378
14419W        W30603   6.640   3.746  13.605  0.0738  0.0664 -0.1185
14420W        W30604   8.834   2.702  13.235 -0.1603  0.0746 -0.2389
14421W        W30605  14.913  14.228   4.703 -0.1138  0.0031 -0.0417
14422W        W30606   2.444   7.193   4.756 -0.4144  0.1418 -0.0490
14423W        W30607   4.321   9.769   1.463 -0.0835  0.4063 -0.2252
14424W        W30608   1.996  11.281   2.292  0.0214  0.1592  0.1046
14425W        W30609  14.517   8.004  12.013 -0.0136  0.3422 -0.2836
14426W        W30610  15.654   7.320  10.858 -0.0008  0.1546 -0.0425
14427W        W30611  18.217   2.958   2.432 -0.4459  0.1449 -0.1145
14428W        W30612   5.394   3.961  13.553 -0.1409 -0.0730 -0.2363
14429W        W30613  15.472   5.130   4.022  0.4250 -0.0088 -0.0133
14430W        W30614   2.556   6.731   4.180 -0.1111  0.0442  0.1310
14431W        W30615   8.408  13.263  13.467 -0.1438  0.2119  0.0497
14432W        W30616  11.498   0.983   0.281 -0.0426  0.0371 -0.2500
14433W        W30617  18.932  15.088   2.510 -0.1122 -0.3039 -0.1676
14434W        W30618   7.502  18.596  11.515 -0.2899 -0.0093 -0.0619
14435W        W30619  11.624   6.630   3.078 -0.0642  0.1268  0.2601
14436W        W30620   6.059   5.420  10.568 -0.0425 -0.0979 -0.1129
14437W        W30621  15.361   5.785  11.960 -0.0688  0.0096 -0.3251
14438W        W30622  14.989  13.765   4.884  0.1327  0.0773  0.1966
14439W        W30623   0.342   7.885  14.148  0.0569  0.0985 -0.0015
14440W        W30624   6.154  15.774   1.693 -0.1447  0.2253 -0.2395
14441W        W30625   0.244  10.913   0.813  0.5344  0.0094  0.0410
14442W        W30626   5.787   2.820   3.571 -0.1249 -0.1471  0.2181
14443W        W30627   6.687  13.916   1.120 -0.1909  0.0418  0.1597
14444W        W30628  16.559   8.905   3.685  0.3698  0.1045 -0.1146
14445W        W30629  18.968   6.979  11.179 -0.0046 -0.1950 -0.1010
14446W        W30630   4.478  18.876  12.029  0.0509 -0.3521 -0.0866
14447W        W30631   4.688   6.849  13.314  0.0938 -0.0491  0.6609
14448W        W30632   6.930   2.360   2.834 -0.0188 -0.3603 -0.5042
14449W        W30633   5.523   2.186   4.292  0.2672  0.2033 -0.1666
14450W        W30634   0.546   4.313   5.505  0.0859  0.2054 -0.2396
14451W        W30635  12.923   9.353  11.431 -0.0265  0.0899  0.1211
14452W        W30636   3.613  13.720  13.361 -0.1658  0.1439  0.1943
14453W        W30637   2.865  12.133   3.053  0.4361 -0.0338  0.0228
14454W        W30638  11.902   3.449  14.631  0.0778  0.0626  0.2941
14455W        W30639   2.243   1.710  11.359  0.1858 -0.2812  0.1329
14456W        W30640   4.391   0.938   3.487  0.0447 -0.1760 -0.2660
14457W        W30641  17.263  10.653  13.982  0.3622  0.2406  0.0761
14458W        W30642  12.480   1.289  12.143 -0.0106 -0.0579 -0.1016
14459W        W30643  17.373   7.461  10.865  0.0964 -0.0330  0.0118
14460W        W30644  16.193  18.644   3.625 -0.3621 -0.3150 -0.0527
14461W        W30645  10.844  16.904  14.632  0.4095 -0.0506  0.1946
14462W        W30646  11.936   4.327   2.375  0.0540 -0.2340 -0.1879
14463W        W30647   2.716   6.015   1.899 -0.2200 -0.0668 -0.1919
14464W        W30648   3.940   2.852  14.985 -0.1131  0.1576 -0.0685
14465W        W30649   8.666  10.173  13.626  0.1961  0.0361 -0.2347
14466W        W30650   9.280   0.124   4.339  0.0092 -0.2520 -0.0590
14467W        W30651   0.282   8.052  12.330 -0.0765  0.4024  0.2377
14468W        W30652  14.967  12.403   2.782  0.1396  0.0933 -0.1747
14469W        W30653  12.236  14.862  15.022  0.1063 -0.4391 -0.1029
14470W        W30654   2.694   5.437  10.562  0.2457  0.1521 -0.3153
14471W        W30655   8.340  11.078   3.523 -0.3123  0.2874 -0.0189
14472W        W30656  16.467  11.997  12.921 -0.0578  0.0265 -0.2546
14473W        W30657  18.290  11.834   4.032 -0.1590  0.3225 -0.0053
14474W        W30658   4.430   1.166  14.363  0.0450 -0.1855  0.1568
14475W        W30659   1.411  14.103  14.474  0.0609  0.0456  0.0178
14476W        W30660   6.326   3.397  13.960  0.2040 -0.0513 -0.1331
14477W        W30661   5.824  11.861   3.763 -0.0150 -0.2508 -0.1004
14478W        W30662   4.296   3.920   4.967 -0.0849  0.3739  0.0223
14479W        W30663   2.797  11.165   0.979 -0.2824  0.0762 -0.0577
14480W        W30664   1.023   1.737  11.678  0.0824 -0.0445 -0.0954
14481W        W30665  17.921   1.578   3.869  0.1537  0.1037  0.4872
14482W        W30666   2.413  17.351  10.887 -0.2238 -0.2196 -0.0925
14483W        W30667   1.947   6.955  10.590  0.0664  0.0939 -0.0011
14484W        W30668   7.788   6.158  11.617  0.1479 -0.1202 -0.1523
14485W        W30669  12.651   7.292   1.411  0.1127 -0.1191  0.0263
14486W        W30670  12.306  16.958  11.937  0.1532 -0.0272 -0.5940
14487W        W30671  18.187  12.048   1.066 -0.0000 -0.1286  0.1909
14488W        W30672  18.877  12.774  11.279 -0.1475  0.0369  0.1571
14489W        W30673  13.223  17.886   2.602  0.0608 -0.0355  0.0621
14490W        W30674   3.372  18.769  12.123 -0.0443  0.3263 -0.1834
14491W        W30675   1.877   0.369  12.026  0.2367 -0.0378 -0.1256
14492W        W30676  11.138  15.391   3.575 -0.2222 -0.1821  0.0473
14493W        W30677   5.644   9.618   0.661  0.1129 -0.2869  0.0184
14494W        W30678  15.126   1.483   3.901  0.0796 -0.1793 -0.0870
14495W        W30679  12.057   3.802  13.085  0.1379 -0.0329  0.0550
14496W        W30680   8.419  16.072  14.313  0.1095  0.1898  0.0673
14497W        W30681   8.395   4.961  15.173 -0.1973 -0.0194 -0.1104
14498W        W30682  10.522   3.952   4.070 -0.0085 -0.0251 -0.3364
14499W        W30683   6.231  16.364   3.097 -0.1910 -0.0567  0.3076
14500W        W30684  10.689   6.976  15.079  0.1333 -0.3348  0.2915
14501W        W30685   2.849   2.777  11.923 -0.2124 -0.1651 -0.2148
14502W        W30686  17.692   2.717   5.705 -0.2790  0.2035 -0.0042
14503W        W30687  16.876   7.569   4.320 -0.3774  0.0320 -0.2375
14504W        W30688   5.432   3.371   3.454  0.1586  0.0734 -0.5216
14505W        W30689   5.785  14.452   1.023 -0.0046 -0.3105  0.0653
14506W        W30690  13.707  18.532   2.077  0.1215  0.0170 -0.0596
14507W        W30691   0.542  18.841   4.608 -0.1916  0.4639  0.1297
14508W        W30692   9.442  15.911  10.299 -0.2289  0.0022 -0.2139
14509W        W30693   4.717  13.289  15.036 -0.0804  0.0463 -0.3642
14510W        W30694  18.335  18.091   3.693 -0.0920 -0.0516  0.2492
14511W        W30695   7.667   5.289   2.506 -0.0966  0.2208 -0.0811
14512W        W30696   1.159  14.190   2.339 -0.0469 -0.2245 -0.1998
14513W        W30697  14.287  12.044  11.649 -0.1506 -0.0975 -0.2060
14514W        W30698   3.504   1.269   3.501  0.2987 -0.1547  0.0406
14515W        W30699  18.486  15.888   4.827  0.1097  0.1399  0.2657
14516W        W30700  18.658   6.769  14.083 -0.1430  0.1309  0.1601
14517W        W30701   1.463   8.757  12.050 -0.3211  0.0730  0.1575
14518W        W30702   7.896  16.831   5.224 -0.3095  0.0595 -0.0214
14519W        W30703  11.690   1.463  13.132  0.2811  0.2549  0.1516
14520W        W30704   8.047   4.891   4.114  0.1525 -0.1523 -0.1299
14521W        W30705   6.219  15.166   3.263  0.1475  0.1175 -0.2129
14522W        W30706   6.028  12.094  11.434  0.2379  0.0991  0.2641
14523W        W30707   5.681   9.586   1.475 -0.0978  0.3308  0.0733
14524W        W30708   8.928  13.509   4.383  0.1097  0.0668 -0.3541
14525W        W30709   4.472  16.896   1.429 -0.3216 -0.0307 -0.0136
14526W        W30710  16.916  15.714  11.932 -0.0981  0.0833 -0.1312
14527W        W30711  10.786   4.405  10.631 -0.0971 -0.1313  0.1837
14528W        W30712   0.653  11.851  10.742  0.3224 -0.0851 -0.0915
14529W        W30713   9.652  15.473  10.370 -0.2804 -0.0054 -0.0602
14530W        W30714  16.795  10.770  14.642 -0.3681  0.0203  0.1884
14531W        W30715   4.242  18.766   1.547  0.1700  0.0603  0.0237
14532W        W30716   6.000   0.305  13.597  0.0443  0.0862  0.0361
14533W        W30717  11.197   8.073  14.009  0.2388  0.1935  0.0992
14534W        W30718  10.789   5.620  13.175  0.0469  0.3262 -0.2983
14535W        W30719  11.382   7.724   0.117  0.0097  0.2278  0.5114
14536W        W30720   2.117   5.135  14.720  0.0847  0.0845 -0.2579
14537W        W30721   1.140  18.456  15.245 -0.0103 -0.0406 -0.2305
14538W        W30722   6.199  12.515   1.265  0.0137 -0.0124 -0.0965
14539W        W30723  15.598   9.378  11.913 -0.0370  0.0726  0.0239
14540W        W30724   6.886   2.086  13.359  0.2474  0.0322  0.1139
14541W        W30725  17.144  18.391  15.177  0.0121  0.3921 -0.1344
14542W        W30726   3.396  17.576   2.059 -0.0475 -0.0709  0.0199
14543W        W30727   6.501  17.031   4.511  0.3367  0.0951  0.0630
14544W        W30728   0.930   0.396   0.473  0.0599  0.1656  0.1913
14545W        W30729   2.023   3.428  14.811 -0.0633  0.1003  0.0450
14546W        W30730   5.328  15.199  13.573 -0.1313  0.1120 -0.2433
14547W        W30731   6.792  12.136   1.832  0.2156 -0.6146 -0.3484
14548W        W30732   1.754  15.510   5.041  0.1227  0.1494  0.2295
14549W        W30733  18.743   8.123   0.464 -0.0569  0.0564 -0.2050
14550W        W30734  14.149  11.364   0.129  0.1411  0.0077 -0.3402
14551W        W30735  10.380   2.987   2.879 -0.3216  0.1634 -0.1606
14552W        W30736   8.583  13.553   4.807 -0.0923  0.0962 -0.0397
14553W        W30737   5.905  17.209   2.936  0.0633  0.1667 -0.1520
14554W        W30738  12.019  12.672  10.637 -0.2797  0.1643  0.0511
14555W        W30739  10.303  17.637   4.651  0.0273  0.2272  0.1852
14556W        W30740   3.433   8.575   0.301 -0.0342  0.0179 -0.1689
14557W        W30741  11.117   0.908   1.781  0.3155  0.1711 -0.0352
14558W        W30742  17.431  11.765  13.620 -0.2513 -0.1008  0.0402
14559W        W30743  14.952   1.681   2.953 -0.0759 -0.0987 -0.3047
14560W        W30744   8.779  14.111  13.547 -0.3380  0.2306  0.1767
14561W        W30745   1.792   3.096   0.216  0.2043  0.0696  0.1294
14562W        W30746  11.376   8.016  11.709  0.2411  0.2939  0.0293
14563W        W30747   9.928   3.718   0.139  0.0695  0.1662  0.0700
14564W        W30748  11.283   3.662  14.558  0.0374  0.2299  0.2911
14565W        W30749   9.493   2.327  10.795 -0.0337  0.0301  0.1003
14566W        W30750  12.820  16.385  11.793  0.0263  0.3725 -0.1659
14567W        W30751  18.744   6.052   2.826 -0.3407 -0.0144 -0.3949
14568W        W30752   8.660   6.197  13.589  0.0113  0.1290 -0.2201
14569W        W30753   5.906  14.917  12.850 -0.0324 -0.3693 -0.2766
14570W        W30754   6.490   8.864  13.194 -0.1301  0.3499 -0.0613
14571W        W30755  17.183   8.064  15.364 -0.1757  0.1753  0.2950
14572W        W30756   5.286  11.764   4.257 -0.1702  0.0471  0.0558
14573W        W30757  10.709  11.024  11.908 -0.0284 -0.1669  0.1219
14574W        W30758   3.472   9.786   2.352 -0.0272 -0.1048  0.1700
14575W        W30759  16.684   7.086  10.499  0.0134  0.0142  0.1481
14576W        W30760  12.154   4.200  11.578  0.0822  0.0524 -0.3296
14577W        W30761   0.898  11.663  11.827 -0.1757 -0.1428  0.2423
14578W        W30762   5.953  18.581  14.305 -0.2616  0.1976  0.2620
14579W        W30763  13.951  13.090  11.801  0.1923  0.2582 -0.2736
14580W        W30764   6.166   6.620  12.280  0.2070  0.0739  0.1268
14581W        W30765  17.669   7.653   4.483  0.1523 -0.7211 -0.0015
14582W        W30766   7.633  10.604   3.125  0.3533  0.0661 -0.3320
14583W        W30767   7.478   0.490   3.449  0.0188  0.0879 -0.1690
14584W        W30768   5.493  17.451  12.321 -0.1462  0.0442  0.1725
14585W        W30769   7.998   6.146   2.649 -0.1034  0.2622  0.0161
14586W        W30770   4.237  13.759   1.630 -0.3093  0.1301 -0.2319
14587W        W30771  13.623   0.082  15.190 -0.0202  0.2175 -0.0160
14588W        W30772   8.851   0.933  11.400  0.1071 -0.2418  0.0291
14589W        W30773  13.437  14.174   3.501 -0.1367 -0.1223  0.1618
14590W        W30774   5.498   6.303   5.550  0.0384  0.1155 -0.0842
14591W        W30775  12.051  18.393   4.223  0.2112  0.3167 -0.2108
14592W        W30776   7.763  12.811   0.440  0.0781  0.0435  0.1783
14593W        W30777   8.641   6.949   4.394  0.0592  0.1173 -0.0312
14594W        W30778   0.032  12.018  10.959 -0.1171 -0.2624  0.0799
14595W        W30779  18.680  18.816   2.522  0.1349 -0.0171  0.0380
14596W        W30780  10.233  15.472  10.419 -0.1395 -0.0369  0.3448
14597W        W30781   4.703   5.053   0.159  0.0195  0.0660  0.1492
14598W        W30782  12.722  10.683  12.004  0.2403  0.4176  0.3006
14599W        W30783   2.534  13.082   5.239 -0.0529  0.2101  0.2183
14600W        W30784  16.871  17.937  12.328 -0.1788  0.3268  0.2344
14601W        W30785   9.401  17.491   3.030 -0.2236  0.0040 -0.0285
14602W        W30786   7.069   3.001  14.371  0.2871  0.2550 -0.1013
14603W        W30787  11.528  13.844   2.798  0.0174 -0.3628  0.1686
14604W        W30788  13.702  12.994   1.477  0.1937  0.0219  0.0995
14605W        W30789  11.916   3.414   0.259  0.3346 -0.0887  0.3520
14606W        W30790   0.824  14.217  14.468  0.0736 -0.0498  0.1605
14607W        W30791  12.022   8.114  14.816  0.2550 -0.1552  0.1101
14608W        W30792  13.002  13.527   3.583  0.0464 -0.1034  0.3534
14609W        W30793   4.291   6.699  14.717  0.0761  0.0286 -0.0729
14610W        W30794   6.820   6.975  10.216 -0.2567 -0.0986 -0.2072
14611W        W30795   4.010  11.293   2.787 -0.1330 -0.2318  0.0266
14612W        W30796   8.671   7.505   5.065 -0.0872 -0.0644 -0.0555
14613W        W30797   4.153   7.394   1.031 -0.2671 -0.0748  0.2792
14614W        W30798   2.961  17.372  13.741  0.1566  0.1079  0.2385
14615W        W30799   0.888  14.937   2.066  0.0215 -0.1293 -0.0251
14616W        W30800  12.180  10.345  14.848  0.2467 -0.0130  0.0902
14617W        W30801   0.091   8.612   2.992  0.0992 -0.2979  0.2513
14618W        W30802   6.879   0.704   0.643 -0.1451  0.3706  0.2069
14619W        W30803   9.598  10.067   0.662 -0.0161  0.1448  0.0119
14620W        W30804   8.741  10.184   0.018  0.0983 -0.1284  0.0476
14621W        W30805  12.694   9.267  11.939  0.2325  0.0641  0.2118
14622W        W30806  12.084  10.545   3.537  0.0845 -0.4128 -0.2203
14623W        W30807  18.906   6.376   3.966 -0.1684 -0.3744  0.1030
14624W        W30808  17.771   9.153  12.628 -0.0426  0.6077 -0.1259
14625W        W30809  13.266   0.561  10.364 -0.0802  0.0880 -0.0055
14626W        W30810   5.256   1.464   2.223 -0.3001 -0.2881  0.1269
14627W        W30811   6.745   4.381  15.233 -0.1909  0.0231  0.1585
14628W        W30812  15.901   3.339  11.119 -0.3448  0.0213 -0.1363
14629W        W30813  14.124   9.869   1.302 -0.2360 -0.0734  0.2525
14630W        W30814  17.827  11.279   4.537 -0.1401  0.1018 -0.1348
14631W        W30815  13.166   9.100   4.827 -0.0284  0.1435 -0.0705
14632W        W30816   7.421  14.428   1.183 -0.0108  0.0181  0.1923
14633W        W30817   6.921   6.257   4.170 -0.1369 -0.2778 -0.0302
14634W        W30818  11.389   0.841   2.280  0.2813 -0.0914  0.0675
14635W        W30819   2.147   9.788   5.227  0.2642 -0.2603 -0.0219
14636W        W30820   8.488  12.442   9.915  0.0870 -0.0216 -0.1714
14637W        W30821  17.700   7.681  14.283  0.3430 -0.1031  0.1123
14638W        W30822  11.493   4.262   4.441  0.2228  0.0531 -0.1701
14639W        W30823   4.924  10.830   2.408 -0.3241 -0.2356  0.1050
14640W        W30824  14.861   5.066   4.574 -0.1248  0.2461 -0.3131
14641W        W30825  13.167  11.323   3.017 -0.1961 -0.1266 -0.0057
14642W        W30826   9.139   8.665   1.379 -0.1337  0.0312 -0.1790
14643W        W30827   3.186  17.234  14.287 -0.0784  0.1400  0.0676
14644W        W30828  16.968  12.174   9.854 -0.1660 -0.1332  0.0658
14645W        W30829  13.557   0.433  13.761  0.1153 -0.1840  0.2084
14646W        W30830  10.817   4.192  11.082  0.0033  0.3743  0.0692
14647W        W30831   6.554   1.103  14.631 -0.1553  0.0634 -0.1268
14648W        W30832   7.482  18.439   3.121  0.0667 -0.2972  0.3241
14649W        W30833  14.553   2.845   3.856  0.0791 -0.1462 -0.1094
14650W        W30834   4.321   3.057  12.810 -0.4108 -0.1953  0.0709
14651W        W30835  16.753  17.501   0.590  0.0760 -0.0293 -0.4075
14652W        W30836   8.593   7.777   1.896  0.1776 -0.0505 -0.1847
14653W        W30837   4.234  10.304  14.464 -0.0465 -0.0113  0.2491
14654W        W30838  17.192   3.281  12.087  0.1282  0.1383  0.1603
14655W        W30839   2.111   5.744  11.675 -0.1464  0.0060  0.2892
14656W        W30840   1.677  18.094   3.333 -0.0490 -0.1376  0.0792
14657W        W30841   5.318  17.682   5.384 -0.2010  0.2207 -0.2393
14658W        W30842  13.807   3.484  12.091 -0.1539  0.2625 -0.6944
14659W        W30843   0.144   2.117  12.225 -0.4440  0.0130 -0.2911
14660W        W30844  18.544   9.888  13.733  0.0444  0.1387  0.1827
14661W        W30845   2.994   1.210  11.346 -0.1905  0.2619 -0.1283
14662W        W30846   4.656  13.798  10.975  0.1408 -0.0136  0.0711
14663W        W30847   7.090   1.183   0.086  0.0811 -0.1396 -0.3407
14664W        W30848  12.041  12.210   0.360  0.2969 -0.0850 -0.1791
14665W        W30849  17.707  18.951  13.209  0.3768  0.1139  0.0750
14666W        W30850   0.572   6.938   3.867 -0.0530  0.3469  0.3180
14667W        W30851  13.918   5.993   4.259 -0.0222 -0.1377  0.1274
14668W        W30852   9.352   7.974  14.771 -0.2988  0.0022  0.0821
14669W        W30853   6.321  17.848   3.979  0.1082  0.2022 -0.0742
14670W        W30854  12.827  13.502   1.269  0.1842 -0.0224  0.0044
14671W        W30855   3.493  14.870  11.848  0.1942  0.5506  0.2803
14672W        W30856  13.865   0.276   3.264  0.0406 -0.1273  0.2538
14673W        W30857   8.511  17.506   2.990  0.0517 -0.0056 -0.2556
14674W        W30858  13.609  14.892  12.555  0.1043  0.2690 -0.0062
14675W        W30859   5.176   6.106   0.305  0.2060  0.0430 -0.2646
14676W        W30860  18.453  16.858  11.307  0.0866  0.1936 -0.0280
14677W        W30861  15.434  13.283   6.003 -0.1479 -0.1143  0.0627
14678W        W30862   4.431   4.799   6.240 -0.0577  0.0101 -0.3212
14679W        W30863  11.495   2.562   3.151 -0.0673 -0.2889  0.1663
14680W        W30864  11.511   1.637  14.497  0.2470  0.0133  0.1965
14681W        W30865   4.035   2.280  13.669  0.1099 -0.0683  0.0786
14682W        W30866  17.173   7.726  13.506 -0.2884 -0.0980 -0.0019
14683W        W30867  11.644   7.171   1.237  0.0250  0.2101  0.2759
14684W        W30868   6.107  18.331   3.807  0.2012 -0.2928  0.0156
14685W        W30869  15.458   1.998  13.048 -0.1128  0.1599  0.1676
14686W        W30870   9.301  14.607  14.385  0.3221 -0.1437  0.1077
14687W        W30871   2.020  10.538  11.134  0.3204 -0.0315  0.2711
14688W        W30872   5.069   8.106  11.540 -0.1829  0.1548  0.0578
14689W        W30873  18.682  18.049   9.891 -0.0517  0.3834  0.2907
14690W        W30874  11.900  16.451  11.320 -0.0518  0.0249 -0.3436
14691W        W30875  15.867   2.428   2.168  0.0092  0.3030 -0.0039
14692W        W30876   3.490   7.628   5.521 -0.1662 -0.0227  0.0789
14693W        W30877   7.439  15.340  14.021  0.3124  0.0134  0.0069
14694W        W30878   8.879  18.275  13.848 -0.2011 -0.0987  0.1329
14695W        W30879  12.638   8.458   0.695  0.0827 -0.0916 -0.0124
14696W        W30880   9.365  16.697   0.899 -0.1650  0.1722  0.1048
14697W        W30881  13.398  18.130   3.961  0.1897 -0.2156  0.3057
14698W        W30882  13.567   2.954   4.066 -0.2025  0.1172  0.1564
14699W        W30883   4.345   6.137   4.872 -0.2903  0.3416  0.1987
14700W        W30884   3.981   9.878  11.007 -0.0625 -0.2683  0.0044
14701W        W30885   0.359  13.013  11.446  0.2437  0.0141 -0.1375
14702W        W30886  13.442  17.068   2.080 -0.1104 -0.0741 -0.0807
14703W        W30887   1.079   3.349  11.174 -0.0550  0.0936 -0.0561
14704W        W30888  13.179   8.196  12.288  0.1988  0.0339 -0.0088
14705W        W30889   0.673  13.692  15.153  0.1970 -0.2374 -0.0546
14706W        W30890   0.224   2.896  14.419  0.1632  0.3085 -0.2962
14707W        W30891  18.883  10.934   9.705  0.1543 -0.2138 -0.1705
14708W        W30892  16.528   3.323   0.225  0.0038  0.1753 -0.1532
14709W        W30893  10.116   1.785  12.179 -0.1306  0.2121 -0.0651
14710W        W30894   0.575   3.826  12.353 -0.1703  0.1195 -0.1470
14711W        W30895   0.247   9.345  10.312 -0.0235  0.0377  0.2408
14712W        W30896   7.539   9.720  11.839  0.1500 -0.1362 -0.0374
14713W        W30897  10.286  17.887   2.343 -0.1543  0.1520 -0.0808
14714W        W30898  11.976  13.853  12.192  0.1682  0.1810  0.0948
14715W        W30899  14.124  17.376   1.587 -0.2704 -0.1568 -0.0649
14716W        W30900  15.522  13.037  11.328  0.2319  0.1392 -0.1361
14717W        W30901   7.011   1.724   3.406 -0.1382 -0.1392 -0.0937
14718W        W30902   3.332   6.728   5.242 -0.1358 -0.3192  0.3671
14719W        W30903   6.341   1.652   2.840  0.0913 -0.0697 -0.0728
14720W        W30904   6.237   9.444   0.317 -0.0934 -0.3062 -0.1919
14721W        W30905  17.014  15.508  12.427 -0.0004  0.4196  0.2366
14722W        W30906  17.537   9.265   2.184  0.0848  0.0569 -0.1156
14723W        W30907   0.973  11.219   2.621  0.1704  0.4096 -0.3609
14724W        W30908   7.273  17.178  12.062  0.2603  0.0524 -0.1285
14725W        W30909  11.213  11.891   2.181  0.3932 -0.0192  0.0871
14726W        W30910  12.336  10.876  10.474 -0.3376  0.0414  0.1853
14727W        W30911  13.055   3.618   3.034 -0.0887 -0.0319 -0.1881
14728W        W30912  15.578   0.125  14.181  0.0880 -0.2255 -0.2542
14729W        W30913   0.593   2.460  14.133 -0.5052  0.0615  0.0385
14730W        W30914   3.066  14.644  12.204 -0.0791  0.0940 -0.3280
14731W        W30915   8.760  12.967   3.650 -0.0313  0.1024  0.1061
14732W        W30916   1.995   0.294   3.665 -0.1669  0.2562  0.2017
14733W        W30917   1.291  10.519   0.607  0.1010  0.0307  0.3035
14734W        W30918  14.815  14.679  13.648 -0.1849 -0.3791  0.2570
14735W        W30919  11.704  11.786   5.024  0.1115 -0.0448  0.0681
14736W        W30920   6.644   6.876  11.990 -0.1436  0.0425 -0.2332
14737W        W30921  12.081  17.148   2.279 -0.0806 -0.3719  0.1138
14738W        W30922   6.298  11.641   4.016 -0.0207 -0.0820  0.1147
14739W        W30923  16.950   5.474   1.783 -0.0847  0.1322  0.1476
14740W        W30924   1.611   1.031   0.601  0.1588  0.0279 -0.1147
14741W        W30925  13.856  13.720   1.943  0.1682  0.0580 -0.1083
14742W        W30926   9.483   6.762  12.699 -0.2882 -0.0966 -0.1735
14743W        W30927  16.749   7.880  12.003 -0.0566  0.0713 -0.2194
14744W        W30928  14.814   7.185  13.240 -0.2298 -0.2853 -0.2978
14745W        W30929   8.477  11.878  14.042 -0.3328  0.0075 -0.4162
14746W        W30930   0.250   5.488   3.819  0.3081  0.1543 -0.1068
14747W        W30931   4.563   8.930  11.329  0.1019 -0.4195  0.1185
14748W        W30932  10.522  15.516   1.497 -0.1368  0.4509  0.3641
14749W        W30933   5.695   4.220   0.032  0.1080 -0.2246  0.1563
14750W        W30934   5.615   0.149   5.350  0.1055  0.0400 -0.1376
14751W        W30935   7.031   1.972   3.859  0.1836  0.2258 -0.1708
14752W        W30936   9.404   8.316  11.291  0.2222 -0.1832  0.0165
14753W        W30937   3.644  16.109   4.621 -0.1534 -0.1133 -0.4679
14754W        W30938   8.217   3.203   5.509 -0.3181  0.0295 -0.1266
14755W        W30939  11.222   7.456   1.386  0.0318  0.0497 -0.1467
14756W        W30940  10.483   0.533  15.142 -0.0517  0.1790  0.3153
14757W        W30941  18.833   4.473   4.092  0.0512  0.3277  0.1444
14758W        W30942   8.815   7.248  12.016  0.2204 -0.1095  0.0108
14759W        W30943  12.102   6.740  13.451  0.2724 -0.3022 -0.1754
14760W        W30944   8.623   1.586  14.525 -0.4324 -0.0422  0.5078
14761W        W30945   2.257   7.794  10.697 -0.1056 -0.1418  0.0230
14762W        W30946  17.744  18.518  14.243 -0.0273  0.1272 -0.1130
14763W        W30947  16.851   0.464   1.799  0.2506 -0.2833  0.0822
14764W        W30948   4.840  17.082   1.707 -0.0803 -0.1858 -0.0976
14765W        W30949   0.160   9.413  10.840 -0.0833 -0.1227  0.1607
14766W        W30950   8.893   0.503   2.944 -0.0217  0.0731  0.0191
14767W        W30951   7.615   0.551   2.774  0.1303  0.2591  0.0215
14768W        W30952   4.936   9.243  12.458  0.2519  0.0420  0.3697
14769W        W30953  15.359   1.008   1.555 -0.2493  0.0641 -0.2435
14770W        W30954  19.000  10.937  13.194  0.0970 -0.3419 -0.1275
14771W        W30955  10.683   2.159  14.002 -0.2965 -0.0158  0.2268
14772W        W30956  15.357   2.622   3.453 -0.0424 -0.1956 -0.3034
14773W        W30957  16.970   4.718   4.092 -0.0460  0.0562 -0.0811
14774W        W30958  18.833   1.109  13.692  0.1267 -0.2605 -0.0398
14775W        W30959   5.536   5.745   2.642 -0.0953  0.0466  0.0814
14776W        W30960  16.292  15.019  14.772  0.1541  0.0920  0.0718
14777W        W30961   0.621  16.234   0.549 -0.0020 -0.0915  0.2543
14778W        W30962   3.510  12.009   2.374 -0.1798 -0.1481 -0.1687
14779W        W30963   6.173   2.934  14.949 -0.0642 -0.4143 -0.0901
14780W        W30964   3.285   2.525  12.538 -0.2592  0.0084  0.2889
14781W        W30965  15.724   4.205  13.943  0.1754  0.3796 -0.1916
14782W        W30966   6.631  16.522  11.176  0.0602 -0.0327  0.1478
14783W        W30967  18.287   5.105  11.271 -0.2185  0.2154 -0.0003
14784W        W30968   0.593   6.351   2.297 -0.1700  0.1991 -0.2946
14785W        W30969   6.876   0.463  12.161 -0.2687  0.2561  0.0600
14786W        W30970   5.995   9.145   1.673 -0.2840 -0.1663  0.1393
14787W        W30971  17.148  12.966  13.966  0.0947 -0.0065 -0.2349
14788W        W30972   0.777  15.177  14.160 -0.1245  0.1932 -0.0682
14789W        W30973   4.282   8.122  10.916  0.1752 -0.1074 -0.0417
14790W        W30974   9.791  11.312   4.039 -0.0975 -0.0583 -0.3488
14791W        W30975   7.787   9.781   2.618 -0.0499  0.2059 -0.0529
14792W        W30976   5.096   9.097   5.165  0.0209 -0.3267 -0.0396
14793W        W30977  13.361  16.070  12.075  0.2741  0.1358 -0.0610
14794W        W30978  15.222  13.307   0.373 -0.2561  0.0657  0.1214
14795W        W30979   8.123  16.638   0.300 -0.3965  0.3905  0.2342
14796W        W30980  15.258  11.057  13.344 -0.2884 -0.0125 -0.3238
14797W        W30981   3.861   6.551   4.065 -0.0977 -0.2869  0.1864
14798W        W30982  11.388   2.133   3.788 -0.0025 -0.3192  0.0205
14799W        W30983   8.647  12.499  13.494  0.3151 -0.3379 -0.0873
14800W        W30984   1.985   4.498   1.638 -0.0799 -0.3141  0.2427
14801W        W30985   1.669   5.243   3.635  0.0058 -0.0330  0.3177
14802W        W30986  17.172  17.866  14.072 -0.2013  0.1330  0.0097
14803W        W30987   9.170  11.919  12.422 -0.1770 -0.2453 -0.0903
14804W        W30988   6.091   7.973  11.062 -0.3337  0.1731  0.2294
14805W        W30989   7.773  15.159   4.532 -0.0010  0.1816 -0.0385
14806W        W30990  11.431  17.649   2.729  0.0521 -0.1218  0.0177
14807W        W30991  17.927  14.253  15.334  0.3328 -0.1008 -0.0430
14808W        W30992   1.131   4.307  14.464  0.1216  0.1944 -0.0206
14809W        W30993   2.813   1.345   1.730  0.2392  0.1710  0.2914
14810W        W30994   7.411  12.332  13.737 -0.0432  0.3473 -0.1126
14811W        W30995  10.485  11.611   2.999 -0.2525 -0.0195  0.0327
14812W        W30996   4.706   8.107   1.665 -0.0814 -0.0108 -0.2043
14813W        W30997   4.505   6.252  14.546 -0.0143  0.1321  0.0008
14814W        W30998  17.341   7.048  14.073  0.3225  0.1442  0.0787
14815W        W30999  11.916  10.479   5.129  0.0011 -0.2064 -0.0572
14816W        W31000  11.508   8.950  12.200 -0.3359  0.1942 -0.0532
14817W        W31001   9.699  16.787  12.678 -0.0991  0.0806 -0.0454
14818W        W31002   1.916   8.509  12.055 -0.1945  0.1055  0.2430
14819W        W31003  16.659   0.294   4.197  0.0711  0.0013 -0.1428
14820W        W31004   0.123  19.000  12.962 -0.0838 -0.0185  0.1724
14821W        W31005  16.765  11.677   0.186 -0.0138 -0.0007  0.1950
14822W        W31006   2.691  14.438  13.821  0.0015 -0.3610  0.0519
14823W        W31007   8.070   5.147   5.733  0.0910  0.0112  0.1011
14824W        W31008   6.919   7.138   2.061  0.3165 -0.0986  0.2659
14825W        W31009   7.214   6.942   2.672  0.0057  0.0139 -0.1001
14826W        W31010  15.646   0.098  10.033 -0.0202  0.0510 -0.4425
14827W        W31011  13.121   5.751  13.203 -0.4081  0.0678  0.0981
14828W        W31012   2.230  12.226  12.361  0.0384 -0.2752 -0.2408
14829W        W31013   6.490   1.516   0.975 -0.0592 -0.0789  0.1747
14830W        W31014  18.066  12.007  15.369 -0.1622  0.0233 -0.0920
14831W        W31015   1.341  14.028   0.073 -0.2531  0.0914  0.0607
14832W        W31016   7.865  14.582  12.196 -0.0035 -0.0983  0.1794
14833W        W31017   8.666   3.103   5.245  0.0373  0.0745  0.1350
14834W        W31018   0.294   6.005   4.806  0.3727 -0.2185 -0.0956
14835W        W31019   7.849  12.501  13.917  0.0282 -0.1034  0.0449
14836W        W31020  17.640   6.496  10.608  0.2346 -0.1539  0.3900
14837W        W31021  12.883  11.565   2.460 -0.0408  0.3256 -0.0416
14838W        W31022   0.531  17.142  14.263  0.0621  0.0945 -0.1702
14839W        W31023   6.898   1.935  10.907 -0.1428 -0.0007 -0.0095
14840W        W31024   0.832   3.785  11.416 -0.1314  0.3616  0.1518
14841W        W31025  14.340   5.074   2.514 -0.1349 -0.1267 -0.3601
14842W        W31026   4.916  10.180   5.094  0.3088 -0.1485  0.2784
14843W        W31027   9.826  18.038  10.562 -0.1947  0.0589 -0.4149
14844W        W31028   6.180  14.299  14.872 -0.0202  0.0819  0.1282
14845W        W31029  10.030  14.624   2.387  0.2357  0.0497 -0.1262
14846W        W31030  11.638  16.268   2.654  0.2090 -0.0832 -0.1222
14847W        W31031   6.560   8.556  12.597  0.0959 -0.5909 -0.0693
14848W        W31032  13.512   7.916   2.370  0.0577  0.2794 -0.0174
14849W        W31033   1.053   7.247   4.095 -0.1481 -0.1266 -0.1218
14850W        W31034  13.326   3.992  15.329 -0.2140 -0.3640  0.2441
14851W        W31035   0.933  13.433   1.783  0.0364 -0.0302 -0.2547
14852W        W31036   3.269  13.215  12.438  0.2085  0.1339  0.1255
14853W        W31037   0.307   4.180  14.103 -0.2179 -0.3054 -0.0673
14854W        W31038   1.158  17.153  11.204  0.0330 -0.2796 -0.2775
14855W        W31039  15.932   2.089  12.784 -0.0179 -0.0482  0.1498
14856W        W31040  17.294   4.868   3.283  0.2106 -0.1650  0.0549
14857W        W31041   4.072   2.793  13.935 -0.2490  0.1742  0.0610
14858W        W31042   8.532   1.057  11.771 -0.0515  0.1219  0.2507
14859W        W31043   7.014  18.498  15.243 -0.0620 -0.1015 -0.0747
14860W        W31044   1.427  18.507  12.590 -0.1744 -0.3111 -0.1310
14861W        W31045   0.275  18.405  11.583 -0.0665  0.1003  0.0682
14862W        W31046   8.500   2.334  12.804  0.0381 -0.2340  0.2691
14863W        W31047   9.446   2.475   5.250  0.5570  0.0076 -0.0939
14864W        W31048   2.298  15.202   2.795  0.0120 -0.1523  0.0765
14865W        W31049   3.841   3.677  13.798 -0.2419  0.3185 -0.0052
14866W        W31050  14.284   0.635   9.883 -0.2413  0.4236  0.1164
14867W        W31051   1.002   7.547  11.701  0.4301 -0.0853 -0.1201
14868W        W31052  14.105  11.299   1.401 -0.2651 -0.2297  0.0606
14869W        W31053   9.955  18.736  13.406 -0.3120 -0.0890 -0.0454
14870W        W31054   2.232   9.380  14.205  0.1797  0.4411  0.1911
14871W        W31055   4.913   7.587   0.772 -0.0737 -0.1929 -0.2023
14872W        W31056   2.963  12.552  13.867  0.0920 -0.1864 -0.0463
14873W        W31057  12.444   1.468  14.220 -0.0508  0.2259  0.1337
14874W        W31058  17.702   9.856  12.226  0.0967  0.2683 -0.2830
14875W        W31059  15.205   9.394   2.411  0.2055  0.2503 -0.0691
14876W        W31060   7.121   7.322  11.521  0.0762  0.1640 -0.0911
14877W        W31061   5.824  14.376   4.203 -0.0721  0.1310  0.1370
14878W        W31062  11.825  11.431  12.678 -0.1214 -0.4360 -0.3399
14879W        W31063   3.956   3.774   4.591  0.1242  0.0779 -0.1602
14880W        W31064  14.104  13.909  13.580  0.2856 -0.0571  0.2014
14881W        W31065   8.399  18.750  14.184 -0.1775 -0.1491 -0.0761
14882W        W31066   3.789   7.853   5.852  0.2475 -0.1228  0.0786
14883W        W31067   8.792   6.471   2.530  0.1648 -0.0705 -0.1020
14884W        W31068  14.116   8.457  13.540  0.2289  0.0941 -0.1881
14885W        W31069   9.853   1.888   0.695 -0.3371  0.5228  0.2050
14886W        W31070  16.539   2.319  11.421 -0.0380  0.0581 -0.1124
14887W        W31071   2.723  14.488  13.272  0.2633  0.2609 -0.0714
14888W        W31072  12.413   4.187  11.984 -0.0062 -0.2220  0.0725
14889W        W31073  11.065  16.264  13.463  0.3072 -0.3395  0.1511
14890W        W31074  11.618   6.085  14.718  0.0545  0.0167 -0.1324
14891W        W31075  16.211  18.355   0.161  0.3853 -0.2422 -0.0943
14892W        W31076   6.117   4.620   2.391  0.0884 -0.4311 -0.4584
14893W        W31077   4.843   3.150  15.156 -0.0207  0.0151 -0.1010
14894W        W31078   1.619  10.990  12.975 -0.0259  0.0014  0.0400
14895W        W31079   9.584  18.076   2.858 -0.3294 -0.2464  0.0923
14896W        W31080   5.898   2.184   2.052  0.4716 -0.0088  0.1094
14897W        W31081  16.717  12.673   0.423  0.3106 -0.1642  0.0370
14898W        W31082   0.071   1.031   4.853 -0.0138  0.1113  0.0688
14899W        W31083  11.391  13.864   0.729  0.0642 -0.2341  0.3410
14900W        W31084   0.469   6.146   0.853  0.2333  0.1939 -0.0202
14901W        W31085  16.250  15.024  12.855 -0.3273 -0.4939  0.1474
14902W        W31086  15.867  14.784   4.241 -0.1085  0.0176  0.2876
14903W        W31087  12.458  16.984  12.501 -0.3381 -0.0100 -0.1943
14904W        W31088   6.469   7.626  12.064 -0.1660  0.0722 -0.2027
14905W        W31089  17.058  14.664  15.250  0.4818 -0.1737  0.0707
14906W        W31090  15.312  17.935  12.460 -0.2210  0.1297  0.0635
14907W        W31091  13.400  13.398   3.980 -0.1390  0.0830  0.0391
14908W        W31092  14.746  14.814   4.025 -0.0972 -0.2425 -0.1129
14909W        W31093   6.345   5.231   3.775 -0.0511 -0.2804 -0.4164
14910W        W31094   6.936  11.206   2.557  0.0923  0.1841 -0.1575
14911W        W31095   5.084  13.793  11.202 -0.1588  0.1702 -0.0038
14912W        W31096   3.547   5.432  14.051 -0.2022  0.1697  0.4302
14913W        W31097  18.653   6.955   0.702  0.3283 -0.0598 -0.0864
14914W        W31098  10.959   3.916   1.935 -0.1952 -0.2885 -0.0651
14915W        W31099  15.273  15.661  13.552  0.1068 -0.0940 -0.2167
14916W        W31100  16.724   7.743  11.493  0.0803  0.1015  0.0587
14917W        W31101   7.669  16.833  14.751  0.3661  0.0485 -0.0126
14918W        W31102  18.069  17.997  11.084 -0.0857 -0.0472 -0.1564
14919W        W31103   7.884   3.063   3.716  0.2757  0.0739 -0.1742
14920W        W31104  16.517   3.377  14.521 -0.0394  0.2878  0.1814
14921W        W31105  12.545   2.134   0.937 -0.0432 -0.1779  0.1421
14922W        W31106  10.527  15.248  15.298 -0.0475  0.1015 -0.0509
14923W        W31107  16.555   4.472   0.403  0.0168  0.2744 -0.1613
14924W        W31108   0.830  18.084  10.987  0.0205  0.1718 -0.1112
14925W        W31109   8.538  10.296   5.003  0.0629  0.3886  0.1935
14926W        W31110   9.606   8.657   2.514  0.4222  0.0730 -0.1394
14927W        W31111  18.534  14.084   4.178  0.1134  0.0336 -0.1168
14928W        W31112   9.416   5.690  12.258  0.0662 -0.0949  0.2476
14929W        W31113  11.417   3.313   3.727  0.1400  0.0870 -0.0825
14930W        W31114   6.833  17.327   0.679 -0.5855 -0.0291 -0.1323
14931W        W31115  11.504  13.817   3.291 -0.1736 -0.0704 -0.3082
14932W        W31116  12.681   4.763   2.701  0.0921 -0.0716 -0.0005
14933W        W31117   1.263   8.604  12.812 -0.0730  0.3226 -0.0897
14934W        W31118  17.018  14.143   2.755  0.0049  0.3064 -0.0588
14935W        W31119   1.352   1.429  11.507 -0.1661  0.2117  0.1817
14936W        W31120   5.068  11.066  13.477 -0.0198  0.0001  0.2382
14937W        W31121  16.722   5.340  13.280 -0.0052  0.1051 -0.3586
14938W        W31122   4.494   2.275  13.558  0.0525 -0.0894  0.0422
14939W        W31123  11.506  16.665  11.659  0.0487 -0.1557  0.5604
14940W        W31124   7.213  16.721   0.332 -0.0993  0.0580 -0.1178
14941W        W31125  17.593  11.667   4.776 -0.0105 -0.2542 -0.3241
14942W        W31126  18.920   3.690   4.992 -0.1588 -0.0682 -0.0159
14943W        W31127   9.405   8.361   4.311 -0.0936  0.2681  0.0631
14944W        W31128   6.472  13.881   3.786  0.2130  0.3582  0.2662
14945W        W31129   0.046  15.111   2.039  0.0734 -0.2100  0.3331
14946W        W31130   8.255  12.719   0.668 -0.2514 -0.0770 -0.2967
14947W        W31131   4.239   7.948   2.987  0.5841 -0.0193  0.1588
14948W        W31132   7.799  15.787   0.033 -0.2670  0.2501  0.1640
14949W        W31133  10.583   6.170   1.728 -0.2076 -0.1352  0.3539
14950W        W31134   6.805   8.841   2.869  0.0767  0.0597 -0.1503
14951W        W31135  13.312   2.848   2.535 -0.0205  0.0090  0.2817
14952W        W31136   1.944   0.216  10.969  0.1401  0.0292 -0.2506
14953W        W31137   5.337  13.661   0.067  0.0041 -0.1599 -0.0728
14954W        W31138  14.616   2.453   4.508  0.0015  0.2146 -0.1024
14955W        W31139  13.833   6.097   4.743  0.3450 -0.2109 -0.0961
14956W        W31140  16.460  12.905   0.822  0.0621  0.7110  0.1946
14957W        W31141  17.981   2.346  12.687 -0.0774  0.2350 -0.1962
14958W        W31142  14.515  14.230  11.230 -0.2150  0.0903  0.7056
14959W        W31143   3.132   5.228   3.754  0.2244 -0.0143  0.1443
14960W        W31144   8.110   4.538   3.091 -0.2257  0.2722 -0.2849
14961W        W31145   8.269  15.489  11.897 -0.1843 -0.0567  0.0080
14962W        W31146   6.816   6.301   0.509 -0.1950 -0.0501 -0.0267
14963W        W31147   6.662   7.863  13.232  0.1387 -0.0150 -0.0249
14964W        W31148  11.384   1.949   4.353 -0.0766  0.0994  0.0782
14965W        W31149  10.484   8.884   5.762 -0.2505 -0.4025 -0.1073
14966W        W31150  18.505  15.267   1.445 -0.3302 -0.0697  0.1827
14967W        W31151  13.429   0.565   0.566  0.0218 -0.4648 -0.2130
14968W        W31152   1.056   8.463  11.773 -0.0008 -0.1900  0.0286
14969W        W31153   2.894  10.543  14.196  0.1711  0.5794  0.2512
14970W        W31154  15.263   1.502   5.015 -0.0281  0.1791  0.1878
14971W        W31155  10.249  13.321   4.100  0.2854  0.1865  0.0942
14972W        W31156   7.344   1.368  12.002 -0.3598  0.0089  0.0506
14973W        W31157   1.572  14.064   1.935  0.0966 -0.0623 -0.2067
14974W        W31158  14.839  13.757  14.580  0.1624 -0.4826 -0.0606
14975W        W31159   4.660   5.321   1.299  0.3536  0.3201 -0.1206
14976W        W31160  17.595   3.126   3.062  0.0781 -0.0829 -0.1448
14977W        W31161   0.361  12.664   4.751  0.0101  0.1668 -0.0624
14978W        W31162  12.529   3.438  14.761  0.1783  0.0685 -0.1428
14979W        W31163  17.876  14.263   3.083 -0.2629 -0.1805  0.0125
14980W        W31164   1.719  17.256   0.527  0.2577  0.2676 -0.0255
14981W        W31165   0.127   0.052   2.657  0.1696  0.0558 -0.0394
14982W        W31166   7.091   9.990   4.651  0.3294  0.3357  0.0955
14983W        W31167   0.634  16.652   4.589  0.0605  0.0256  0.0242
14984W        W31168  18.429  13.209   3.317  0.2541 -0.3528  0.1261
14985W        W31169   3.478  12.257  14.492 -0.1227 -0.0568  0.1105
14986W        W31170   6.856  17.798  14.461 -0.2724 -0.2177 -0.2722
14987W        W31171   4.017   8.740  13.357  0.1013 -0.3401  0.2421
14988W        W31172   9.345   0.437  11.709  0.3508  0.0211  0.2241
14989W        W31173  13.072   8.000  12.813  0.4551  0.0497 -0.0608
14990W        W31174  15.722   4.775   3.743 -0.1971 -0.0950  0.1221
14991W        W31175   6.377   6.744  15.221 -0.1684 -0.3609 -0.0908
14992W        W31176   7.505   0.881   0.146  0.3447 -0.0099  0.0996
14993W        W31177   2.434   1.170   3.153  0.0610 -0.2281  0.1050
14994W        W31178   5.049  17.127   4.211 -0.3834  0.2878 -0.2265
14995W        W31179  16.724  17.558   4.234 -0.1321  0.1519 -0.1612
14996W        W31180  10.338   4.955   1.592  0.2937 -0.0782  0.1824
14997W        W31181   5.830  18.635   2.339  0.0777 -0.2212 -0.0737
14998W        W31182  18.650   6.088  12.183 -0.0367  0.1627  0.1522
14999W        W31183  11.964  11.773  11.690 -0.4371  0.1925  0.0751
15000W        W31184   7.613  14.880  12.998 -0.3346 -0.2081 -0.0486
15001W        W31185   1.825  14.670   5.653 -0.1534  0.0578 -0.4027
15002W        W31186   5.243   1.680   1.099  0.1219  0.3100  0.1419
15003W        W31187   8.166  15.007  11.946  0.1151  0.3008  0.0005
15004W        W31188   2.496  13.319   3.709  0.1170  0.4518  0.2946
15005W        W31189   4.724   2.128  10.883 -0.0540 -0.0698  0.0588
15006W        W31190   5.048  12.171  13.015  0.1365 -0.2357 -0.1034
15007W        W31191  14.576  10.609  11.430  0.1148 -0.0443  0.3146
15008W        W31192  14.141  14.210   1.139 -0.0062  0.1542  0.1770
15009W        W31193  12.546   4.142  10.964  0.0166 -0.1672  0.2304
15010W        W31194  14.996   4.172  12.871 -0.1358  0.1112 -0.1943
15011W        W31195   7.027   3.062   4.834 -0.1188 -0.2409  0.0009
15012W        W31196   9.125  15.667  10.678 -0.0429 -0.3205  0.2148
15013W        W31197  11.231   3.249   4.234  0.0209  0.2441 -0.1659
15014W        W31198   5.306   7.462  13.284  0.1906 -0.2644 -0.3178
15015W        W31199  15.135   7.402   4.919  0.0042  0.0005  0.0256
15016W        W31200   7.040  18.955   0.149  0.0355  0.3429  0.0424
15017W        W31201  18.602   6.009   0.779 -0.0102 -0.3047  0.1133
15018W        W31202  10.630   5.283   0.823  0.1794 -0.1799 -0.2021
15019W        W31203   8.031  12.977  11.811  0.0833 -0.0198 -0.0853
15020W        W31204   7.059   9.680   0.168 -0.1032 -0.2220  0.0106
15021W        W31205   6.578   3.537  12.312 -0.0682 -0.1438 -0.0472
15022W        W31206   3.424  16.436   9.789 -0.3330 -0.0495 -0.2125
15023W        W31207  13.894  18.069  14.613 -0.1964  0.2018  0.2943
15024W        W31208   7.781  18.806  12.495  0.1279  0.0218  0.2721
15025W        W31209  10.365   8.065  15.146 -0.0111  0.1476  0.2834
15026W        W31210  12.176   2.289  11.220 -0.1567  0.1240  0.0347
15027W        W31211  11.896   0.738  12.602 -0.3818  0.0591 -0.1514
15028W        W31212   7.003  16.288   0.181 -0.2623  0.0777 -0.1629
15029W        W31213   5.352   7.758   5.095 -0.3659  0.0179 -0.0639
15030W        W31214  15.636  11.389  14.123  0.1015  0.3191  0.0811
15031W        W31215  17.659  10.845  11.435 -0.2614 -0.3341  0.0232
15032W        W31216   7.561   4.824  14.375  0.0200  0.0406  0.0323
15033W        W31217  12.878  10.214  12.372 -0.0037 -0.0306 -0.0141
15034W        W31218   5.121  10.323   1.263  0.3214 -0.0249  0.0242
15035W        W31219   1.388  16.186   1.256 -0.0419 -0.1288 -0.0863
15036W        W31220   6.155   3.732  14.395  0.2590  0.1493  0.1177
15037W        W31221   3.601  12.296   4.698 -0.1313 -0.0046  0.0720
15038W        W31222  11.173  11.163  13.989  0.1008  0.0265 -0.1268
15039W        W31223   7.743  18.451   0.346  0.1014 -0.2675  0.2774
15040W        W31224  16.127  10.584   0.325 -0.2388  0.1229  0.1289
15041W        W31225   0.731   2.325   6.272 -0.1674 -0.2415 -0.0478
15042W        W31226  12.584   8.634  10.694 -0.1696  0.2367  0.3211
15043W        W31227   2.119   4.753   9.726 -0.0181 -0.0473  0.0888
15044W        W31228  10.102  18.549  14.691 -0.1235 -0.2541  0.0488
15045W        W31229  12.196  18.077  11.227  0.1884  0.2531 -0.0668
15046W        W31230  16.096  18.126   0.613  0.1069  0.3408  0.0432
15047W        W31231   6.966  13.727   3.852 -0.2115 -0.0195 -0.1747
15048W        W31232   9.308  14.152  10.487 -0.1376  0.0727  0.1553
15049W        W31233   1.464   8.681   1.204 -0.1788  0.0098  0.0474
15050W        W31234   8.024   8.272   0.402 -0.0077 -0.0090 -0.2749
15051W        W31235  18.276  12.642  14.794 -0.3513 -0.0999  0.0840
15052W        W31236   0.511   9.425   4.503  0.0343  0.0660 -0.2685
15053W        W31237   1.206   3.847   5.237 -0.0178  0.1690  0.1280
15054W        W31238   0.739   4.755  12.042 -0.0258 -0.1243  0.0151
15055W        W31239  13.587  16.437   4.798 -0.0636  0.0335  0.0253
15056W        W31240  11.673  10.356   2.205  0.0765 -0.0675 -0.1329
15057W        W31241  18.255   1.182   1.737 -0.1733  0.1088 -0.0685
15058W        W31242   2.140  17.790  11.612  0.1988 -0.0704 -0.2822
15059W        W31243  12.688  13.664  13.113 -0.1338  0.0320  0.0798
15060W        W31244  18.141  18.861  15.128  0.0558  0.0987 -0.0150
15061W        W31245  10.436  11.862  13.231  0.0073 -0.3645 -0.3203
15062W        W31246  14.108  11.984   0.890 -0.2365 -0.3205 -0.2337
15063W        W31247   5.411  17.592   4.475 -0.0480  0.0722  0.1206
15064W        W31248   3.706   5.354   3.984  0.1372 -0.1012  0.2404
15065W        W31249   0.101  14.648  14.104  0.1625 -0.1044 -0.1390
15066W        W31250   7.237   1.226  11.485  0.1293  0.0262 -0.0195
15067W        W31251  16.545  18.437   3.373 -0.4293 -0.2059  0.1834
15068W        W31252   4.674  17.064   3.445 -0.1810 -0.3663  0.0692
15069W        W31253  18.357   6.538   0.734  0.1743 -0.0738 -0.5186
15070W        W31254   3.297  17.599   0.863  0.2690 -0.2493  0.2090
15071W        W31255  17.752   2.378  14.898  0.0053 -0.0103 -0.2710
15072W        W31256  15.715  13.370  12.846 -0.0671  0.2282 -0.4663
15073W        W31257   2.382  11.649   2.439  0.1263 -0.0368 -0.2168
15074W        W31258  12.585  14.341   4.077  0.1802  0.2595  0.0082
15075W        W31259   1.229   8.163   1.288 -0.2199 -0.0514  0.2203
15076W        W31260  18.908  10.614   3.247 -0.0805 -0.1438  0.2144
15077W        W31261   5.611   6.001  14.902 -0.2477 -0.2157  0.0516
15078W        W31262   0.767   1.420  11.928 -0.4674  0.2424 -0.0024
15079W        W31263   8.526   3.212  11.010  0.0935  0.2363  0.1339
15080W        W31264  12.723   2.926   3.711 -0.0425 -0.0894 -0.0853
15081W        W31265   1.984  13.443  13.701 -0.4150 -0.1318  0.2232
15082W        W31266   0.520  14.750   3.358 -0.0629 -0.0922 -0.0810
15083W        W31267   1.883   6.741  11.613  0.3390 -0.0774  0.1397
15084W        W31268   8.503  18.976   1.371 -0.0041 -0.1506 -0.0832
15085W        W31269  13.496   7.789   3.993  0.0705 -0.1653 -0.1535
15086W        W31270  18.511   3.895  12.564 -0.2710 -0.3118  0.1956
15087W        W31271   2.004  18.266  12.512  0.1303  0.0812  0.3501
15088W        W31272   1.314   2.704  10.350 -0.1542 -0.0947  0.1449
15089W        W31273   2.419  16.803  10.712  0.0794 -0.1795 -0.0553
15090W        W31274  11.356   4.975   2.676 -0.0076  0.0385 -0.0561
15091W        W31275   2.788  15.432  13.777  0.3116 -0.1296  0.2749
15092W        W31276   5.482   3.831   1.283 -0.0115 -0.0360 -0.0372
15093W        W31277   1.247   9.432  10.041  0.0746  0.0793  0.2004
15094W        W31278   5.928   3.079  12.918 -0.0366  0.1691  0.0309
15095W        W31279   9.249  13.517   3.439 -0.2056  0.0845 -0.3703
15096W        W31280  13.731   8.311  13.195 -0.1564  0.0417  0.3354
15097W        W31281  14.960   4.155   1.787 -0.0650 -0.0886  0.0937
15098W        W31282  12.236  12.230   2.275  0.0746 -0.1981 -0.0942
15099W        W31283  13.950  11.036  14.588 -0.2106 -0.4459  0.1152
15100W        W31284   1.291   7.426  13.159  0.2662 -0.1420 -0.4835
15101W        W31285   0.902  12.378   1.908  0.0148 -0.0701  0.2849
15102W        W31286  14.784   8.263  12.327  0.3535  0.2181 -0.1019
15103W        W31287   1.114   4.764  14.145 -0.2805  0.3132  0.4761
15104W        W31288  14.764   3.312  14.031 -0.1021  0.1003  0.0417
15105W        W31289   1.841   3.214  13.743  0.1949  0.0747  0.0014
15106W        W31290  13.930  14.821   3.013 -0.1786  0.4600  0.0730
15107W        W31291   4.252   4.294  12.093  0.1012  0.2052 -0.1020
15108W        W31292   5.615   6.011   0.008 -0.1091  0.0823  0.0418
15109W        W31293  11.489   2.194  11.523  0.3011 -0.2399  0.0709
15110W        W31294   5.948  17.556   3.247  0.0608 -0.1911  0.0705
15111W        W31295   7.816  13.253  12.797 -0.1810 -0.1554  0.0282
15112W        W31296   8.108   6.753  12.256 -0.1570 -0.1601 -0.1484
15113W        W31297   9.094   1.133  12.640 -0.1691 -0.1521 -0.0579
15114W        W31298  18.564   2.822   2.104  0.1642  0.0297  0.2263
15115W        W31299   0.712   7.868   3.395 -0.2340 -0.2097 -0.2140
15116W        W31300   7.741   0.919   0.789  0.3656  0.3222  0.0894
15117W        W31301  16.349  10.869  12.566 -0.1037  0.2062 -0.3582
15118W        W31302   3.523   3.048  15.248 -0.0316 -0.2171 -0.0896
15119W        W31303   7.419   7.781   2.170 -0.0228  0.2478 -0.1372
15120W        W31304  18.793  12.201  11.352 -0.0616 -0.0224 -0.0477
15121W        W31305   9.450   1.098  15.191 -0.1319  0.2576 -0.0218
15122W        W31306   2.058   4.920   2.719  0.0381 -0.2459  0.0488
15123W        W31307  16.672   6.572  13.006  0.1022 -0.0958  0.0570
15124W        W31308   3.953  12.494   0.424  0.0614  0.4376 -0.0288
15125W        W31309   9.653  11.364  12.919  0.1372  0.2058  0.0026
15126W        W31310  12.516   5.837   4.679  0.1952  0.2804 -0.2051
15127W        W31311   6.288  13.441   4.061 -0.0566 -0.1058  0.1288
15128W        W31312  12.175   6.536  10.738  0.1679  0.1194 -0.0982
15129W        W31313   9.183   3.625   2.027  0.2200 -0.2608 -0.2054
15130W        W31314   2.336  15.697   0.892  0.0153  0.2909 -0.1243
15131W        W31315   3.005  17.815  14.293 -0.1837 -0.1661  0.0042
15132W        W31316   3.723  15.472  11.445 -0.0006  0.0521  0.5050
15133W        W31317  16.196   3.735  15.374  0.0992  0.1116 -0.4458
15134W        W31318   3.091   3.608   2.713  0.0646 -0.1875 -0.4084
15135W        W31319  11.363  11.611  11.711  0.2518  0.2353 -0.0671
15136W        W31320  13.800   0.421  14.766 -0.2374 -0.0636 -0.1049
15137W        W31321  17.028  15.421   3.622 -0.2332 -0.1994 -0.0037
15138W        W31322   1.216   2.729  13.430  0.0552  0.0020 -0.1434
15139W        W31323   3.618   2.642  13.524 -0.1753  0.3121  0.0351
15140W        W31324  16.130   2.325  13.645  0.1622 -0.0839 -0.3386
15141W        W31325  12.252  14.956  13.645 -0.0401  0.3030 -0.0123
15142W        W31326   6.936   4.456  11.924  0.3576  0.0466  0.1268
15143W        W31327   1.175   0.111   3.913 -0.0680 -0.2840 -0.2085
15144W        W31328   7.610   4.949   0.417 -0.2232 -0.1472  0.0298
15145W        W31329   3.451  17.492   4.878  0.0975  0.3444 -0.1367
15146W        W31330  14.575  15.408  10.818 -0.2430 -0.0915  0.0268
15147W        W31331  15.343  16.229   3.070 -0.1920 -0.3007 -0.3193
15148W        W31332  18.094  18.144   0.343  0.0808 -0.0920 -0.0811
15149W        W31333  17.080  17.428  14.519  0.0330 -0.3103 -0.1685
15150W        W31334   6.293   3.157   4.923 -0.3776 -0.1714 -0.3007
15151W        W31335  12.187   6.966   4.420  0.2252 -0.0431  0.0507
15152W        W31336  13.826  11.676  14.027  0.0424  0.1112 -0.3997
15153W        W31337  16.952  10.548   4.024 -0.1167  0.1591  0.2378
15154W        W31338   3.282   1.607   4.675  0.1598 -0.0533  0.3196
15155W        W31339  11.690   3.863   2.583  0.1232 -0.0815 -0.1074
15156W        W31340   2.841   5.541  14.821 -0.2382 -0.1704 -0.0248
15157W        W31341   6.619  15.000  13.648  0.1818 -0.1709  0.2785
15158W        W31342  12.675   8.780   0.313 -0.4768  0.0449 -0.0001
15159W        W31343   2.481   6.343  12.591 -0.1220  0.0954  0.2669
15160W        W31344  18.038  12.776   4.453  0.0466  0.1094  0.4005
15161W        W31345  12.535   4.358   2.952  0.1842 -0.2197  0.0695
15162W        W31346  10.869   9.066  11.400  0.0319  0.4532 -0.0859
15163W        W31347   5.863   3.450   4.945 -0.2303  0.1317 -0.1500
15164W        W31348  18.200   6.068  11.871 -0.0632  0.2201 -0.0417
15165W        W31349   2.673  10.535  14.711 -0.0627  0.2086  0.1517
15166W        W31350  11.771  13.690   3.740  0.4918 -0.4050 -0.2325
15167W        W31351  17.376  18.799  11.418  0.1144  0.1313  0.2524
15168W        W31352  12.137  10.986   3.329  0.0938  0.1487 -0.1269
15169W        W31353   4.012  10.529  12.599 -0.0915  0.0396 -0.2456
15170W        W31354  11.177  16.157  11.416 -0.0190  0.2823 -0.1447
15171W        W31355  16.193   1.948   4.585  0.0641  0.2064 -0.0733
15172W        W31356   0.480   8.545  10.906 -0.1813 -0.0239 -0.0443
15173W        W31357   5.551  15.205  10.594  0.0439  0.0327 -0.1464
15174W        W31358  16.689  10.044   5.418  0.3327  0.1028  0.0512
15175W        W31359   8.950  13.001   2.622  0.1158 -0.0205  0.1881
15176W        W31360   4.843   7.434   4.008 -0.2423  0.1279 -0.2291
15177W        W31361   6.295  15.604   0.905 -0.1000 -0.0032 -0.0272
15178W        W31362  12.904  10.445  11.033  0.2741 -0.0974  0.2830
15179W        W31363   0.665   0.032   0.773 -0.0326  0.1229  0.0924
15180W        W31364  17.137  10.789  12.812  0.4880 -0.0268  0.1500
15181W        W31365  10.667  12.864  10.803 -0.1158 -0.0805 -0.3447
15182W        W31366   6.330  14.209  14.017 -0.0166 -0.1361  0.3451
15183W        W31367   4.890  12.658  12.075 -0.1114  0.1002 -0.3404
15184W        W31368   4.477  10.664   3.513 -0.1415 -0.2828  0.0279
15185W        W31369   3.940   6.404  12.108 -0.0831  0.3587 -0.0357
15186W        W31370   8.345   8.045   2.227 -0.0227 -0.1098 -0.0001
15187W        W31371  18.213   4.131   0.403 -0.4405 -0.1078 -0.0548
15188W        W31372  14.180  16.730  15.110  0.0886  0.0717  0.1081
15189W        W31373  10.021  11.648   0.663  0.0754  0.0940  0.0676
15190W        W31374  14.583  13.093  11.256  0.0974  0.2928 -0.2029
15191W        W31375  16.927   2.695  13.440  0.4590 -0.1212  0.2268
15192W        W31376  17.340   6.919  12.664 -0.1662  0.2838 -0.2915
15193W        W31377   3.075   8.353   4.961  0.0749 -0.3489  0.0276
15194W        W31378  18.676   9.483   4.285 -0.1415  0.0722  0.2174
15195W        W31379   0.613   3.004   2.165 -0.2349 -0.1008  0.0154
15196W        W31380   3.278  12.648  15.222  0.3620 -0.0267  0.1956
15197W        W31381   2.596   4.132   5.031 -0.2919  0.3215  0.4350
15198W        W31382   6.028   7.819   5.644 -0.0923  0.2492 -0.0212
15199W        W31383   9.919   3.757   2.629  0.0753  0.0023 -0.0429
15200W        W31384   2.551  12.013   2.071 -0.1268 -0.3807  0.0705
15201W        W31385  14.132   1.570  15.153 -0.0319 -0.0319  0.0192
15202W        W31386  16.346   7.383   0.112  0.4494 -0.0633  0.1607
15203W        W31387  16.380   6.561   2.314  0.0062  0.2615 -0.2905
15204W        W31388   3.023  11.552   4.598  0.0244 -0.1498  0.2213
15205W        W31389  18.417  12.219  15.074  0.1338 -0.1077  0.0120
15206W        W31390   0.125   5.142  11.525 -0.1684 -0.1285  0.2142
15207W        W31391   4.096   7.050  12.893  0.1067  0.1189  0.1749
15208W        W31392  18.911  14.560   4.210 -0.1492  0.0377 -0.0234
15209W        W31393  14.829   2.299   1.231  0.1278  0.0341 -0.0482
15210W        W31394  18.515   8.106   3.589  0.1948  0.2615  0.0115
15211W        W31395   7.970   0.490  14.709 -0.1399 -0.3980 -0.0440
15212W        W31396  18.808  16.021  13.995  0.3273 -0.0924  0.2132
15213W        W31397  18.563   0.464   4.134  0.0547  0.0430  0.0681
15214W        W31398   5.982   5.192   1.249 -0.0621  0.1045 -0.1551
15215W        W31399   5.174  14.045   2.665 -0.0398  0.1477  0.1937
15216W        W31400   8.461   9.775   0.877 -0.1107 -0.2721 -0.0956
15217W        W31401   4.886   5.243  11.604 -0.1308  0.0646 -0.5611
15218W        W31402   3.241  13.673   0.690  0.0318 -0.2748 -0.2545
15219W        W31403  16.073   6.512  11.406  0.1574 -0.1282 -0.3546
15220W        W31404  11.226  13.264   1.978  0.0062  0.0766 -0.1258
15221W        W31405  18.981   3.970   1.692 -0.2869  0.3499 -0.0097
15222W        W31406   1.666  15.790  12.503  0.1212  0.0559  0.0115
15223W        W31407  13.889  15.622  14.145  0.0690  0.0412  0.3379
15224W        W31408  16.827  16.093  13.444 -0.0372  0.2434  0.1925
15225W        W31409  15.821  12.444   2.736 -0.1298 -0.2768 -0.1223
15226W        W31410  16.963   7.176   4.624  0.0372  0.0169  0.0256
15227W        W31411   5.733   3.708  12.224  0.1021  0.0156  0.2381
15228W        W31412   6.089  11.182  15.270 -0.1086  0.0626  0.0929
15229W        W31413   4.631   8.462  11.139  0.0865  0.1194  0.4881
15230W        W31414   4.915  14.929  12.049 -0.0670  0.1312 -0.0668
15231W        W31415  10.240   2.330  14.197  0.0566 -0.0258 -0.1136
15232W        W31416  17.538   6.018   5.170  0.1674  0.1631 -0.4120
15233W        W31417   4.045  13.877  13.199  0.2059  0.0787 -0.1173
15234W        W31418  14.757   5.118   1.980  0.1085 -0.0699 -0.3709
15235W        W31419  17.296   5.912   0.061  0.3071  0.3943 -0.1027
15236W        W31420   5.216   0.460   3.831  0.4433 -0.0273 -0.1821
15237W        W31421  12.992   7.161  12.650  0.2605 -0.4018  0.0935
15238W        W31422   7.029  18.427  11.672  0.0046  0.1894 -0.1356
15239W        W31423   5.570  15.468  12.737 -0.0728  0.0986 -0.1718
15240W        W31424  18.916  12.751   0.732 -0.2072  0.3405  0.3155
15241W        W31425   2.354   7.412   3.588  0.3373 -0.1632 -0.3857
15242W        W31426   4.393  15.802  11.110 -0.1946  0.0558  0.0264
15243W        W31427   4.859  11.186  14.594 -0.3552  0.1473  0.1187
15244W        W31428   1.888   4.807   0.656  0.2537  0.1974  0.0355
15245W        W31429  10.561  14.716   0.049  0.0186 -0.1048  0.1054
15246W        W31430   6.684   6.256   1.803  0.1227 -0.1070  0.2681
15247W        W31431  17.275   0.008  12.965  0.3780 -0.0441  0.0002
15248W        W31432   5.737   1.879  11.712  0.0224  0.1761 -0.0684
15249W        W31433  13.758   4.337   0.850 -0.1417 -0.1558  0.1318
15250W        W31434  18.947   6.220   1.663 -0.0920 -0.0051 -0.1953
15251W        W31435   9.521  11.795  11.260  0.2098 -0.0799 -0.3036
15252W        W31436  13.196   8.619   4.974  0.1105  0.0877 -0.4741
15253W        W31437   2.515  18.579  11.138 -0.2396  0.1181 -0.0202
15254W        W31438   0.497  11.496   1.461 -0.0800 -0.2350 -0.0048
15255W        W31439   4.384   2.824   3.825 -0.2736  0.1117  0.1307
15256W        W31440   9.763   3.686  12.547  0.0966  0.0425  0.1172
15257W        W31441  11.679   1.406   3.451 -0.0744  0.2354  0.1598
15258W        W31442  10.228   6.590   2.531  0.1088  0.0863  0.0250
15259W        W31443  12.018   4.976  14.285 -0.0175  0.0964  0.2709
15260W        W31444   3.653   0.879   4.099 -0.0298 -0.0076 -0.1059
15261W        W31445   5.201   3.264  14.193 -0.2154  0.1940 -0.0598
15262W        W31446  15.070  15.687   4.308 -0.0700  0.0360  0.2808
15263W        W31447  14.679  13.351   2.377  0.1952 -0.2825  0.2162
15264W        W31448   7.842   8.922  10.271 -0.0149  0.3206  0.1251
15265W        W31449  14.531  11.667   9.961  0.1192 -0.0304  0.0453
15266W        W31450  15.460   6.364   3.857 -0.2848  0.2319  0.0159
15267W        W31451   9.874  10.482  11.978  0.1307 -0.0686  0.0323
15268W        W31452   3.046   6.991   0.063  0.0504  0.1153 -0.2985
15269W        W31453   5.951  15.521  15.306 -0.1309 -0.3170  0.3013
15270W        W31454   9.891  11.753   4.302  0.2653 -0.0002  0.3207
15271W        W31455   6.362   8.688  10.709  0.0666  0.0225  0.2627
15272W        W31456  11.073   7.004  14.712 -0.4159  0.3187 -0.0991
15273W        W31457  11.884  17.764   2.782 -0.1635 -0.0397  0.2181
15274W        W31458  10.720  18.323   2.465 -0.0690  0.0398 -0.0266
15275W        W31459  17.097   5.501   4.801  0.0420 -0.1038 -0.2480
15276W        W31460   4.185  10.143   4.379 -0.0022  0.1480  0.1041
15277W        W31461  13.196   4.751   2.044  0.0055  0.0034  0.2006
15278W        W31462   3.082  15.550   4.981  0.1949  0.0395  0.1843
15279W        W31463   2.206   3.419   1.173  0.2354  0.2610  0.0303
15280W        W31464   8.947  14.192   2.845  0.2566  0.1378  0.3923
15281W        W31465  14.240   4.326  11.474 -0.2003  0.1771 -0.0014
15282W        W31466   9.948  14.209  12.611 -0.3346  0.2212  0.1935
15283W        W31467  15.549   5.789  10.393 -0.0353  0.2778  0.1155
15284W        W31468  14.185   6.786  14.003 -0.0445  0.1775  0.1600
15285W        W31469  15.233  17.363  11.690 -0.1099  0.0067  0.0753
15286W        W31470   0.079   9.232   1.052 -0.3966  0.1018 -0.1512
15287W        W31471  14.419  18.682   3.724  0.3500 -0.0053 -0.2441
15288W        W31472  17.563   9.405   0.990 -0.2242  0.0206  0.4789
15289W        W31473  17.611  13.946  10.107 -0.1000  0.2146  0.2532
15290W        W31474  16.924  15.387  11.555  0.2469  0.1896 -0.0693
15291W        W31475  18.367   8.409  14.121 -0.2266  0.1087 -0.2388
15292W        W31476  17.464   8.776  15.203  0.1631 -0.0379 -0.1117
15293W        W31477   2.700   7.146   3.331 -0.1038 -0.0802  0.0810
15294W        W31478  11.268   1.353  12.086 -0.1894  0.2172 -0.0677
15295W        W31479   5.066  13.594  13.413 -0.3340 -0.0079 -0.0391
15296W        W31480  17.487   0.888  13.212 -0.0166 -0.3154  0.1232
15297W        W31481   6.674  18.207   2.796 -0.0257 -0.0059 -0.0332
15298W        W31482   6.589   4.852  15.383 -0.1083 -0.3404  0.1472
15299W        W31483  10.941  18.893  15.306  0.0148  0.1225  0.1734
15300W        W31484  14.564  11.158   4.616 -0.2310 -0.0264 -0.0900
15301W        W31485   4.722  15.338   1.527 -0.0772 -0.0210 -0.1150
15302W        W31486   3.529  15.962  13.987  0.2110  0.2476  0.3394
15303W        W31487   6.288  11.283   3.197  0.0162  0.2425 -0.0301
15304W        W31488  17.745   1.331   1.792 -0.1774 -0.0054 -0.1226
15305W        W31489  12.589  17.521  15.104 -0.4791 -0.1320  0.2136
15306W        W31490   5.172   5.772   3.692 -0.0230  0.5543  0.0224
15307W        W31491   3.937  11.967   0.427  0.3046  0.0262  0.2419
15308W        W31492   8.791  17.596  12.123 -0.1240 -0.4534 -0.0879
15309W        W31493  17.608  18.243   1.620 -0.0986  0.0929 -0.4917
15310W        W31494  15.905  17.254  12.761  0.0125  0.1988  0.0924
15311W        W31495  14.604   2.642   2.072 -0.4528 -0.0101  0.4482
15312W        W31496  11.621   6.091   5.776  0.3596 -0.0782 -0.0248
15313W        W31497   4.198   8.906   0.348 -0.0871  0.0336 -0.0411
15314W        W31498   9.514  17.692  13.740  0.1694 -0.2817 -0.1188
15315W        W31499   8.291  15.457   1.960 -0.1908 -0.0502 -0.1166
15316W        W31500  15.951  17.926   5.026 -0.2351  0.1153 -0.1791
15317W        W31501  10.995   3.036   3.732 -0.0898 -0.2763 -0.0395
15318W        W31502   6.382   5.536  11.023  0.0757 -0.0698  0.0628
15319W        W31503   9.766   2.947  11.854  0.3977  0.1483 -0.3157
15320W        W31504   6.935   4.018  11.571  0.0283  0.2534  0.2109
15321W        W31505  12.905   0.966  12.871 -0.0763  0.1905 -0.1534
15322W        W31506   4.722  15.338  10.960  0.4639 -0.0841  0.0009
15323W        W31507  16.740   9.927   4.032  0.1041 -0.0344  0.1355
15324W        W31508  13.471   6.345   0.609 -0.0017 -0.0492  0.1708
15325W        W31509   4.207  16.305   0.775 -0.0682  0.2083 -0.1295
15326W        W31510   5.683  17.872   4.939  0.1604 -0.0724  0.3035
15327W        W31511   9.488  15.135  10.729 -0.2295 -0.2555 -0.0034
15328W        W31512  14.350  17.238  14.900  0.3939 -0.1786 -0.1834
15329W        W31513   8.003  15.819   1.934  0.0297 -0.2878 -0.0635
15330W        W31514  17.380   9.313  12.898  0.0070 -0.1531  0.2231
15331W        W31515   3.972   9.439   0.233 -0.0142 -0.2321 -0.1574
15332W        W31516  17.965   9.924   2.679 -0.0093  0.1028 -0.1744
15333W        W31517   3.802   4.495   4.228  0.0732 -0.2222  0.0448
15334W        W31518   7.651  18.416  12.763 -0.2674  0.3153 -0.1661
15335W        W31519   4.045   5.400  14.763  0.0658  0.1961  0.0343
15336W        W31520   3.143   0.221  12.414  0.0392  0.2614 -0.3306
15337W        W31521   5.715  18.146   2.022 -0.1443  0.0655  0.0391
15338W        W31522  17.609   1.798   1.517 -0.0835  0.1229  0.3124
15339W        W31523  12.526  15.819  13.406  0.0392  0.1077  0.2278
15340W        W31524   7.596  10.530   1.505 -0.1334  0.2401 -0.2566
15341W        W31525  15.606  10.523  10.535 -0.2665  0.0570 -0.1505
15342W        W31526   6.595   2.904   0.017  0.2156  0.0341 -0.4062
15343W        W31527  12.145  15.232   5.016 -0.2452 -0.0692 -0.1891
15344W        W31528  16.440  11.205   1.612  0.0321  0.1172  0.0542
15345W        W31529   4.657   3.931   1.882 -0.0944 -0.0139  0.4494
15346W        W31530  13.129  13.868  15.267 -0.1827 -0.0996  0.1563
15347W        W31531   6.080  10.777   0.865  0.1215 -0.0804  0.1889
15348W        W31532   0.227   4.877   4.724  0.1858 -0.0867  0.4377
15349W        W31533  12.369  17.161  11.469 -0.2170 -0.1711  0.1579
15350W        W31534   5.895  16.331  11.863 -0.1644  0.1600 -0.0436
15351W        W31535   3.313   4.037  10.904 -0.0990  0.0761  0.0774
15352W        W31536  12.559  15.723   1.071 -0.1157 -0.0856  0.0367
15353W        W31537   1.787  11.049  10.313 -0.0614  0.0789  0.1735
15354W        W31538   7.438   4.347  11.904 -0.0151 -0.1349 -0.1718
15355W        W31539  17.128   1.000  11.415  0.4733  0.2498 -0.0031
15356W        W31540  13.969   4.657  10.932  0.1285 -0.0255  0.0955
15357W        W31541  10.196   0.400   1.119 -0.1968 -0.2169  0.1584
15358W        W31542   0.047   8.300   1.706 -0.0396  0.1132 -0.2307
15359W        W31543   2.734   1.612  11.179  0.2238  0.0010  0.0175
15360W        W31544   5.092   5.691   2.491  0.3179 -0.2751 -0.0961
15361W        W31545  12.796   8.381  11.926 -0.0969  0.3221 -0.0438
15362W        W31546  16.536   3.089   2.123 -0.1936  0.1103 -0.4031
15363W        W31547  12.655   4.171  11.495 -0.3386  0.1017  0.1623
15364W        W31548  18.350   4.524   4.908  0.0751  0.2507  0.3317
15365W        W31549   6.585  11.332  11.245  0.2680  0.2195  0.3003
15366W        W31550  14.101  14.785  15.351  0.0455  0.0467  0.1865
15367W        W31551   8.465   5.177   0.282 -0.0972 -0.1062 -0.0843
15368W        W31552  11.214  18.774  10.661  0.1568  0.0908 -0.4813
15369W        W31553  10.017   6.545   4.152  0.0349  0.4358  0.0260
15370W        W31554  18.717   4.620  14.651 -0.5523  0.0132  0.1369
15371W        W31555  11.493   5.331  13.475 -0.1428 -0.1891  0.0445
15372W        W31556   3.922   6.244  11.359  0.0328 -0.1418  0.2884
15373W        W31557   6.932   6.985   5.497  0.0017  0.1588  0.1933
15374W        W31558   2.344  18.416   0.562  0.0346 -0.3646 -0.1585
15375W        W31559   4.955   0.296   0.929  0.0429 -0.0174  0.1460
15376W        W31560   0.876   7.182  13.249 -0.0559  0.3108 -0.1274
15377W        W31561   7.769   1.227   1.683 -0.1820 -0.2713  0.2422
15378W        W31562   7.353  16.085   2.046 -0.1098 -0.1875 -0.2778
15379W        W31563  10.578   5.144  13.055  0.2945 -0.3085 -0.2544
15380W        W31564  13.359  11.813  12.322  0.5060 -0.3461  0.0228
15381W        W31565  12.050  17.591  10.409  0.0023 -0.3416 -0.1059
15382W        W31566   7.582  13.844  10.206 -0.0363  0.1156 -0.0021
15383W        W31567  11.137  15.830  13.612 -0.2678  0.0546  0.3484
15384W        W31568   9.639   1.813  11.049  0.0844 -0.0335 -0.0156
15385W        W31569  10.018  11.592  13.168 -0.1844  0.0687  0.1335
15386W        W31570   9.357  12.303   1.918 -0.1150  0.0931  0.0016
15387W        W31571  12.353  18.920   4.335 -0.0287 -0.0879  0.1415
15388W        W31572   4.340  11.466  11.680 -0.2810  0.0382  0.0005
15389W        W31573  13.208   6.726  12.869 -0.0794 -0.2758  0.1898
15390W        W31574   1.527  11.871  12.561  0.0713 -0.2326  0.2842
15391W        W31575   4.917  16.789   0.457 -0.0740 -0.2676  0.3235
15392W        W31576  16.173   8.693   9.581 -0.1737 -0.1169  0.3538
15393W        W31577   0.975   4.571   5.827  0.3118  0.2236 -0.2263
15394W        W31578  15.630   5.742   1.346  0.1188 -0.1046  0.0808
15395W        W31579  18.926  17.483   0.195 -0.2583 -0.0392 -0.0912
15396W        W31580   1.308  10.970   2.903  0.1776 -0.0136 -0.3125
15397W        W31581   0.231   0.686  12.448 -0.1098  0.1857 -0.0332
15398W        W31582  17.817  14.156   3.978  0.0612 -0.3230  0.1910
15399W        W31583  10.257   0.415   1.781 -0.2185  0.0546 -0.0052
15400W        W31584   5.240  12.393  11.728  0.0795 -0.0096 -0.1239
15401W        W31585   4.308  16.489   0.127 -0.1110  0.1504 -0.2482
15402W        W31586   7.907   1.625   3.509 -0.1638  0.0785 -0.0914
15403W        W31587   1.745  16.191  12.856  0.1547 -0.3877  0.1022
15404W        W31588   8.404   2.737   3.289  0.0491 -0.1929 -0.1037
15405W        W31589   3.986   1.826  12.733  0.3412 -0.1841 -0.2287
15406W        W31590  15.355  17.657   0.376 -0.4952  0.1486 -0.0321
15407W        W31591   7.015  14.865   0.420  0.2459  0.1645 -0.2052
15408W        W31592   7.717  17.377   3.642  0.1653  0.0503 -0.4808
15409W        W31593  10.945   6.028   2.059  0.0952 -0.2682  0.1725
15410W        W31594  13.945   5.648  13.864  0.1105 -0.1604 -0.1910
15411W        W31595  17.679   1.113   5.638 -0.0932  0.0753 -0.1518
15412W        W31596  15.766   6.969   0.424 -0.0127  0.1329  0.1695
15413W        W31597   5.001   7.332   4.465  0.0363  0.1198  0.0831
15414W        W31598   6.332  17.753   5.167 -0.2186  0.3206  0.3729
15415W        W31599   4.099   2.224  11.334 -0.0792 -0.0733 -0.2575
15416W        W31600  10.213  14.369   0.693  0.5228  0.1390 -0.1674
15417W        W31601  15.081  10.863   5.497 -0.0303 -0.0466 -0.2279
15418W        W31602   6.713  10.585   2.698  0.0621  0.2570  0.0981
15419W        W31603  15.726   6.704  13.089 -0.0332  0.1097  0.1474
15420W        W31604   9.290  18.301   4.751  0.4001  0.1553 -0.1134
15421W        W31605   1.689  16.634  15.333 -0.0786 -0.1864 -0.2961
15422W        W31606   6.210  13.750   5.127  0.1918  0.1365 -0.0195
15423W        W31607  17.738  16.982  14.989  0.0300  0.1252 -0.2886
15424W        W31608   3.245   8.832   4.944 -0.2457  0.2269 -0.1985
15425W        W31609   1.218   8.271   2.730 -0.0049 -0.1295 -0.2343
15426W        W31610  17.535   4.860   2.362  0.0963  0.0778  0.0247
15427W        W31611   0.996  14.148   2.828  0.0379 -0.3250 -0.0220
15428W        W31612  16.035   0.140  12.447  0.3963  0.1986  0.1147
15429W        W31613  10.882   9.936  11.758 -0.1865  0.4041  0.0703
15430W        W31614  18.590   8.186  15.363 -0.1385 -0.2342 -0.2858
15431W        W31615   9.568  18.418  13.071  0.1763 -0.0787 -0.3282
15432W        W31616  15.651   1.409  12.228  0.1858 -0.3241  0.2576
15433W        W31617  13.438  12.121   5.534  0.2852  0.0940  0.0336
15434W        W31618   1.112  13.569   4.372  0.0360  0.1360 -0.2727
15435W        W31619   0.925  18.728   4.216  0.2362 -0.1847  0.1127
15436W        W31620   1.666   4.703   2.948 -0.0951 -0.2171 -0.0464
15437W        W31621  12.952  11.874  14.027 -0.0171  0.0037 -0.1433
15438W        W31622   5.188  18.732   3.018  0.0410 -0.2620 -0.3269
15439W        W31623   1.605  16.744   0.456 -0.1080  0.1055 -0.0469
15440W        W31624   2.395  10.884  14.402 -0.1691 -0.3203 -0.0774
15441W        W31625   7.998   4.568  11.847  0.1415  0.0281 -0.6063
15442W        W31626   0.983  10.317  13.180 -0.2219 -0.1187 -0.5222
15443W        W31627  13.718  15.401  12.481 -0.2665  0.2072  0.2018
15444W        W31628   3.091  11.536   1.224 -0.0285  0.0121  0.3186
15445W        W31629   3.013  13.663   2.996  0.0829  0.5364 -0.0783
15446W        W31630  11.484   2.594  13.706 -0.0908 -0.0848  0.1146
15447W        W31631   7.565   0.895   1.330 -0.0051 -0.0197  0.1424
15448W        W31632   3.527  12.388   1.119  0.0101  0.0243  0.0741
15449W        W31633  14.881  13.015  10.872  0.0299 -0.0499  0.0042
15450W        W31634   3.610  17.870  13.467 -0.3820 -0.2009  0.0137
15451W        W31635   4.864  12.327   0.035 -0.2698  0.0905 -0.0700
15452W        W31636  11.839   7.129   4.900  0.0144 -0.1792 -0.1227
15453W        W31637   9.465   1.710  14.518 -0.1377  0.1895 -0.0560
15454W        W31638   5.867   1.617   1.943  0.2473  0.2679  0.0141
15455W        W31639  15.096  13.753  13.517  0.0728  0.2646  0.1606
15456W        W31640  17.185   3.836  14.098  0.0590 -0.0694  0.2776
15457W        W31641  10.723  18.299  11.582 -0.0353  0.1388  0.0790
15458W        W31642   4.149  10.299  13.627 -0.2702 -0.3246  0.1183
15459W        W31643  17.494   0.511   3.039  0.0301  0.1955  0.0894
15460W        W31644   4.072  10.198   3.622 -0.3014 -0.0651 -0.0050
15461W        W31645  10.358   8.174   5.082 -0.0543  0.2152  0.1057
15462W        W31646   5.033   2.165   5.337  0.0048  0.1947 -0.3025
15463W        W31647   9.040   4.097   4.237 -0.0700 -0.1131 -0.0529
15464W        W31648  18.839   7.908  12.110  0.0335  0.3440 -0.2374
15465W        W31649   7.930   3.129  12.463 -0.1539 -0.1417 -0.0851
15466W        W31650  13.480   5.617  13.536  0.1070 -0.1494 -0.3825
15467W        W31651  12.977   2.701   1.662 -0.2748 -0.1244 -0.0832
15468W        W31652   6.154  10.394  11.193  0.1628 -0.0512 -0.0055
15469W        W31653  13.239  13.355   4.449 -0.0097 -0.2138  0.0269
15470W        W31654  10.815   2.537  10.840 -0.2257  0.1382  0.2092
15471W        W31655   2.581  13.729  13.008  0.0903  0.1065 -0.1625
15472W        W31656   4.945   0.110   2.680  0.1315 -0.1679 -0.0573
15473W        W31657  12.219  11.024  11.811 -0.1432  0.3779  0.0688
15474W        W31658   1.419  11.862   1.233 -0.0950 -0.2756 -0.3558
15475W        W31659   9.690  14.665  14.069 -0.1887  0.2153 -0.1637
15476W        W31660   4.887   7.559   0.291 -0.0283 -0.1567 -0.2159
15477W        W31661  17.261   2.657  14.831 -0.0777 -0.0262  0.2932
15478W        W31662  18.413  17.299  11.156 -0.1395 -0.2258  0.3860
15479W        W31663   9.640   2.356  15.201  0.3121 -0.2436  0.1337
15480W        W31664   4.486  11.172  12.381  0.0371 -0.0402  0.5577
15481W        W31665   2.943   5.643   0.011 -0.1889 -0.1452 -0.0970
15482W        W31666  17.912  11.200   0.579  0.0326  0.1942 -0.2340
15483W        W31667  15.532  13.326  10.374  0.0661  0.0248  0.0131
15484W        W31668  17.385  17.941  12.326  0.2000  0.1811 -0.3950
15485W        W31669  14.323   5.244  11.989  0.2542  0.1470  0.2162
15486W        W31670  15.049   1.308  13.312  0.0400 -0.2855 -0.1813
15487W        W31671   8.253   3.299  13.274 -0.0445 -0.2226  0.3306
15488W        W31672  13.034  17.947   0.433  0.0349  0.1900  0.2886
15489W        W31673   3.650   3.142   3.453  0.1823  0.0629  0.0012
15490W        W31674  17.302   2.200   0.528 -0.1139 -0.1490 -0.2222
15491W        W31675  15.003  10.923   3.096  0.1135  0.1640 -0.0952
15492W        W31676   7.672  16.846   1.843 -0.0403  0.0209 -0.1534
15493W        W31677   2.028   0.490   4.993 -0.0123  0.0814 -0.1681
15494W        W31678   5.340  16.680   4.249  0.0050 -0.0794 -0.0200
15495W        W31679   6.591  17.838   0.900  0.0592  0.3375  0.0488
15496W        W31680  16.870   0.248  12.831 -0.1288  0.2156 -0.2651
15497W        W31681   8.769  11.469   3.400  0.1074 -0.1020  0.2778
15498W        W31682   6.827   3.447   1.211 -0.0838  0.1613 -0.0640
15499W        W31683   0.298  18.066  13.287  0.2669  0.1107  0.1487
15500W        W31684   1.427   0.145  12.014 -0.0891 -0.2467  0.2102
15501W        W31685  16.557   5.794   1.757  0.0072 -0.0500  0.3247
15502W        W31686  12.913  15.374   2.638  0.1220  0.1768  0.1391
15503W        W31687  14.091  14.115  11.943  0.1207  0.2556  0.0293
15504W        W31688   8.180  15.007  13.592 -0.1554 -0.0512  0.2361
15505W        W31689   2.742  16.170   4.618 -0.3005  0.5399 -0.1684
15506W        W31690   2.182   5.951  12.229 -0.0997  0.1402  0.0910
15507W        W31691   8.399   3.668  14.621  0.4209 -0.1976 -0.0001
15508W        W31692  12.465   4.115   1.963  0.0257 -0.1286 -0.0740
15509W        W31693  15.311   5.193   4.546 -0.0733  0.0085  0.0552
15510W        W31694   7.148   5.201   4.977 -0.1496  0.3405 -0.4137
15511W        W31695   0.161   8.632   4.834  0.1089  0.2158  0.0064
15512W        W31696  18.019  16.508   0.964 -0.1927  0.0707  0.0148
15513W        W31697   3.459  17.767   5.281  0.0580 -0.0743 -0.1736
15514W        W31698   2.380  18.192   4.746 -0.0315 -0.0651  0.2083
15515W        W31699   0.061  18.965   4.821  0.0081 -0.2011  0.0861
15516W        W31700  14.467  10.560   0.633 -0.0255  0.2396 -0.1197
15517W        W31701  12.921   8.859  14.363 -0.1543 -0.0323 -0.4491
15518W        W31702   8.176  14.038  13.048  0.1305  0.1811  0.2317
15519W        W31703   2.187  13.679  11.432 -0.4617 -0.0821  0.0643
15520W        W31704  17.939  16.813   2.182 -0.2203  0.0467  0.1282
15521W        W31705   1.211  12.276   0.966 -0.0089 -0.1627  0.1345
15522W        W31706   3.694   9.658  12.757  0.0315  0.1746 -0.0162
15523W        W31707  14.094   1.214  10.422  0.0762 -0.0504  0.0303
15524W        W31708   3.049   7.315   9.644 -0.0830  0.3884 -0.0451
15525W        W31709  11.855   9.757  13.339  0.0173 -0.2840  0.0692
15526W        W31710   2.020  13.325   3.886 -0.1037 -0.0997  0.0282
15527W        W31711  14.910  12.005   1.271 -0.1036 -0.0956 -0.0968
15528W        W31712   6.830  15.761  11.635  0.3445 -0.0202  0.0157
15529W        W31713  13.692  12.262   5.111  0.3229  0.1324  0.0219
15530W        W31714  14.860  16.019  15.194  0.0996  0.2696  0.0880
15531W        W31715  11.470   0.633  15.268 -0.0766 -0.3306  0.1771
15532W        W31716  16.387  14.941   4.229  0.0992  0.0220 -0.0540
15533W        W31717   9.836  16.544   3.522 -0.1315 -0.2900  0.0395
15534W        W31718   5.931   2.055  14.238  0.1524  0.1843  0.1714
15535W        W31719   1.734   1.892   4.579 -0.1269 -0.3221  0.0543
15536W        W31720   4.885  13.193  13.533 -0.2051  0.2500  0.0864
15537W        W31721  12.846   4.557  14.287  0.0108 -0.2214 -0.0503
15538W        W31722   8.811  16.327   5.470  0.0470  0.0257 -0.2662
15539W        W31723   3.997   5.492   1.400  0.0432  0.1107 -0.0422
15540W        W31724   8.131   1.182   3.973  0.3310 -0.2997 -0.1320
15541W        W31725  12.618  13.556   5.306  0.0666 -0.0659 -0.0900
15542W        W31726  13.319   1.696  13.346  0.2686 -0.4866 -0.4016
15543W        W31727  11.728  17.998   0.501  0.1353 -0.1117  0.3294
15544W        W31728   3.306  10.740   2.712  0.1200 -0.2880 -0.2612
15545W        W31729   5.323  12.375  14.808 -0.1468  0.0191  0.0223
15546W        W31730  16.391   5.976  14.397 -0.0181 -0.0647  0.0103
15547W        W31731  13.622  15.616   2.338 -0.1978 -0.1444 -0.3332
15548W        W31732  17.971   6.759   2.855  0.0928 -0.2791 -0.0054
15549W        W31733  13.342   1.309  12.535  0.0299  0.2731  0.0005
15550W        W31734  11.794  17.552   2.336 -0.0289 -0.5391 -0.2564
15551W        W31735   2.200   3.762  15.206 -0.1374 -0.1129  0.0294
15552W        W31736  10.127   2.426   0.336  0.1543  0.1560  0.0518
15553W        W31737  10.359   0.905   1.920 -0.1422  0.1986 -0.1629
15554W        W31738  18.260   4.848   0.065  0.0592  0.3350 -0.0102
15555W        W31739  17.181  11.422   4.538  0.1827 -0.0212  0.1856
15556W        W31740   0.134  12.104  13.960 -0.2825  0.1116 -0.2424
15557W        W31741  16.809   0.890   4.072  0.0280 -0.1235  0.3342
15558W        W31742   3.520  14.872   5.803 -0.1728 -0.2021 -0.2092
15559W        W31743   8.889  11.204  11.631  0.2026 -0.1660  0.2467
15560W        W31744   1.048  15.996  11.833  0.0179  0.1389  0.1641
15561W        W31745  18.880   2.305  11.753  0.1907 -0.0173 -0.0828
15562W        W31746   1.551   2.455  14.376 -0.0077 -0.4210 -0.0783
15563W        W31747   6.598   4.647  14.231  0.1020 -0.1423 -0.0003
15564W        W31748   8.288  18.621   0.821 -0.1509 -0.0737 -0.2264
15565W        W31749  18.233  15.040   5.147 -0.1045 -0.2053  0.2398
15566W        W31750   9.435  14.904  14.835  0.0582  0.0362 -0.1780
15567W        W31751   9.693   7.056  10.604 -0.2114 -0.3468  0.0565
15568W        W31752   6.069   5.004   2.942 -0.0468  0.0325 -0.0979
15569W        W31753   0.643   1.188   0.312  0.0216 -0.3055  0.0400
15570W        W31754  14.202  10.311   4.455  0.1022  0.1395  0.0676
15571W        W31755  13.826  18.895  12.593  0.1493 -0.1740 -0.0689
15572W        W31756  16.776  14.818   1.507 -0.0918 -0.1234 -0.0972
15573W        W31757  18.477  11.018  10.953 -0.1033  0.2398  0.1817
15574W        W31758  16.156   9.724  12.289 -0.0741  0.0548  0.0018
15575W        W31759  18.985   3.200  11.343  0.2104  0.2999  0.0084
15576W        W31760   7.851   2.723  12.204 -0.0606  0.4278 -0.0558
15577W        W31761   7.340  15.829   3.228 -0.0189  0.0011 -0.0826
15578W        W31762   4.896  17.880  15.176 -0.2535  0.0848  0.0532
15579W        W31763   4.610   5.372  12.440  0.1969  0.3716  0.2151
15580W        W31764  12.169   2.845   1.555 -0.1684  0.1707 -0.2788
15581W        W31765  14.529   0.563   4.490 -0.0014 -0.2736  0.1101
15582W        W31766   8.891   7.238   0.521  0.3236  0.0339 -0.1855
15583W        W31767   8.668   6.371   1.035 -0.0417  0.0535 -0.0534
15584W        W31768   4.877   7.502  12.386  0.2747 -0.0740  0.1391
15585W        W31769   9.579   4.392  11.519  0.1669 -0.4064 -0.5355
15586W        W31770   3.066  12.424  14.833  0.0884  0.0621 -0.2385
15587W        W31771   6.257  16.543  11.534  0.5014  0.2628  0.1530
15588W        W31772   0.330  17.855   2.177 -0.0458  0.2031 -0.1992
15589W        W31773   8.517  10.508  12.297  0.0398  0.3466 -0.0222
15590W        W31774  14.903  12.098  12.528 -0.1700 -0.2576 -0.0224
15591W        W31775  18.644   1.803   2.213 -0.0379  0.0038 -0.1437
15592W        W31776  15.147  11.222   5.849  0.0242 -0.2377 -0.0113
15593W        W31777   8.948  14.989  11.508  0.2227  0.2050 -0.2315
15594W        W31778  17.013   5.902   3.460  0.0194  0.3586  0.1793
15595W        W31779   9.310   5.792   5.082  0.3748 -0.0497  0.1187
15596W        W31780  13.077   8.252  13.763  0.3537  0.2636  0.0261
15597W        W31781   1.450  13.130  15.381  0.1957 -0.1145  0.0267
15598W        W31782   7.332   6.316   1.224 -0.2767  0.1378 -0.0275
15599W        W31783   2.203   5.649  14.580  0.0166 -0.1555 -0.2811
15600W        W31784  10.579  16.582   4.383  0.4251 -0.0904 -0.2446
15601W        W31785  10.229  12.558  11.501  0.3178 -0.5514  0.1286
15602W        W31786  10.720  17.297   3.798  0.0921  0.1915  0.0997
15603W        W31787  16.601  13.956  12.366  0.1445 -0.1158  0.2012
15604W        W31788   2.172   6.611  13.514 -0.1568  0.0538  0.0503
15605W        W31789   0.145   0.599  14.405 -0.1042  0.2292  0.1985
15606W        W31790   0.747   4.620  15.040 -0.0398  0.0557  0.1541
15607W        W31791   1.843  16.356   3.568 -0.1584 -0.1937  0.0477
15608W        W31792   5.980  17.067   0.564 -0.1907 -0.3367 -0.4581
15609W        W31793  14.535  17.171   1.405 -0.1656 -0.0678  0.0299
15610W        W31794   1.461   4.881   5.893  0.1127 -0.1034 -0.0225
15611W        W31795  18.900  18.376   0.776 -0.2346 -0.2016 -0.2540
15612W        W31796   2.728  18.954  10.797  0.2290  0.1453  0.0238
15613W        W31797   0.989  17.343   0.059  0.2795  0.1836 -0.1093
15614W        W31798   9.787  13.517   4.207 -0.1834  0.4336  0.2684
15615W        W31799   3.784   8.567   1.183  0.1780 -0.3411  0.1444
15616W        W31800   9.810   7.129  11.881 -0.2421 -0.2393  0.3052
15617W        W31801   1.471   1.615  10.529 -0.4139 -0.0496  0.3922
15618W        W31802  17.442  11.360  11.563 -0.1068 -0.1562  0.0238
15619W        W31803   9.819  15.615  14.254 -0.2978 -0.3061 -0.0509
15620W        W31804   4.768   8.960  15.282  0.0235  0.2008  0.1547
15621W        W31805   7.509   1.540   1.989  0.3045 -0.2489  0.3378
15622W        W31806   0.724   2.354   4.972 -0.0957  0.1575 -0.4158
15623W        W31807   7.050  11.013   5.403  0.0900 -0.2660 -0.2260
15624W        W31808   0.874  14.358   4.267 -0.1065  0.0312 -0.2383
15625W        W31809   4.145   0.256  10.694  0.1567 -0.0939 -0.4549
15626W        W31810   7.971   5.663  10.749  0.0006  0.1990 -0.1822
15627W        W31811  10.187  16.343   0.183  0.2044 -0.1268  0.2802
15628W        W31812  15.064  13.443   0.848 -0.0974 -0.0043  0.1500
15629W        W31813  17.856   0.291   4.630 -0.2949  0.0359  0.2372
15630W        W31814   7.106   0.122   0.680  0.0966 -0.1872  0.0010
15631W        W31815   5.195  10.099   0.162 -0.2312  0.0822  0.0027
15632W        W31816  11.004   2.932   3.192  0.2173  0.2390  0.2005
15633W        W31817  18.339   4.796   3.330 -0.3286  0.1229 -0.0051
15634W        W31818  10.856   6.071   4.563 -0.1759 -0.1038  0.0475
15635W        W31819  16.985  18.249   1.132 -0.2151  0.0545 -0.1693
15636W        W31820   5.716  18.708   5.571 -0.0139  0.0416  0.2956
15637W        W31821   7.910   6.526  11.336 -0.3845  0.1155  0.0122
15638W        W31822  12.663   4.282   2.483 -0.0258  0.2253  0.0884
15639W        W31823  13.820   9.099  10.212 -0.1576  0.0952 -0.0069
15640W        W31824   3.417  13.766   3.342  0.1219  0.0904 -0.1604
15641W        W31825   6.427  11.437   4.944 -0.2128 -0.0238  0.0115
15642W        W31826  14.233  16.003  12.020 -0.1398  0.0652 -0.1812
15643W        W31827   6.581  11.884  13.759  0.3907 -0.1748  0.4689
15644W        W31828  12.099  18.552   1.950 -0.3208  0.0984 -0.1804
15645W        W31829  18.921   4.405   4.954 -0.0811 -0.3106 -0.1535
15646W        W31830   2.473  12.551  13.692 -0.0432  0.2799  0.2271
15647W        W31831   3.036  17.649   1.673  0.2750 -0.0495 -0.2506
15648W        W31832  16.162   5.780   3.638 -0.0815 -0.0642 -0.1522
15649W        W31833  16.110   4.571  10.579 -0.0432  0.0438 -0.1181
15650W        W31834  18.299  14.864   4.424 -0.0481  0.0836  0.0036
15651W        W31835  18.121   7.552  13.712  0.4818 -0.0081  0.1279
15652W        W31836   5.886   4.556   4.275 -0.2329 -0.0762 -0.0079
15653W        W31837  15.816  11.778   1.059  0.0988  0.3161  0.1829
15654W        W31838  16.203  18.008  14.631 -0.1178 -0.1907 -0.0249
15655W        W31839   6.942  11.899   5.288  0.0458 -0.2142 -0.2104
15656W        W31840   4.407   9.830  13.966  0.1729 -0.1265  0.0267
15657W        W31841  16.396  12.401  13.364  0.2435  0.0942 -0.0254
15658W        W31842  13.804  12.883   2.657 -0.0480 -0.3234 -0.1543
15659W        W31843  12.365   6.987  14.103  0.0346  0.0753 -0.1404
15660W        W31844  15.299  18.567  11.548  0.1770 -0.2588  0.1213
15661W        W31845   8.039   6.946  13.951  0.1743  0.0672  0.2558
15662W        W31846   0.406   6.457   0.477  0.1385 -0.1552  0.1039
15663W        W31847  17.931  12.219   2.118  0.1801  0.1602 -0.3769
15664W        W31848   7.534   2.795   4.974  0.2211  0.1262 -0.1095
15665W        W31849  18.508  17.773  11.331  0.0726 -0.1270  0.1791
15666W        W31850  18.073   5.199  13.342 -0.2152 -0.1621 -0.0943
15667W        W31851  17.514   0.543   0.868 -0.4187  0.1144  0.0023
15668W        W31852   4.171   4.433   0.230 -0.2423 -0.2422 -0.2522
15669W        W31853   8.149   1.685  10.747  0.2942 -0.0968  0.1320
15670W        W31854  14.432   1.492   0.168  0.0232  0.2140 -0.2122
15671W        W31855   9.482  17.738  10.843  0.1031 -0.0999 -0.2540
15672W        W31856   1.403  18.776  14.841 -0.0785  0.0094  0.3702
15673W        W31857  11.439   2.732   0.044 -0.3193  0.1398 -0.0404
15674W        W31858   9.967  18.045  14.356  0.2109 -0.0955  0.2098
15675W        W31859   5.074   9.984   2.639 -0.0680  0.2515 -0.1495
15676W        W31860   2.613  18.702  13.826  0.0732  0.2068  0.2929
15677W        W31861   1.834   9.629   2.652  0.1831  0.0512  0.2415
15678W        W31862   8.432   7.989   3.799 -0.1270 -0.1825 -0.0156
15679W        W31863   1.264  14.441   0.872  0.1213  0.1522 -0.1278
15680W        W31864   3.154  12.392   5.010 -0.1981 -0.1623  0.1383
15681W        W31865   3.564  12.175   5.259 -0.1179  0.4245 -0.5374
15682W        W31866  13.114   1.142  13.329 -0.2021  0.1151  0.3133
15683W        W31867  10.170  14.060  13.356  0.0616 -0.3058  0.3106
15684W        W31868  18.463   8.324   5.447 -0.1996 -0.0251  0.0547
15685W        W31869  12.515   7.583   3.021  0.0759 -0.1020 -0.3126
15686W        W31870  11.972  18.528  12.168  0.0978  0.0723 -0.2997
15687W        W31871  11.271   9.787   0.375 -0.0908 -0.1827  0.1908
15688W        W31872   7.445   4.068   0.482 -0.2404 -0.2374  0.0278
15689W        W31873  12.633  17.214  13.280  0.2926 -0.0182 -0.0831
15690W        W31874   8.257   9.672  15.202 -0.2424 -0.2941  0.3600
15691W        W31875  13.857  18.277  13.241 -0.4879  0.2535 -0.0248
15692W        W31876   3.608   9.660  14.342  0.3697  0.1063  0.3860
15693W        W31877  12.024   9.785   9.613 -0.1628 -0.1288  0.2684
15694W        W31878  12.995  13.259   0.123  0.1872 -0.0550 -0.0168
15695W        W31879   5.164   8.195  14.031  0.2682  0.0643 -0.0114
15696W        W31880  17.967  16.482   5.792 -0.1158 -0.2106  0.2297
15697W        W31881  11.731   0.391  10.931  0.0249  0.0315  0.0675
15698W        W31882  14.927  16.328   4.926 -0.4189 -0.0596 -0.1437
15699W        W31883  11.372   3.269   0.466 -0.1833  0.1444 -0.1154
15700W        W31884   2.620  11.141   2.816  0.3937  0.1479 -0.2619
15701W        W31885  15.363   9.626  10.220 -0.2066 -0.1619  0.1599
15702W        W31886   1.824   4.889   4.276 -0.0541 -0.4200 -0.3621
15703W        W31887  16.588  16.832  12.018  0.0333  0.1787  0.1201
15704W        W31888  11.732   6.696  12.511  0.1035  0.0002 -0.0122
15705W        W31889   7.462  13.757  11.722 -0.0651  0.0522  0.3510
15706W        W31890  13.617  16.591   2.954  0.2091 -0.3342  0.0941
15707W        W31891   4.445   7.179  14.402  0.4115  0.2843 -0.3071
15708W        W31892   4.377   9.389   2.086  0.2161 -0.1209 -0.1136
15709W        W31893  12.549   9.745   3.180 -0.1214 -0.0521  0.0179
15710W        W31894   2.824   5.022   4.569  0.0336 -0.1630 -0.2886
15711W        W31895   2.902  14.176   4.780  0.0768  0.2354  0.3066
15712W        W31896   7.736   0.448   1.237 -0.0460  0.2329 -0.1527
15713W        W31897  15.486  15.387  12.665  0.3458  0.1254  0.2204
15714W        W31898  12.930  12.776   0.580  0.2812 -0.1795 -0.0535
15715W        W31899  11.743   6.993   1.671  0.1758 -0.0464 -0.1655
15716W        W31900  13.364   9.732  14.626  0.0565  0.2291  0.1493
15717W        W31901  13.186  11.551   9.543  0.1988  0.0667 -0.0200
15718W        W31902   0.377   8.284  11.374  0.2571 -0.0784  0.1230
15719W        W31903  17.082  16.118   5.292  0.0760  0.2346 -0.1037
15720W        W31904   2.386   4.848  12.537 -0.2206 -0.1294 -0.6223
15721W        W31905   3.854   7.317   5.208 -0.0511 -0.0836 -0.0954
15722W        W31906  10.950  17.835  12.779  0.0545  0.0545 -0.2735
15723W        W31907  18.772  16.109  12.330  0.2641  0.1877 -0.0776
15724W        W31908   6.965   4.462   2.315  0.0628 -0.1683  0.2477
15725W        W31909  18.109  17.356   5.732 -0.0137  0.1545  0.0383
15726W        W31910  12.255   3.150   3.762 -0.2491  0.0235 -0.0884
15727W        W31911   6.263  18.157   2.076  0.1404  0.0143 -0.2272
15728W        W31912   9.340   8.953  11.003  0.1667 -0.1128  0.2669
15729W        W31913   8.012  10.552   1.855  0.1250  0.0541 -0.0047
15730W        W31914  15.900  15.555   5.403  0.0600  0.2798  0.1712
15731W        W31915   5.284   6.417  10.924 -0.1710  0.1776 -0.1017
15732W        W31916  18.319   0.906  13.490 -0.1611 -0.0934 -0.1444
15733W        W31917  12.440  14.019   0.364 -0.1653 -0.2875  0.2050
15734W        W31918  13.837   3.079  13.341 -0.0475 -0.2458  0.2801
15735W        W31919  11.929  18.830  11.682 -0.0444  0.0997  0.1673
15736W        W31920  17.988  11.360  13.092 -0.1781  0.1049  0.0396
15737W        W31921  12.866   3.860   3.655 -0.0651 -0.1461  0.2535
15738W        W31922   2.694   5.833  12.245  0.1723 -0.0626 -0.1530
15739W        W31923   3.072  12.274   2.278  0.0598  0.0075  0.1298
15740W        W31924  16.942   9.198   4.433 -0.3277  0.2119 -0.3124
15741W        W31925   2.189  18.983  11.895 -0.1395  0.2573 -0.2795
15742W        W31926   5.228  18.114  11.756  0.0780 -0.2872  0.0075
15743W        W31927   3.711  12.491  11.975  0.1398  0.1466 -0.2523
15744W        W31928  15.720  16.377   4.120  0.1741 -0.0873 -0.4402
15745W        W31929   6.796  18.892   2.511 -0.1199  0.1115 -0.2686
15746W        W31930  10.175  13.168  15.030  0.0425 -0.3112  0.2656
15747W        W31931   2.341  18.766   5.365  0.1982  0.0390 -0.1479
15748W        W31932  16.694   8.083  15.261 -0.1824  0.1445  0.0214
15749W        W31933  14.927  12.592  15.276  0.0235  0.0540  0.4080
15750W        W31934  15.594   8.687  12.155  0.1715  0.1167  0.1169
15751W        W31935  13.383  18.547   5.500  0.1904  0.1187  0.3227
15752W        W31936   2.323  12.510   2.743 -0.0932 -0.1526 -0.0927
15753W        W31937   7.823   5.803  11.238 -0.0907 -0.1593 -0.0576
15754W        W31938  13.037  16.897  14.493  0.1292  0.1068  0.3567
15755W        W31939  13.363  12.402  13.026 -0.4026  0.1074  0.0337
15756W        W31940  14.533   8.560   3.246 -0.2558 -0.0362  0.0235
15757W        W31941  13.722   0.855  14.995  0.2095 -0.1226 -0.1701
15758W        W31942   2.054   1.624  14.681  0.0151  0.4116  0.0598
15759W        W31943   6.030  13.664   0.363 -0.0724 -0.1513  0.2561
15760W        W31944  17.289  12.052  12.926 -0.3970  0.2298 -0.0283
15761W        W31945  14.298   6.029   5.663 -0.3359  0.3275  0.2178
15762W        W31946  11.061  11.141  12.504 -0.0139 -0.2447  0.1434
15763W        W31947  12.748   7.353   2.678 -0.1936 -0.0730 -0.1017
15764W        W31948  15.143   7.407  14.753  0.4835  0.1600  0.0547
15765W        W31949   5.911   0.773   0.788  0.0263 -0.0155 -0.0465
15766W        W31950   9.788  13.805  11.764 -0.1607  0.3308  0.2331
15767W        W31951  13.985   8.267  11.818  0.1651 -0.3236 -0.0803
15768W        W31952  13.848   5.385  12.636  0.1389 -0.3499 -0.0137
15769W        W31953  12.145  10.554  11.084  0.0305 -0.2174  0.1829
15770W        W31954  10.349   8.543  10.483 -0.0880 -0.0319  0.0555
15771W        W31955   5.422  10.010  12.406 -0.1075 -0.1507 -0.0967
15772W        W31956   4.175   5.688  12.754  0.1968 -0.2025  0.3744
15773W        W31957  17.939  13.111   3.138 -0.0997 -0.0961 -0.1017
15774W        W31958  16.089  14.240   3.673 -0.1076  0.0371 -0.0067
15775W        W31959   0.953  17.730   4.753 -0.2178 -0.0817  0.0355
15776W        W31960   4.297   6.692   4.774  0.0498  0.1886 -0.3558
15777W        W31961  15.924   6.295  14.842  0.1541  0.0782 -0.0004
15778W        W31962   8.407  15.531  14.226 -0.0000  0.1087  0.0255
15779W        W31963   1.229  10.756  13.732 -0.1521 -0.4262 -0.0403
15780W        W31964   9.104  14.405  13.876  0.1562 -0.5342  0.1437
15781W        W31965  16.310   7.281  10.749 -0.0619 -0.3986  0.3759
15782W        W31966  14.388  18.185  13.523  0.1753  0.0546 -0.2168
15783W        W31967   3.116  11.958   0.567 -0.1332 -0.1110  0.0735
15784W        W31968  13.137   1.277  13.794  0.3208 -0.1817  0.1035
15785W        W31969   8.390  13.961  11.599 -0.0098  0.1108  0.1298
15786W        W31970   0.790   4.806  13.194  0.0845 -0.0533  0.0220
15787W        W31971  10.101   5.584   0.152  0.0334 -0.0163  0.0895
15788W        W31972  15.622  16.419   1.613 -0.0792  0.1715  0.0957
15789W        W31973  10.131  10.046  14.130 -0.1720  0.1063  0.0669
15790W        W31974  17.239   8.551  14.408  0.0515 -0.0239  0.0898
15791W        W31975  10.759   5.171   3.682  0.3032 -0.0829 -0.2692
15792W        W31976  10.726   1.599   3.459 -0.0388 -0.0604 -0.1848
15793W        W31977  18.276  17.654  14.334  0.0897  0.1544  0.2369
15794W        W31978  10.036   7.242  14.843  0.0781 -0.2080  0.1267
15795W        W31979  17.636  12.197   4.728 -0.1929 -0.3386  0.2136
15796W        W31980   6.036   4.856  10.287 -0.0813 -0.3220 -0.1495
15797W        W31981  14.467   0.501  13.704 -0.1271  0.0300 -0.1305
15798W        W31982  16.992  17.250  12.926  0.0350  0.0877  0.3538
15799W        W31983   3.913   1.143  14.439  0.2589 -0.0605  0.0089
15800W        W31984  12.186  16.214   4.783 -0.2616 -0.1205  0.2657
15801W        W31985  18.733   8.222  12.547 -0.1871  0.0804  0.2518
15802W        W31986   3.287  11.985   1.314  0.2922 -0.2736  0.0621
15803W        W31987  12.068  13.205  10.716 -0.0264  0.0078  0.2481
15804W        W31988   0.623   4.141   6.055 -0.0269 -0.2093 -0.0308
15805W        W31989   9.344   7.403   1.269  0.0645 -0.3866  0.1663
15806W        W31990  16.843  17.030   1.233 -0.1740 -0.0105  0.1271
15807W        W31991   2.230   6.557  13.048  0.1387 -0.2655 -0.1101
15808W        W31992  17.044   6.103  11.065  0.2464  0.2299  0.0513
15809W        W31993   6.813  12.028   0.658  0.0421  0.0632  0.2586
15810W        W31994  18.099   4.853   2.260 -0.2989  0.3342 -0.2448
15811W        W31995  15.118   9.248  15.044  0.0683  0.4605 -0.0397
15812W        W31996  17.754   7.157  13.654 -0.1262 -0.0929 -0.0151
15813W        W31997   3.924   3.383  10.418 -0.0520 -0.3156 -0.2665
15814W        W31998   9.246  18.136   9.394  0.3100 -0.0320 -0.1937
15815W        W31999   1.169  14.670   2.422 -0.0467 -0.0400 -0.1596
15816W        W32000   7.511   9.842   5.048  0.0302  0.2729 -0.4244
15817W        W32001   2.139   8.852  12.706  0.4100 -0.0497  0.0519
15818W        W32002   8.857   1.602   3.301 -0.0340 -0.1704 -0.5422
15819W        W32003  15.315  13.401  13.802  0.1360 -0.2644 -0.0641
15820W        W32004   3.153  12.444  10.538 -0.0315  0.1669 -0.1046
15821W        W32005  11.312   4.635   0.512  0.3334  0.1589 -0.0808
15822W        W32006   4.348  15.404   0.875  0.1053  0.1522  0.1630
15823W        W32007  13.619   9.141   2.181  0.2438 -0.1771 -0.1923
15824W        W32008   8.689   2.862   2.583 -0.2970  0.0932  0.2454
15825W        W32009   4.571   9.749   2.364 -0.0456  0.1032 -0.0537
15826W        W32010  17.893   5.075   2.707 -0.1109 -0.1766 -0.1743
15827W        W32011  12.983   1.053   5.473 -0.0839  0.0422  0.0286
15828W        W32012   5.798  13.030  14.191 -0.2176 -0.4730  0.1413
15829W        W32013  15.518  11.556  15.055 -0.4237  0.2746 -0.2073
15830W        W32014   5.295  16.414  12.606 -0.0017  0.7021  0.2551
15831W        W32015   1.071   1.191   1.905  0.0739  0.4044  0.4713
15832W        W32016   6.466  18.800  14.408 -0.0798  0.0027 -0.0000
15833W        W32017  18.341   5.948  13.731  0.1063  0.2881 -0.0721
15834W        W32018   5.732  17.556   4.079 -0.1958 -0.1543  0.2163
15835W        W32019   9.752   4.689  13.012 -0.2056  0.0631  0.0384
15836W        W32020   0.203   9.132   3.063 -0.3229 -0.2094 -0.0828
15837W        W32021  11.763  14.769  10.657 -0.1502  0.2403 -0.0855
15838W        W32022  10.976  15.930   3.218  0.1796  0.1675 -0.1675
15839W        W32023   8.004  18.857   1.196  0.0095  0.1927  0.2291
15840W        W32024  12.418   2.098   4.302 -0.0371 -0.1883 -0.0371
15841W        W32025  10.841   5.428   2.108 -0.0610 -0.0091 -0.1611
15842W        W32026  12.708  10.214  14.313 -0.0015 -0.2197  0.0837
15843W        W32027  14.446  11.034   1.723  0.1541  0.0866  0.2441
15844W        W32028  10.807  11.862   5.563 -0.1373  0.2989  0.0138
15845W        W32029  13.814   0.801   4.589  0.1876 -0.0956  0.1118
15846W        W32030  11.900  18.855  14.297  0.1944  0.0519 -0.0336
15847W        W32031   5.295   3.334  11.461 -0.1885 -0.0422  0.2917
15848W        W32032   4.062  15.793  12.868  0.0245  0.1117  0.3838
15849W        W32033  13.870  18.668   4.682  0.1019  0.1508 -0.1920
15850W        W32034   5.129  15.869   3.825 -0.1367 -0.0752 -0.5827
15851W        W32035   4.313   9.900   2.860 -0.1469  0.0364  0.0011
15852W        W32036  12.531   4.445  14.872  0.0057 -0.1779 -0.1965
15853W        W32037   5.864   0.217  10.614 -0.2732 -0.0184 -0.0066
15854W        W32038  15.437  11.329   0.152  0.1949 -0.0342 -0.2876
15855W        W32039   2.389  16.098  13.108 -0.1752 -0.0412 -0.0553
15856W        W32040  18.980   5.637  13.882 -0.2930  0.0978 -0.0258
15857W        W32041  14.065  17.006  12.693  0.3176 -0.0678  0.1262
15858W        W32042   4.515  11.004   2.634  0.1686  0.2629 -0.0863
15859W        W32043   4.494   9.308   4.285  0.0281 -0.1460 -0.0557
15860W        W32044   2.653   9.136   1.580 -0.3698 -0.0369 -0.0703
15861W        W32045   1.481   1.487   1.970 -0.1048 -0.0243 -0.1343
15862W        W32046   7.169   9.460   4.620  0.1564  0.0556  0.0911
15863W        W32047  15.535   6.719  11.479 -0.0643 -0.2841  0.3147
15864W        W32048   9.994  18.027   1.893 -0.2139 -0.0371  0.0254
15865W        W32049   0.456   4.571   0.075  0.1425  0.2097 -0.1431
15866W        W32050   7.941   8.983  12.044 -0.3715 -0.2094  0.0948
15867W        W32051   9.944   2.985  13.751  0.1454  0.0187 -0.0254
15868W        W32052   8.035  10.778  14.024  0.1450 -0.3566 -0.1175
15869W        W32053  18.590   3.991  11.663 -0.2420 -0.3570  0.0924
15870W        W32054   1.371  13.860   2.584 -0.0780  0.1554 -0.1080
15871W        W32055   5.792   7.525  14.951 -0.3625 -0.0522  0.0428
15872W        W32056  10.403   7.561   2.981 -0.0575  0.1748 -0.0540
15873W        W32057  14.272   3.166   1.329  0.0087  0.2941  0.1641
15874W        W32058   4.002   1.072  13.956 -0.0947  0.0051  0.1370
15875W        W32059   6.261  14.364   3.989  0.0550  0.1013  0.1853
15876W        W32060  17.328   7.382   0.894  0.5408  0.0201  0.1998
15877W        W32061   4.789   3.529  11.563 -0.1072  0.0720 -0.1307
15878W        W32062  11.119   5.887  12.622  0.1537  0.0555 -0.2587
15879W        W32063   6.516   3.154   0.410 -0.0723  0.0626  0.2054
15880W        W32064   0.991   4.759  11.468  0.1357 -0.0128  0.1295
15881W        W32065  16.098   9.348   0.020  0.2304  0.3927 -0.2529
15882W        W32066  15.708  17.813  14.762 -0.0598  0.1382  0.0541
15883W        W32067  11.770   1.862  12.517 -0.2921 -0.1518 -0.0186
15884W        W32068   7.388   5.420   1.655  0.1296  0.1063  0.0836
15885W        W32069  15.372  14.773  11.197 -0.0340  0.0532 -0.1291
15886W        W32070  13.110  17.968  10.235 -0.3286 -0.1456  0.2084
15887W        W32071  10.607   0.230  12.293  0.0850 -0.0293 -0.0242
15888W        W32072   6.120   8.693   9.729 -0.1429 -0.1010 -0.0559
15889W        W32073  17.763   0.037   2.700  0.0815  0.0187 -0.0029
15890W        W32074   3.827  14.456   3.703  0.2804 -0.3106  0.2002
15891W        W32075   4.187  16.064   4.328 -0.0158  0.1689  0.1186
15892W        W32076   8.101  18.002   4.152 -0.1460 -0.0294 -0.1541
15893W        W32077  13.865  11.849   5.500 -0.1133 -0.1494  0.0017
15894W        W32078   7.038  12.812   3.356  0.1823  0.0921  0.0141
15895W        W32079   1.642   5.340  13.481 -0.1319 -0.4911  0.0924
15896W        W32080   7.715   9.948  14.033  0.4524  0.1577  0.1846
15897W        W32081  15.597  17.209   0.482 -0.0618  0.0244 -0.0510
15898W        W32082   9.653   6.736   0.079  0.1737  0.2167 -0.1895
15899W        W32083  18.054  10.059  11.105 -0.3072  0.0089  0.1869
15900W        W32084  18.634  18.173   2.469  0.0446 -0.4321 -0.1215
15901W        W32085   5.154   0.429  11.028 -0.2121  0.1566  0.0497
15902W        W32086   5.885   0.800  15.367 -0.0987  0.2724 -0.3394
15903W        W32087   0.066  14.034  14.070 -0.0269 -0.0864  0.2936
15904W        W32088  14.450   0.375   0.662  0.1703  0.2441  0.1020
15905W        W32089   4.778   4.804   4.469 -0.3657  0.0367 -0.0012
15906W        W32090  17.629  17.325   0.512  0.5064 -0.1350  0.1737
15907W        W32091   6.684  14.996   2.277 -0.0686  0.0523 -0.1739
15908W        W32092   8.952  16.416   2.005  0.5096 -0.0817 -0.1532
15909W        W32093  15.791   3.089  11.980 -0.1209 -0.3185  0.1753
15910W        W32094   3.458   6.788   0.938 -0.3127  0.1982 -0.1135
15911W        W32095   2.935  12.909   4.894  0.2452  0.2447 -0.0272
15912W        W32096  12.170  11.947  12.641  0.1598 -0.1483  0.0162
15913W        W32097  11.653   4.030  12.496 -0.0942 -0.1230 -0.3495
15914W        W32098   3.362  15.199  13.822  0.0988 -0.0944  0.2079
15915W        W32099  15.190  11.430   1.846 -0.1630  0.0718 -0.0033
15916W        W32100  12.940   8.050  10.064  0.0987  0.2307 -0.2194
15917W        W32101  14.572  10.335   4.089  0.1203  0.0247  0.0895
15918W        W32102   6.222   8.569  13.658 -0.4021  0.2691 -0.1497
15919W        W32103  18.781  18.736   3.816  0.0270  0.0472 -0.0282
15920W        W32104   2.749   7.620   4.066 -0.1218 -0.0902 -0.1620
15921W        W32105   8.657   1.165   3.139  0.2533  0.1615  0.0835
15922W        W32106   9.838  12.239  11.703 -0.0279  0.0384  0.0843
15923W        W32107  16.120  18.170  12.753  0.4365 -0.2622  0.0850
15924W        W32108  17.409  13.015  11.728  0.3316  0.1821 -0.0519
15925W        W32109  15.891   8.459   4.694  0.1592 -0.1360  0.2672
15926W        W32110   3.482   0.064   2.947 -0.0457 -0.0594  0.0742
15927W        W32111  10.360  13.217  12.184 -0.2527 -0.1217 -0.1317
15928W        W32112   3.150  14.280   1.496 -0.0263  0.2864 -0.0523
15929W        W32113   9.642   8.283   0.017  0.1019 -0.0210  0.0774
15930W        W32114   1.076  18.284   1.453  0.1911 -0.4719  0.2948
15931W        W32115  10.872  13.329  13.396  0.0398 -0.2825  0.2079
15932W        W32116   1.609  13.625   0.471 -0.1217  0.1134 -0.2183
15933W        W32117   8.073   5.898   3.695 -0.0576 -0.2347  0.2995
15934W        W32118   4.290  16.896  13.030 -0.3363 -0.2412  0.0881
15935W        W32119  14.906   6.533  15.163  0.2076  0.1336 -0.0426
15936W        W32120   3.999   5.971   0.959 -0.2328  0.0090  0.1510
15937W        W32121  15.174  12.236   0.377 -0.1086 -0.0870  0.4119
15938W        W32122   4.577  18.080  11.568 -0.2205  0.3219  0.2029
15939W        W32123   1.222   1.334  12.014  0.1565 -0.1897  0.0910
15940W        W32124   9.275   8.351   1.766 -0.2742 -0.2673 -0.1447
15941W        W32125   2.530   4.133   2.965  0.3721 -0.1434 -0.0116
15942W        W32126  11.489   3.517  11.677  0.0409  0.0125  0.0027
15943W        W32127  12.276  14.602  12.311 -0.2115 -0.3834 -0.1730
15944W        W32128   8.022  15.085   1.250  0.0412 -0.0133 -0.0364
15945W        W32129  10.255   1.707  13.979  0.1158 -0.0110 -0.0561
15946W        W32130  17.716   4.916   3.989 -0.0229  0.2737 -0.2041
15947W        W32131   1.653   1.091   0.026  0.0645  0.0951  0.0704
15948W        W32132  12.246  15.710   0.645  0.3262  0.1569 -0.1850
15949W        W32133  14.659  18.710   2.977 -0.1024 -0.0467  0.1036
15950W        W32134  17.798   7.279  11.213  0.0634  0.2102  0.0191
15951W        W32135  10.845   1.217  11.280 -0.0679  0.0042  0.2878
15952W        W32136   6.924  12.871   0.396 -0.2637 -0.1551 -0.1423
15953W        W32137   1.498   4.075  13.450 -0.1968  0.1570  0.1807
15954W        W32138   1.270   3.213   0.166 -0.4731 -0.1227  0.1094
15955W        W32139  18.666   7.420  12.974  0.0909  0.0810  0.3521
15956W        W32140  15.177   9.605   1.911  0.2094 -0.1062  0.0555
15957W        W32141   3.915   5.273   3.530 -0.3703 -0.2688 -0.1286
15958W        W32142  14.925   4.113  11.848  0.2918 -0.3216  0.0854
15959W        W32143   4.978  17.371  11.822  0.3732 -0.1282 -0.1534
15960W        W32144   8.376   6.432   3.807 -0.0639  0.0898 -0.1360
15961W        W32145  11.162  15.737   2.194  0.2893 -0.0048  0.2648
15962W        W32146  17.014  18.724   0.658 -0.1443 -0.4356 -0.2411
15963W        W32147  13.585  11.705   1.748 -0.2543  0.0891  0.0122
15964W        W32148  18.212   2.054   2.366 -0.1708  0.3377  0.0631
15965W        W32149  18.402   6.411  14.725  0.0103  0.2456 -0.2866
15966W        W32150   4.182   6.128   2.800 -0.1422 -0.0260  0.0276
15967W        W32151  14.942   9.111  12.692 -0.1175  0.2206  0.0037
15968W        W32152   9.497   5.327  11.484  0.0747 -0.1691  0.0533
15969W        W32153   0.207   3.300   2.536 -0.1122  0.1479  0.0947
15970W        W32154   2.792  12.808  10.736 -0.0300 -0.2440  0.3855
15971W        W32155  12.813   7.556  12.964  0.1956  0.1170 -0.2949
15972W        W32156  18.158   6.488   1.434 -0.2214  0.0129 -0.2120
15973W        W32157  11.595   0.328   4.369  0.0587 -0.1036 -0.1258
15974W        W32158  17.625   7.626  12.144 -0.3349  0.3424 -0.2839
15975W        W32159  14.762  17.916  10.886  0.1891 -0.3224  0.0288
15976W        W32160  11.122  16.931  12.928  0.1543 -0.0097  0.0389
15977W        W32161  14.515   5.103   1.569  0.0194 -0.2411  0.4665
15978W        W32162  14.394  16.310   0.729  0.1976  0.1461  0.4848
15979W        W32163   0.841  15.774   2.002 -0.0274  0.0934 -0.0063
15980W        W32164   9.986   3.372   1.380  0.0613  0.2772 -0.1475
15981W        W32165   8.646  18.150  11.382 -0.1576 -0.3209 -0.0089
15982W        W32166  18.184   4.331  10.709  0.0245  0.0229 -0.0165
15983W        W32167  18.507  14.439  11.360  0.0487 -0.0069 -0.3151
15984W        W32168   7.857   7.350   3.389 -0.2577  0.0650 -0.2889
15985W        W32169   0.830  16.264   1.222  0.3631 -0.2518 -0.0373
15986W        W32170  10.698   5.934  13.741 -0.0944  0.1944 -0.0343
15987W        W32171   7.821  10.652   2.366  0.1136  0.1183 -0.0754
15988W        W32172   5.096  18.721  14.572 -0.0704  0.1163  0.0803
15989W        W32173  11.044  12.956   1.578 -0.0133 -0.0304  0.1962
15990W        W32174   7.423   9.187   5.588  0.0969 -0.0022 -0.1955
15991W        W32175  12.994   0.361  10.743  0.1306 -0.0723  0.0674
15992W        W32176   3.406   8.436  14.208 -0.0890 -0.1455  0.3354
15993W        W32177  11.895  15.658  12.354 -0.2570  0.1913 -0.0348
15994W        W32178   9.827  11.890   5.300 -0.0957  0.3715 -0.0606
15995W        W32179  12.072  15.935  11.423 -0.1131  0.1329  0.1855
15996W        W32180   1.887   7.593   1.108 -0.1335 -0.2222  0.0478
15997W        W32181   4.694   9.205   2.455 -0.0255  0.3131 -0.2367
15998W        W32182   3.686  13.357   0.011 -0.3438 -0.1418  0.0748
15999W        W32183   6.250   0.498  14.442 -0.0939 -0.1132 -0.1410
16000W        W32184  12.167   2.193   4.767  0.0413  0.2805 -0.0359
16001W        W32185  11.063   5.431  12.166 -0.0111  0.1165  0.1754
16002W        W32186   6.527  12.887  12.360 -0.0172 -0.0607 -0.0666
16003W        W32187  14.273   4.556  10.536  0.0109  0.1741  0.1059
16004W        W32188   8.595   4.419   1.945  0.0704  0.2398  0.1567
16005W        W32189  11.229  18.164  14.919  0.3230 -0.0398 -0.2064
16006W        W32190   2.361   7.145   2.973 -0.3753  0.1258 -0.0739
16007W        W32191   1.668  11.461  14.575 -0.3598 -0.3003  0.2260
16008W        W32192  12.562  12.497   2.569  0.2457 -0.2854  0.0965
16009W        W32193  13.014   5.793  15.257  0.0896  0.0237  0.0201
16010W        W32194  13.310   6.474  11.198 -0.0971  0.2366 -0.3005
16011W        W32195   3.244   5.094   0.511  0.2541  0.3796 -0.2806
16012W        W32196   0.314   6.182  12.174  0.1945 -0.1388 -0.0574
16013W        W32197  12.900  12.039  13.043  0.1191  0.0943  0.2736
16014W        W32198   1.546  12.062   3.932  0.0726 -0.0295 -0.2786
16015W        W32199  11.731  13.102   1.955 -0.0817 -0.3227  0.1332
16016W        W32200   1.486   1.923  13.028 -0.2119 -0.1455  0.1081
16017W        W32201   2.726  11.201  15.373 -0.0342  0.0730  0.1109
16018W        W32202  17.992  10.364  12.160  0.3008 -0.2939  0.3310
16019W        W32203  12.087   4.556   2.775 -0.0702  0.2047 -0.4195
16020W        W32204  10.356   9.684   2.215 -0.0917  0.0694  0.1709
16021W        W32205   5.623   7.875   3.926  0.0383 -0.3381 -0.3446
16022W        W32206  15.793  16.034  13.560  0.3572 -0.3396  0.1107
16023W        W32207   4.799   3.970   1.122 -0.4396  0.0666  0.0920
16024W        W32208   3.719   5.952  13.590  0.0214  0.0649 -0.1019
16025W        W32209  14.522   6.903  14.301 -0.2495 -0.0002  0.1666
16026W        W32210  18.920  14.710  11.364  0.2895  0.2065  0.0539
16027W        W32211   6.756   5.887  11.191 -0.0113 -0.0895 -0.0336
16028W        W32212   6.973  18.480  14.232 -0.1003  0.2306  0.1274
16029W        W32213   4.265   8.033   5.913 -0.2424 -0.1489  0.2416
16030W        W32214  16.529   9.245   0.238 -0.0002  0.1119 -0.0670
16031W        W32215  15.568  12.730  11.706  0.1065 -0.0996  0.1570
16032W        W32216   2.008  17.994  15.186 -0.0601 -0.2668  0.3124
16033W        W32217   3.494   7.702  13.596  0.2390  0.1640 -0.0742
16034W        W32218   3.845  16.165   5.085  0.3134 -0.5634 -0.0040
16035W        W32219  18.094   4.663   4.237  0.0279  0.1349 -0.3309
16036W        W32220  14.784   3.867   2.275 -0.1378  0.1290  0.0688
16037W        W32221   8.969   8.726  14.554 -0.1782 -0.1363 -0.0531
16038W        W32222   7.601   2.079  15.116 -0.1584  0.1736 -0.2129
16039W        W32223  17.632   6.541   4.565  0.2779 -0.1808  0.1643
16040W        W32224  17.870   4.147  11.091  0.1680  0.1571 -0.1186
16041W        W32225  10.249  14.998   4.932 -0.2939 -0.0376 -0.1580
16042W        W32226   3.980   2.671   1.093 -0.0329 -0.0045  0.3265
16043W        W32227   5.933   9.900   2.532  0.1409 -0.2712 -0.2642
16044W        W32228   8.860   4.362  13.472  0.0734 -0.3781  0.1039
16045W        W32229  10.716   2.913   1.016 -0.0053 -0.0498 -0.1213
16046W        W32230   0.861  16.330  12.964  0.0297  0.1375 -0.3201
16047W        W32231   1.021   4.041   5.778 -0.0049  0.2182 -0.0725
16048W        W32232   2.694   9.159  14.079  0.2426 -0.2406  0.0057
16049W        W32233   8.452   5.192  13.532  0.1601 -0.3306 -0.1990
16050W        W32234  15.892  16.470  11.282 -0.0223  0.3973  0.0361
16051W        W32235  15.759   3.833   0.278 -0.1210  0.1088 -0.3450
16052W        W32236  12.188   2.521  14.443  0.1183 -0.0439  0.1243
16053W        W32237   7.503   8.323  13.013  0.0017  0.0154  0.2156
16054W        W32238   6.698  17.000  11.316 -0.1491 -0.0403 -0.3348
16055W        W32239   7.095   5.090   2.624  0.1101  0.0243 -0.4058
16056W        W32240  13.921   0.038   1.791  0.1651  0.1079 -0.3201
16057W        W32241  17.252  12.563  15.256 -0.1414  0.2311 -0.0262
16058W        W32242  10.049  10.958   5.364 -0.2706  0.0914 -0.2019
16059W        W32243   6.621   9.290  13.553 -0.1568  0.1994 -0.0446
16060W        W32244   2.539   5.057  13.998 -0.1326  0.0951 -0.0862
16061W        W32245  14.145   0.445  11.018  0.0003  0.0854  0.3257
16062W        W32246  13.827  13.836   0.655  0.1106 -0.1029  0.2646
16063W        W32247  13.186  16.775  11.693  0.1752 -0.0093  0.0193
16064W        W32248  10.614  14.612   0.520 -0.1125  0.3064  0.2461
16065W        W32249  14.452  10.099   5.104 -0.0113 -0.1751 -0.1644
16066W        W32250  13.190  17.223   2.556 -0.3727  0.1698  0.1662
16067W        W32251   3.066   9.502   1.720 -0.1467  0.0887 -0.0966
16068W        W32252   1.006   6.202  13.016  0.2001 -0.1943 -0.1455
16069W        W32253  13.862   8.836  13.222  0.1499  0.0274  0.1938
16070W        W32254   1.750  15.543   1.947 -0.1079  0.2425  0.1401
16071W        W32255  16.072  10.759   0.792 -0.1981  0.2088  0.0193
16072W        W32256   5.954   5.018  13.772  0.1831 -0.0827 -0.0533
16073W        W32257   6.507   7.207  13.416 -0.1814 -0.0091 -0.0271
16074W        W32258  15.079   1.774  14.725 -0.2862  0.1364 -0.0557
16075W        W32259   6.095  18.388  13.814 -0.0897 -0.3391 -0.1674
16076W        W32260  18.057   7.600  12.464  0.0654  0.1514 -0.2680
16077W        W32261   3.551   2.418  11.369 -0.2176  0.2504  0.0693
16078W        W32262   4.819  16.063  15.087  0.0368 -0.3706 -0.0636
16079W        W32263  13.462  12.902   4.230 -0.0074 -0.1567  0.1841
16080W        W32264  10.617   1.399   4.083  0.2472  0.0894 -0.0384
16081W        W32265  17.917   0.289   2.260 -0.1196  0.0987  0.3162
16082W        W32266   3.274   2.705   1.207  0.0301  0.4269 -0.2909
16083W        W32267   7.112  11.489   3.377  0.2335 -0.2689  0.2848
16084W        W32268  10.303   3.545   4.284 -0.2779 -0.0636  0.0435
16085W        W32269   0.968   4.647   1.052  0.1464  0.1090  0.0638
16086W        W32270   7.184   4.673   0.364 -0.1004 -0.1529  0.0210
16087W        W32271   7.513   1.802  12.448 -0.0717 -0.1140 -0.1624
16088W        W32272   5.367  13.242  13.729 -0.0546  0.1142  0.2882
16089W        W32273  14.008  11.233   4.051 -0.3460  0.0146  0.1164
16090W        W32274   7.162   0.082  12.106  0.0650  0.2334  0.2623
16091W        W32275  11.839   9.705   1.547  0.0508  0.6078 -0.0453
16092W        W32276  16.465   8.018  14.016 -0.5138  0.0928 -0.1163
16093W        W32277   1.960   0.287  15.018 -0.5298  0.1602 -0.4443
16094W        W32278  11.324   8.185  13.524  0.0163  0.2915 -0.0016
16095W        W32279  13.752   1.444  10.701 -0.0014 -0.1413 -0.3119
16096W        W32280   8.338   2.782  13.175  0.4608  0.2021  0.0061
16097W        W32281   9.001  15.840   0.349  0.0665  0.1363  0.0296
16098W        W32282   1.255  15.791   1.027 -0.1022  0.4165  0.0863
16099W        W32283  17.293  17.709  10.796  0.2420  0.2191  0.0016
16100W        W32284   6.764   7.501   2.964 -0.0534 -0.1172  0.1738
16101W        W32285   9.744   7.972  13.683  0.0010 -0.0100  0.4260
16102W        W32286  12.110   9.080  13.381  0.0994 -0.2557 -0.0055
16103W        W32287  13.270  13.774  11.244 -0.1557  0.2260 -0.1939
16104W        W32288  15.261  12.698  11.039  0.1290 -0.0911  0.2811
16105W        W32289  17.066   2.996  12.458 -0.1274  0.2902  0.2138
16106W        W32290   4.807  13.064  12.392 -0.0841 -0.1758  0.1878
16107W        W32291   5.744   6.935  13.956  0.0351  0.1851  0.0515
16108W        W32292  18.439   1.847   4.041  0.1278 -0.0454 -0.2993
16109W        W32293   8.626   7.674   3.411  0.0605  0.1438  0.3370
16110W        W32294  13.250   6.634  12.357 -0.3166 -0.2950 -0.2310
16111W        W32295   1.576   5.619   1.562  0.2876 -0.1643 -0.3900
16112W        W32296   3.260  13.195   3.601 -0.0520  0.1113 -0.0691
16113W        W32297   7.003   1.597   2.203  0.0486  0.3611  0.1866
16114W        W32298   5.965   1.020   5.167  0.1036 -0.0020 -0.1324
16115W        W32299  11.211  10.985  15.161 -0.1020  0.0580  0.2042
16116W        W32300   0.911  15.348  12.703 -0.2204 -0.1584  0.3009
16117W        W32301   0.225   2.374   3.775  0.0591  0.3382  0.0993
16118W        W32302   6.895   4.927   2.175  0.2398  0.1825 -0.1766
16119W        W32303  12.049   0.477   1.604 -0.1359 -0.2259 -0.0625
16120W        W32304  10.275  16.681  12.734  0.1339  0.0237 -0.1683
16121W        W32305   5.894  18.698   4.743  0.0961 -0.1060  0.0329
16122W        W32306   8.509   3.790   3.247 -0.0562  0.0463  0.2583
16123W        W32307  16.772   5.105  14.120 -0.3325  0.0742 -0.0507
16124W        W32308  18.870   7.103   2.516 -0.0631  0.0663  0.1143
16125W        W32309  17.746  10.170   3.664  0.1131  0.0148 -0.0015
16126W        W32310  14.216  15.813   1.545  0.4790 -0.2220  0.0042
16127W        W32311  17.116  11.394   1.159 -0.0576 -0.2453  0.0066
16128W        W32312   9.351  13.888   4.862  0.1254 -0.0729 -0.0974
16129W        W32313  12.331   8.641  14.797 -0.1503 -0.0352  0.3630
16130W        W32314   2.839  13.864   0.383 -0.0186  0.2827  0.0032
16131W        W32315  13.008   8.983   3.388 -0.2049 -0.0217  0.2388
16132W        W32316   6.046   5.820  11.300  0.4755  0.0883 -0.1412
16133W        W32317   6.721  11.741  14.212 -0.0404 -0.1017 -0.1662
16134W        W32318   4.465   4.958   2.168 -0.0596 -0.2879 -0.0875
16135W        W32319  11.061  18.727  13.369 -0.1844  0.1300 -0.2296
16136W        W32320   6.815   1.322   0.703 -0.1976 -0.2447 -0.2507
16137W        W32321  17.857   3.256   5.639  0.0593  0.2053 -0.0163
16138W        W32322   1.732  13.671  13.359 -0.0708 -0.1233  0.2587
16139W        W32323  13.967  11.163  13.975  0.1704 -0.2693  0.0034
16140W        W32324  18.346  11.287   0.457 -0.1151  0.0510 -0.1629
16141W        W32325   5.506  12.474  13.454  0.3277  0.0250  0.3499
16142W        W32326  11.656   1.000  10.897 -0.3763 -0.0987 -0.1278
16143W        W32327   8.885   2.754   4.198 -0.1036  0.0832  0.2399
16144W        W32328  18.901  15.040   3.066 -0.0004  0.1071  0.0793
16145W        W32329   6.438   0.240   5.216 -0.1382 -0.3212  0.1736
16146W        W32330   4.020   4.663  11.421  0.0347  0.0234 -0.2115
16147W        W32331  16.663  16.297   2.291 -0.0326 -0.1026  0.2955
16148W        W32332   0.785  13.546  12.984 -0.2921  0.0383  0.1057
16149W        W32333   3.762  18.463  14.177 -0.0576 -0.2824  0.2054
16150W        W32334   2.400  14.835  13.470 -0.0358  0.0394  0.2707
16151W        W32335   7.901  14.171  11.341 -0.0376  0.1961  0.2313
16152W        W32336  15.439  10.681  13.079 -0.0292 -0.0557 -0.1692
16153W        W32337  12.307   9.557  13.179 -0.3890 -0.1029  0.1580
16154W        W32338  13.937   7.864   0.854 -0.0211  0.1601 -0.1486
16155W        W32339  13.002  18.206   0.816 -0.2477  0.1526  0.2216
16156W        W32340  13.858   5.714   3.235  0.1340  0.0579 -0.1577
16157W        W32341  10.002   6.009   3.883 -0.0416  0.1335  0.0473
16158W        W32342   1.497  18.432   0.219 -0.4778 -0.0542  0.0133
16159W        W32343  17.054   0.785  14.076  0.1915 -0.0121  0.3350
16160W        W32344  13.470  14.761   2.917  0.3766  0.0587 -0.0394
16161W        W32345  17.532  12.568   3.199 -0.0702  0.2091  0.1751
16162W        W32346  12.017  11.829   1.964  0.3257 -0.1500  0.4140
16163W        W32347  15.998   6.829   5.059  0.1171 -0.3933 -0.1870
16164W        W32348   2.823   9.466   9.750  0.0929  0.0956  0.3084
16165W        W32349  14.431   9.554   0.876  0.3332  0.0675 -0.2315
16166W        W32350  12.535   7.089   0.145 -0.1678  0.0859  0.1218
16167W        W32351   4.786  13.085   5.873 -0.0410 -0.0506 -0.1699
16168W        W32352  17.872   9.237  15.124  0.0377  0.0131  0.1748
16169W        W32353   4.134   7.235   4.675  0.1442 -0.1332 -0.0549
16170W        W32354  15.902   2.342   4.734 -0.0661  0.2572 -0.2015
16171W        W32355   6.687  17.016   1.543 -0.0523 -0.2756 -0.4075
16172W        W32356   0.787  10.070  12.766 -0.3764  0.0535 -0.1489
16173W        W32357   6.381   3.964  14.820  0.2994  0.3666 -0.3188
16174W        W32358   1.011   5.190  12.835  0.2557  0.1285 -0.2490
16175W        W32359  16.504  11.578  11.950  0.1663  0.3339 -0.1565
16176W        W32360   1.290  12.134  11.690  0.0984  0.4563 -0.0685
16177W        W32361   0.386  12.438   0.580  0.0302  0.0522  0.3664
16178W        W32362  10.319   6.810  14.300 -0.1153  0.2867  0.2676
16179W        W32363   6.430   1.637   1.444  0.0136 -0.3804 -0.0697
16180W        W32364   9.105  14.344   2.400 -0.2864  0.0478  0.0193
16181W        W32365   4.725  15.589  12.652  0.1487  0.4258 -0.0079
16182W        W32366   6.173   3.628   3.981 -0.2383 -0.1466 -0.1375
16183W        W32367   2.732   2.321  12.685  0.0364 -0.0293  0.1900
16184W        W32368   4.624  14.529  12.197  0.1628 -0.2706  0.1634
16185W        W32369  17.445  14.015   2.935 -0.0166  0.0144 -0.0070
16186W        W32370  17.165  16.496  14.118  0.2622  0.2594 -0.0105
16187W        W32371  15.394   2.042  14.987 -0.1962  0.0728  0.0365
16188W        W32372  12.515   6.025  14.345 -0.0570 -0.1137  0.3274
16189W        W32373  16.926  10.494   3.146  0.1517 -0.0041  0.3704
16190W        W32374   6.380  10.748   3.100 -0.1563  0.0589  0.0244
16191W        W32375   0.679  12.666  11.108  0.1046 -0.2578 -0.2540
16192W        W32376  15.918  12.982   4.093 -0.1888 -0.0262 -0.0629
16193W        W32377   3.169   9.771  15.350  0.1664  0.2386 -0.0812
16194W        W32378   6.685  10.603   6.271  0.1158  0.2453 -0.0159
16195W        W32379   9.301  14.783   2.134  0.1304 -0.0586 -0.1561
16196W        W32380   8.913  10.630   5.061  0.1451 -0.0781 -0.5527
16197W        W32381   1.046   9.142  14.374 -0.1222  0.0842 -0.1125
16198W        W32382  11.060   0.080  11.554 -0.1471 -0.1144 -0.1818
16199W        W32383   7.994   2.599   3.617 -0.0322  0.1794 -0.0933
16200W        W32384   9.894   3.495  13.505 -0.0004 -0.1128 -0.1953
16201W        W32385  17.660   3.851  11.734 -0.1751 -0.3091  0.1696
16202W        W32386   6.645  18.109  11.851 -0.0459 -0.0559 -0.1297
16203W        W32387   7.285   6.962  15.213  0.4698 -0.0795 -0.4321
16204W        W32388   1.597   5.940  13.830  0.1531  0.2053 -0.0719
16205W        W32389   9.150   6.400   0.630 -0.2080  0.1051  0.1354
16206W        W32390  13.803  10.958  15.289 -0.0334 -0.0836  0.0550
16207W        W32391  11.930  17.288   0.473 -0.1804  0.0967  0.1381
16208W        W32392  11.953   4.195  12.038  0.2241 -0.0736 -0.0173
16209W        W32393  11.228   2.311  11.040 -0.0346  0.3687  0.1242
16210W        W32394   1.331  10.671   1.943  0.3116 -0.1242  0.1457
16211W        W32395   4.913   3.668  14.356 -0.0940 -0.1851  0.0806
16212W        W32396   4.842  11.545   1.919 -0.1685 -0.1154  0.1045
16213W        W32397  12.324  13.628   1.218  0.0019  0.1013  0.2376
16214W        W32398  18.497  15.013  15.167  0.1279  0.1408 -0.0933
16215W        W32399   1.122   5.987   3.600 -0.0824 -0.0462 -0.0880
16216W        W32400   1.241  12.009   2.937 -0.1395  0.1110 -0.1659
16217W        W32401  10.389  15.246  12.757  0.3371  0.3806  0.1384
16218W        W32402   0.020   1.247   3.068  0.1607 -0.0685 -0.0478
16219W        W32403   2.811  14.949   3.834  0.0367  0.1293  0.1464
16220W        W32404  18.184   0.096  13.137  0.3260 -0.1160  0.2831
16221W        W32405  17.029   7.016  13.061 -0.0205  0.1645 -0.1030
16222W        W32406  15.804  15.296  14.130 -0.1482 -0.0696  0.1806
16223W        W32407   7.125  15.100  13.693  0.2673  0.1163 -0.2584
16224W        W32408  13.332  10.556  15.365 -0.1276  0.1342  0.2099
16225W        W32409   4.478  17.212   2.897  0.0789  0.0687 -0.1439
16226W        W32410   1.783  18.940  12.277 -0.3077 -0.1199 -0.2368
16227W        W32411  13.120  18.014  14.450 -0.1364 -0.2820 -0.0024
16228W        W32412   3.954  12.211   0.839 -0.3400  0.2049  0.1491
16229W        W32413   2.373   0.712   3.421 -0.0012 -0.0641 -0.1579
16230W        W32414   3.961  10.082   4.868  0.0296 -0.1730 -0.0141
16231W        W32415  13.956  17.958   2.293 -0.1713  0.2751 -0.1740
16232W        W32416  10.331  10.295   2.726 -0.1923 -0.4687 -0.0328
16233W        W32417   3.773   1.334   4.374 -0.0009  0.1252 -0.0230
16234W        W32418  11.608  12.811   3.439  0.0298 -0.1329 -0.2391
16235W        W32419   3.700   8.997  11.355 -0.2092 -0.0572  0.0974
16236W        W32420  13.150   5.660  11.614 -0.3260  0.6547 -0.0556
16237W        W32421   9.630   4.846   9.686 -0.3644 -0.1904  0.0266
16238W        W32422  12.992   9.513   3.318 -0.1458 -0.0073  0.0723
16239W        W32423   4.953   3.756  13.433  0.0526 -0.2366  0.0476
16240W        W32424  13.223   6.038  13.614  0.2264 -0.2519  0.1197
16241W        W32425   7.913  18.906   4.252 -0.0929 -0.1623  0.2829
16242W        W32426   0.779  16.981   4.255 -0.5243  0.0675  0.2494
16243W        W32427  10.824  14.271  10.228  0.0795 -0.1184 -0.0091
16244W        W32428  17.112   4.568   2.934 -0.1000  0.0442 -0.1837
16245W        W32429   3.594  13.367   4.525  0.0560 -0.0502  0.1952
16246W        W32430  15.175   5.954   3.101  0.1856  0.0702 -0.3241
16247W        W32431  13.053   8.477   1.762  0.0615  0.1052 -0.3212
16248W        W32432   8.575  14.185   3.728  0.0023 -0.2269  0.0843
16249W        W32433   4.967   0.313   1.513  0.1229  0.0158  0.2099
16250W        W32434  12.463  10.159   0.220  0.2348 -0.0597  0.5140
16251W        W32435   8.959   0.712   3.861 -0.0981 -0.0347 -0.3439
16252W        W32436  11.489  17.576   0.687  0.0407 -0.0265 -0.1914
16253W        W32437   3.424  11.412   4.837  0.1130  0.1483  0.1786
16254W        W32438   8.416   2.012   0.791 -0.0674 -0.0217 -0.1511
16255W        W32439  14.873  10.547  14.326  0.1845 -0.1165  0.1287
16256W        W32440   9.151   3.533   1.121 -0.2019 -0.0347 -0.2540
16257W        W32441   6.298  12.606   1.771 -0.1143 -0.0363 -0.0321
16258W        W32442   4.884  13.593  14.358 -0.0262 -0.2211 -0.0886
16259W        W32443   3.624  18.507   3.447  0.1352  0.3801 -0.1800
16260W        W32444  17.580   6.221  12.437 -0.2876 -0.0144  0.2203
16261W        W32445  15.528  12.703   3.946 -0.0090  0.1358  0.3245
16262W        W32446  17.019  15.222   1.808  0.0676  0.3121  0.1537
16263W        W32447   3.110   7.417  13.711  0.1439  0.0890  0.1190
16264W        W32448   5.637   9.131  10.583  0.1129  0.3827 -0.3598
16265W        W32449  15.005   7.931  11.854  0.3113 -0.1385 -0.2817
16266W        W32450  17.000  12.265  11.597  0.3121  0.2341 -0.0020
16267W        W32451   9.788   2.020   0.234 -0.2133 -0.0347  0.0709
16268W        W32452   6.542  13.255  11.928  0.5480  0.2225  0.1340
16269W        W32453  11.960  11.717  12.239 -0.2153  0.1295 -0.4284
16270W        W32454  13.537  17.598  11.282  0.1150 -0.0515  0.0259
16271W        W32455  15.415   9.987  12.041  0.1050 -0.1869 -0.0612
16272W        W32456   4.389   3.939   2.391 -0.4853 -0.1303 -0.3173
16273W        W32457  11.214  16.983  12.099  0.0244 -0.2186  0.2647
16274W        W32458  14.234   6.012   2.518 -0.0315  0.4529 -0.0587
16275W        W32459  13.167  12.797  14.123 -0.3647  0.2952 -0.1403
16276W        W32460  14.736   9.206  14.740 -0.0365  0.1636  0.0142
16277W        W32461  13.252  13.712   1.628  0.3723 -0.4546  0.1453
16278W        W32462   2.594   5.370  12.462  0.0735  0.0237 -0.2892
16279W        W32463   1.365  16.906  14.538 -0.0255 -0.1119 -0.3306
16280W        W32464   4.157   8.712  11.623 -0.1237 -0.0312  0.0008
16281W        W32465  16.362   2.515   4.498  0.1864  0.1538  0.0301
16282W        W32466   7.168   1.917   1.758  0.2104 -0.2237 -0.2207
16283W        W32467   0.192   8.081   4.324  0.2421  0.2365  0.1001
16284W        W32468   3.878   8.622   1.724 -0.0908  0.1967 -0.1538
16285W        W32469  11.987  18.483  12.994  0.1320 -0.2398  0.0538
16286W        W32470  16.363  16.185  11.193  0.1324 -0.1240  0.1921
16287W        W32471   0.400  16.943   1.160 -0.0866  0.2932  0.1282
16288W        W32472  17.050  13.681   4.231 -0.2953 -0.0437 -0.1407
16289W        W32473  18.573  15.621  10.544 -0.1591  0.0156  0.3199
16290W        W32474   7.028   5.572  14.302  0.0098  0.0607  0.2119
16291W        W32475  12.111  13.035   0.496  0.1747 -0.3191 -0.1647
16292W        W32476  16.607  15.683  13.627  0.1954 -0.1977  0.0774
16293W        W32477   3.139  14.545  15.117  0.0329 -0.4015 -0.0950
16294W        W32478   1.974   0.735   1.576  0.1914 -0.0521  0.3044
16295W        W32479   4.803   7.169   1.578 -0.3389  0.3412 -0.0654
16296W        W32480   6.842   0.423   1.096 -0.0009  0.1100  0.1525
16297W        W32481  14.357  11.367   4.967  0.1917  0.0484 -0.3866
16298W        W32482  12.884   7.595  10.618 -0.1663  0.0821 -0.1225
16299W        W32483   5.027  17.875   2.853 -0.0445  0.2105  0.0962
16300W        W32484   1.836   2.865  14.172  0.2576  0.1234 -0.0722
16301W        W32485  11.794  13.392   0.036  0.0137  0.0859 -0.1628
16302W        W32486   4.073   6.865   4.384 -0.1566  0.1120  0.0819
16303W        W32487   0.352   7.466  14.831  0.2533 -0.2220  0.0420
16304W        W32488   9.961   4.547   5.244 -0.2848  0.1019  0.0093
16305W        W32489  13.873  16.397  15.335 -0.2481  0.0542  0.1479
16306W        W32490   0.829  14.136  15.359 -0.1639 -0.5942  0.1895
16307W        W32491   6.964   0.211  14.981  0.2209  0.1678  0.0966
16308W        W32492  15.911   1.707  11.254 -0.4030  0.1515  0.0007
16309W        W32493   5.714   3.730   1.731 -0.1574  0.2184  0.0863
16310W        W32494   5.766   4.571  14.989 -0.2662  0.2792  0.1880
16311W        W32495  18.351   1.540  12.610 -0.1628  0.0170 -0.1411
16312W        W32496   0.562  13.272   2.690 -0.1831  0.1711  0.0738
16313W        W32497   6.775  14.552   0.101  0.1268 -0.0042  0.3385
16314W        W32498   0.552   8.494  11.774  0.0286 -0.0851  0.3442
16315W        W32499  12.915  16.157  13.192 -0.2874  0.2063  0.0500
16316W        W32500   0.181  14.911   4.931  0.1919 -0.2906  0.0055
16317W        W32501   4.031  12.988   4.133 -0.3263  0.1467 -0.0105
16318W        W32502  17.931   8.536   1.436 -0.2785  0.0228 -0.0765
16319W        W32503   9.651  15.561   3.939 -0.1034  0.1244  0.0755
16320W        W32504  15.276   4.136   2.205  0.2524 -0.2827  0.2134
16321W        W32505   0.345   5.978   3.966  0.3298  0.0910  0.2978
16322W        W32506  15.797  18.936   3.460  0.0078 -0.1226  0.0411
16323W        W32507  14.150  17.840   3.605  0.0416 -0.1517  0.1718
16324W        W32508  16.399   5.541   4.032 -0.0960 -0.1423 -0.1351
16325W        W32509  16.407  10.362  10.944  0.3154  0.0015  0.1763
16326W        W32510  15.830  18.625  15.350 -0.1206 -0.2425  0.0872
16327W        W32511  12.945  18.505  14.181  0.2105  0.0074 -0.1085
16328W        W32512   9.342  18.532   2.891 -0.1334 -0.0903 -0.3991
16329W        W32513   0.549   0.031  13.770  0.0036 -0.0840  0.1542
16330W        W32514   3.971  15.685  13.822  0.0867  0.0461  0.1050
16331W        W32515  15.263  10.515   5.797 -0.0309  0.1414 -0.3270
16332W        W32516  18.095  12.533   0.982  0.0502 -0.1176 -0.0240
16333W        W32517  10.166   5.238   1.143 -0.2399 -0.0480  0.0501
16334W        W32518   6.522  12.653  11.902 -0.0476  0.0971 -0.1282
16335W        W32519   9.674   5.394  11.941  0.0728 -0.1296  0.1792
16336W        W32520   8.731  15.615   4.621  0.1882  0.0440  0.3049
16337W        W32521  18.925  10.073  14.822 -0.1138  0.1244  0.0516
16338W        W32522  12.710  15.729   3.990  0.1310  0.1001 -0.2530
16339W        W32523   7.140  10.139  14.875  0.3523 -0.0618 -0.1240
16340W        W32524   8.007   8.924   0.863 -0.0589 -0.0041 -0.0652
16341W        W32525   4.978   2.036  14.297 -0.0460 -0.0108 -0.0224
16342W        W32526   5.498   6.030  14.463  0.1026 -0.0372  0.1850
16343W        W32527  14.210   0.793  11.510 -0.4518 -0.0411  0.1507
16344W        W32528  16.584   7.061   4.288  0.1942  0.1894  0.0352
16345W        W32529   6.997  15.841   5.285  0.1609 -0.0952 -0.1107
16346W        W32530   5.365   8.645   5.255 -0.1157 -0.0879  0.1790
16347W        W32531  11.114  11.952  12.146  0.0705  0.0063 -0.1473
16348W        W32532   2.900   8.983  12.023  0.0389 -0.0452 -0.2688
16349W        W32533  11.021   5.723   9.753 -0.0823 -0.0820 -0.1207
16350W        W32534   7.009  12.503   0.713 -0.0147  0.0406  0.1993
16351W        W32535   3.122   8.394  13.731  0.1314 -0.0507 -0.1448
16352W        W32536  12.623   1.890  11.027  0.2143 -0.0461 -0.0369
16353W        W32537   3.824  18.465  15.118 -0.1359  0.2988  0.0558
16354W        W32538   2.140   4.966   1.855  0.4497  0.2482  0.1365
16355W        W32539   1.103   3.419   2.086  0.0102 -0.1390 -0.3882
16356W        W32540   1.472   0.416   3.594 -0.1118 -0.2512 -0.0376
16357W        W32541   3.901  15.119  13.879 -0.0159  0.0643 -0.4796
16358W        W32542   4.080  12.426   2.007 -0.0541  0.1333  0.0521
16359W        W32543   8.161   8.697  12.384 -0.3431 -0.0502  0.1664
16360W        W32544   7.723   9.320  13.181 -0.0757 -0.1324 -0.1160
16361W        W32545   9.769   4.698  14.246  0.0113  0.0250  0.0643
16362W        W32546   4.227   9.069   5.976 -0.1533 -0.2745 -0.1196
16363W        W32547   6.813   5.558   4.574  0.0877 -0.1381  0.0042
16364W        W32548   5.396  12.655   2.873  0.3727  0.1128  0.0461
16365W        W32549  16.068   5.729   2.227 -0.0667  0.1946  0.1320
16366W        W32550   0.467   3.837  13.323  0.3138 -0.0747 -0.2172
16367W        W32551  14.129   6.218   2.102  0.0821 -0.0842 -0.0715
16368W        W32552  18.473   3.882  13.738  0.1142 -0.0290 -0.0609
16369W        W32553   4.747  16.023  14.556  0.3185  0.0379  0.0834
16370W        W32554   3.435   3.557  14.341  0.0625  0.0865 -0.1570
16371W        W32555   8.163   3.462   4.050 -0.2770 -0.0090 -0.1498
16372W        W32556   7.174   4.915   4.260 -0.2575  0.1231 -0.1173
16373W        W32557   3.875   5.943   0.454  0.0877  0.2369 -0.3051
16374W        W32558  11.286   0.394  11.215 -0.5663 -0.1972  0.2108
16375W        W32559  14.212   8.927  12.065  0.2078  0.2911  0.0256
16376W        W32560   5.499   1.455  11.536 -0.1151  0.1761  0.3597
16377W        W32561  12.933  10.041   3.761  0.1751 -0.5512 -0.1953
16378W        W32562  14.026   0.387   4.773  0.0413 -0.1034 -0.1100
16379W        W32563   2.536   2.920  12.912 -0.1097 -0.1853 -0.0459
16380W        W32564   9.363  16.742  10.590 -0.3015 -0.2933  0.0449
16381W        W32565  15.116   6.752  14.067  0.3312 -0.1056  0.2579
16382W        W32566   3.898   5.524   0.134  0.1114  0.1046  0.0285
16383W        W32567  16.707   5.908  12.432 -0.1376 -0.1495  0.0998
16384W        W32568   8.057   1.910   1.273  0.1440 -0.3878 -0.4081
16385W        W32569   5.595  10.306  14.052 -0.0476  0.1041  0.0654
16386W        W32570  16.617  14.031   5.431 -0.1587 -0.3907 -0.2245
16387W        W32571   8.322   5.653  12.427 -0.4909  0.0212 -0.0791
16388W        W32572  12.438  12.202  12.925  0.3323 -0.1633  0.1123
16389W        W32573  12.732   6.537  12.834 -0.0314  0.0780 -0.2140
16390W        W32574  13.222  17.242  12.462  0.1163 -0.2960  0.1046
16391W        W32575   2.929   8.353  13.230 -0.1253 -0.1064  0.3950
16392W        W32576  18.029   1.886  10.740 -0.0273  0.0659 -0.2621
16393W        W32577  13.007   8.836   2.864 -0.0389  0.0360 -0.1323
16394W        W32578   3.312   2.768  12.117  0.2216 -0.0815  0.1702
16395W        W32579   0.925  14.371  12.870  0.1685  0.0967 -0.2102
16396W        W32580   3.762  16.711  12.982  0.2749  0.2190 -0.2872
16397W        W32581  11.043   4.634   3.633  0.2090 -0.0503  0.3336
16398W        W32582  10.406   9.453  14.887 -0.0364  0.0929  0.1072
16399W        W32583   8.680  15.538  10.441  0.0449 -0.0041  0.0516
16400W        W32584   9.733  17.011   0.452  0.0933 -0.4107 -0.0932
16401W        W32585  17.537  16.453   0.608 -0.3712 -0.0021  0.3965
16402W        W32586   8.537  11.543   0.341 -0.2137  0.0839 -0.4115
16403W        W32587  13.676   0.409  12.654 -0.0775 -0.1353 -0.1313
16404W        W32588  18.807   2.085  13.210 -0.1581  0.4132  0.0865
16405W        W32589  14.350  17.124  13.795 -0.2639 -0.3093 -0.1394
16406W        W32590   8.717  16.984  11.286 -0.0180  0.0723  0.0034
16407W        W32591  14.749   9.645  10.921  0.2562 -0.0880  0.0830
16408W        W32592   9.246  16.361   1.590  0.1070 -0.2138 -0.1292
16409W        W32593   4.317   9.002  14.363  0.0141  0.5115 -0.0443
16410W        W32594  15.904   6.128  14.236  0.0988 -0.1692  0.0281
16411W        W32595   8.563   6.458  12.285 -0.1908 -0.2255  0.0641
16412W        W32596   1.263  16.846   4.122 -0.2437  0.0485  0.2453
16413W        W32597  17.563   8.997  11.747  0.0566 -0.1272  0.4633
16414W        W32598  14.436   8.476  11.828  0.0306 -0.3847  0.0559
16415W        W32599  13.401   4.177  13.514  0.0070 -0.0301  0.1858
16416W        W32600  12.507  11.508   0.341 -0.1316  0.2617 -0.0375
16417W        W32601   6.749   8.918   4.969 -0.0892 -0.0528  0.0749
16418W        W32602  16.619  15.426  14.968 -0.1255  0.0784  0.1529
16419W        W32603   4.777   8.309   4.077  0.1418  0.2373 -0.1727
16420W        W32604   1.444   8.918  14.613 -0.2218 -0.1594 -0.0566
16421W        W32605  13.280   9.207  14.332 -0.1086 -0.0635 -0.3066
16422W        W32606  17.804   0.073   3.376  0.1112  0.2681 -0.0825
16423W        W32607  14.842  13.957  15.078 -0.1895  0.2694  0.0064
16424W        W32608   6.445  16.695   5.122  0.3031  0.1850  0.1107
16425W        W32609  14.340   1.068   4.342 -0.2415  0.1942  0.0005
16426W        W32610  18.740   8.616   0.328  0.1500 -0.0543  0.4341
16427W        W32611  15.786   5.708   1.841  0.0669 -0.3849  0.0969
16428W        W32612   6.046   4.920  13.009  0.0482  0.1479  0.0835
16429W        W32613  10.415  12.911   1.920 -0.0089  0.3551 -0.0110
16430W        W32614  14.811   8.234   1.786 -0.2914  0.2141 -0.3260
16431W        W32615   4.386  14.629  12.689  0.1167 -0.0735 -0.1138
16432W        W32616  14.100   6.026  10.549 -0.1578 -0.0311 -0.0499
16433W        W32617   1.880   5.584   1.189  0.2695  0.0029  0.5130
16434W        W32618   1.741   2.536   1.356  0.0117 -0.0883  0.0532
16435W        W32619  14.780  13.564  10.792 -0.0635  0.0643 -0.2205
16436W        W32620   3.603   2.920  14.202 -0.0036  0.0238 -0.0448
16437W        W32621  15.485  13.374   2.154  0.0309  0.1045  0.0724
16438W        W32622  13.109   4.561   2.512 -0.3077  0.2338  0.0991
16439W        W32623  10.821   4.082  15.356  0.0527  0.0265  0.0342
16440W        W32624   7.382  16.485  13.883 -0.1972  0.0397 -0.4089
16441W        W32625   6.107   6.699  14.330  0.2001 -0.0841 -0.1098
16442W        W32626   0.748   6.503   2.768  0.1355 -0.1074 -0.1484
16443W        W32627  14.371   9.882   4.632  0.0915  0.0687 -0.0727
16444W        W32628   8.302  18.361   3.739 -0.0472  0.0479 -0.2357
16445W        W32629  17.165   7.842  12.322 -0.0868  0.1470  0.1136
16446W        W32630  15.877   3.394  14.090  0.1873  0.2356  0.0200
16447W        W32631   5.372   2.512   3.539 -0.1634 -0.1268 -0.0216
16448W        W32632  17.900   5.186   5.642 -0.0128  0.1049 -0.3023
16449W        W32633  17.711  15.590   2.389  0.2956 -0.3661 -0.2272
16450W        W32634  12.343   6.713   2.199 -0.0766 -0.1961  0.3019
16451W        W32635  10.331  12.049  10.698 -0.2406  0.1636  0.1550
16452W        W32636   4.767  18.153  12.033 -0.0762  0.2846  0.1491
16453W        W32637  14.021  14.853  13.612  0.3362 -0.2986  0.0425
16454W        W32638   4.645  11.938   3.085  0.1513 -0.1300  0.0793
16455W        W32639   8.851   5.271   4.605  0.4544  0.0384  0.3980
16456W        W32640  16.643  11.167  14.375  0.3184 -0.0488 -0.2156
16457W        W32641  14.602  15.313  13.012  0.0113 -0.2217  0.1599
16458W        W32642   5.999   4.533  10.728 -0.2085  0.1171  0.2068
16459W        W32643  17.155  16.709  12.953 -0.0605  0.2629 -0.0460
16460W        W32644   9.377   6.028   4.076  0.0430  0.1705 -0.2348
16461W        W32645   9.339   9.682  15.268  0.1364  0.1139 -0.0341
16462W        W32646  16.228   6.747  13.319 -0.1301 -0.0894 -0.2766
16463W        W32647  17.688  18.808   4.873 -0.0435  0.4198 -0.1948
16464W        W32648  10.460   8.760   1.817  0.0423  0.1052 -0.1846
16465W        W32649  13.331  11.010   1.930  0.0267 -0.0033  0.1068
16466W        W32650  15.354   1.409   3.079 -0.1468  0.0345  0.3520
16467W        W32651  15.805  11.361   3.566 -0.2439 -0.0018 -0.1169
16468W        W32652   6.205   0.639   2.838 -0.0206 -0.3270 -0.0661
16469W        W32653  16.636   2.265   3.673  0.0533 -0.2368 -0.1088
16470W        W32654  12.857  16.847  12.132  0.1166  0.1506 -0.0145
16471W        W32655  16.741  13.159   0.435  0.2674  0.0520  0.1014
16472W        W32656  12.191  18.822   3.855  0.2087  0.0401  0.1961
16473W        W32657  15.269   9.711  15.301 -0.0104  0.0047 -0.1003
16474W        W32658   7.205  16.476   4.109  0.1545 -0.2444  0.0925
16475W        W32659   4.917  15.198  14.774  0.1205 -0.2515 -0.2545
16476W        W32660   4.345   8.893   3.404 -0.0594  0.1502 -0.1434
16477W        W32661  10.637   7.272   2.060 -0.1029 -0.1931  0.0776
16478W        W32662  10.866  18.292   0.016 -0.1465 -0.0189 -0.0583
16479W        W32663   5.898   6.322  13.416  0.0816  0.3469  0.0913
16480W        W32664   7.451  14.315   5.528  0.2211 -0.0874 -0.3440
16481W        W32665   8.448   5.973  12.083  0.0802  0.2176  0.1894
16482W        W32666   9.409  12.059   3.185  0.4465  0.3059  0.0990
16483W        W32667  14.401   4.369   4.869  0.1069 -0.1333 -0.2152
16484W        W32668  17.594   9.533  14.586 -0.2718  0.4640  0.2792
16485W        W32669  18.463   4.177  14.770  0.0746 -0.1090  0.0295
16486W        W32670   3.763   1.395  11.319 -0.1594  0.0910  0.2187
16487W        W32671  13.819  13.643  11.146  0.2772  0.1899  0.4820
16488W        W32672  12.964  16.125   4.081  0.1191 -0.1095 -0.0788
16489W        W32673   8.200   5.552   4.914 -0.1229  0.3774 -0.0549
16490W        W32674  12.946  10.813  13.164 -0.4135 -0.0569 -0.1465
16491W        W32675  16.882   2.006   5.569  0.2439  0.0447 -0.0625
16492W        W32676  15.129   3.245  14.733  0.0664 -0.2190 -0.0399
16493W        W32677  16.959   3.461   5.497  0.0246 -0.1100 -0.0602
16494W        W32678   3.998   4.184  12.817 -0.1702 -0.0864  0.3629
16495W        W32679   8.493   9.025   1.000  0.0312 -0.4125 -0.1445
16496W        W32680  11.362  12.521   2.326 -0.0696 -0.3887  0.0966
16497W        W32681  14.418   4.912  13.300  0.2762 -0.0352 -0.1363
16498W        W32682  18.310   5.921  11.387 -0.2160 -0.3029 -0.0484
16499W        W32683  12.879  18.555   3.627 -0.0306  0.0641  0.3787
16500W        W32684   8.990  16.987  10.829  0.3623  0.1502 -0.2934
16501W        W32685  13.033  15.931   2.680 -0.0664  0.0278  0.0814
16502W        W32686  12.593   6.659   4.171  0.2336 -0.0135 -0.0305
16503W        W32687  17.432  18.355   0.676  0.1038 -0.2341 -0.0120
16504W        W32688   4.162   0.334  13.464 -0.3690 -0.1100 -0.1903
16505W        W32689   4.131  18.532   0.837 -0.2349  0.0553  0.1109
16506W        W32690   9.076  10.872   0.928 -0.2062 -0.0845 -0.0793
16507W        W32691  16.362   6.553   4.650  0.1542  0.1084 -0.1585
16508W        W32692  16.868   6.270   1.237 -0.1124 -0.1359 -0.0067
16509W        W32693  11.672   6.311  13.386  0.0905 -0.0878 -0.1022
16510W        W32694  10.805  10.188   1.856  0.3298 -0.0578 -0.2478
16511W        W32695  14.660  15.941   4.087 -0.1151  0.1122 -0.0556
16512W        W32696  10.572   9.577  15.372 -0.1338  0.0090  0.2016
16513W        W32697   7.759   8.683  12.720  0.0248  0.0689 -0.1032
16514W        W32698   1.137  17.259   3.839  0.3029  0.0518 -0.0907
16515W        W32699  15.884  16.185   0.058  0.3765  0.2911  0.1913
16516W        W32700   1.259   4.531   1.439 -0.0347 -0.0807  0.0856
16517W        W32701   1.672  16.522   5.235 -0.1906  0.2525 -0.0955
16518W        W32702  18.566   8.523  14.590  0.0065 -0.0434  0.1437
16519W        W32703  18.062  17.017  13.082 -0.1934  0.2114  0.1434
16520W        W32704  14.518  13.060   5.659  0.2796  0.0382 -0.2491
16521W        W32705   4.935   1.046   2.233 -0.0833  0.1473  0.0336
16522W        W32706  12.679   3.483   5.271  0.6374 -0.1778  0.3947
16523W        W32707   2.869   5.425   4.926  0.1276  0.4346  0.1074
16524W        W32708  13.839  15.999  10.907 -0.2063 -0.0125  0.2056
16525W        W32709  15.787   5.719  12.928  0.0932  0.1397  0.1394
16526W        W32710  14.062  11.721   2.682  0.0752  0.0057 -0.2392
16527W        W32711   1.998  16.369   2.475 -0.1303 -0.0104 -0.0964
16528W        W32712   6.234   8.436   2.247 -0.1791 -0.1109  0.2455
16529W        W32713  12.668  10.307   2.362  0.1135  0.2802 -0.0076
16530W        W32714   1.606  14.856   0.795 -0.1184  0.1770 -0.4553
16531W        W32715   9.091   2.965   3.396  0.0091 -0.1817  0.0229
16532W        W32716  13.400  16.873   1.515  0.4667 -0.1507 -0.0226
16533W        W32717   3.296  10.473   5.230  0.0762  0.1984 -0.1870
16534W        W32718  10.171   1.411   1.828  0.2468  0.0252 -0.1263
16535W        W32719   8.461   9.786   1.874  0.1967 -0.0017  0.0976
16536W        W32720   7.719   6.486   5.171 -0.0269  0.2208 -0.0793
16537W        W32721  16.275   0.061   5.017  0.3076  0.1844 -0.2118
16538W        W32722   8.444  14.452   4.738 -0.0527 -0.0387  0.2800
16539W        W32723   7.001  12.273   4.077  0.0491 -0.2463  0.3286
16540W        W32724  16.132  10.946   4.494 -0.1182  0.0990 -0.0108
16541W        W32725  12.871   5.527   0.808 -0.2016  0.0754 -0.1935
16542W        W32726  12.972  14.988   3.622  0.1740 -0.0686  0.1345
16543W        W32727  14.257   7.537  13.633  0.2772 -0.3082  0.2977
16544W        W32728  18.166  16.330  14.590 -0.1249 -0.3582 -0.2464
16545W        W32729  18.395   7.933   2.963  0.3529 -0.0155 -0.0433
16546W        W32730   4.074   1.700   2.526  0.2438 -0.2338  0.0493
16547W        W32731   3.390  16.478  12.227 -0.0827  0.3335  0.0988
16548W        W32732   8.850   3.317   3.738  0.1439 -0.1455  0.0479
16549W        W32733  18.269   3.531  15.111 -0.1649 -0.2548 -0.0272
16550W        W32734   4.489  15.785  13.706  0.1056 -0.0455  0.0911
16551W        W32735   3.459  12.559  11.462 -0.1277 -0.1568 -0.2207
16552W        W32736  16.848   9.988   3.512  0.2371 -0.0565 -0.0468
16553W        W32737  17.236  17.475  11.214 -0.0830 -0.1705 -0.2460
16554W        W32738   4.747  15.194   1.991 -0.4629 -0.1662  0.4144
16555W        W32739   0.333   1.274  11.624  0.1085  0.1659  0.0016
16556W        W32740  17.346   6.874   4.766 -0.2209 -0.1614  0.1745
16557W        W32741  18.359  15.754  11.687  0.1790 -0.1636  0.2453
16558W        W32742   1.423   5.228   1.171 -0.0895  0.0346  0.0879
16559W        W32743  11.882  13.162  14.405  0.0191 -0.1226 -0.1734
16560W        W32744   0.576  15.050  11.952 -0.1362 -0.3575 -0.3308
16561W        W32745   5.980  15.916   3.388 -0.3540  0.3013 -0.0351
16562W        W32746  15.947   9.750  10.354 -0.0858 -0.1139 -0.2169
16563W        W32747   4.412   3.880   4.210 -0.0075  0.1959  0.1113
16564W        W32748   7.275  11.707  14.974  0.1353 -0.2182  0.3682
16565W        W32749   5.139  11.687   3.785  0.3059  0.1220 -0.0467
16566W        W32750   6.419  15.242   1.882  0.2911  0.2829 -0.0427
16567W        W32751  18.604   2.350  13.554  0.0508  0.1597  0.0609
16568W        W32752   1.265   4.541   0.411 -0.0790  0.0009 -0.2721
16569W        W32753  12.943  14.872   4.772  0.1251  0.2424  0.5330
16570W        W32754   5.984   3.867   5.239  0.0155  0.1370  0.1187
16571W        W32755   3.083  13.320  13.288  0.1313  0.0313 -0.1793
16572W        W32756   4.884  13.126  14.003 -0.1709  0.2097  0.2146
16573W        W32757  10.350  17.333  14.760  0.1453  0.2586  0.1581
16574W        W32758  14.691   6.057   3.299  0.3370  0.2018  0.2067
16575W        W32759   4.705  13.918   1.811 -0.0668  0.1946  0.3246
16576W        W32760  11.344  10.143  15.294  0.2436 -0.3608 -0.1406
16577W        W32761   4.903   1.223   3.498 -0.2991 -0.0516 -0.4250
16578W        W32762  13.038  16.808  12.655 -0.4154  0.0224  0.1324
16579W        W32763   9.753  11.342  11.104  0.1355  0.0629  0.1588
16580W        W32764  18.413   0.171   2.114  0.0591 -0.4880 -0.1537
16581W        W32765   8.706  14.314   1.391  0.0890 -0.2143 -0.0591
16582W        W32766   6.762  13.229  10.629 -0.2834 -0.0434 -0.0103
16583W        W32767   9.036   6.347   0.113 -0.2482  0.0349 -0.2448
16584W        W32768  11.514  17.199  11.684 -0.4290 -0.2998 -0.1840
16585W        W32769   1.465  14.504   0.326  0.2261 -0.1733  0.2532
16586W        W32770  10.284   3.336  15.249  0.0503 -0.1248  0.0912
16587W        W32771   7.997   9.381   2.830  0.0669  0.2044 -0.1066
16588W        W32772   6.809  10.902   4.312  0.0255  0.2585  0.1477
16589W        W32773   6.940   0.672   2.035  0.0591 -0.0406 -0.0440
16590W        W32774   2.346  10.541   4.645 -0.0171 -0.0788 -0.1336
16591W        W32775   3.564   1.816   2.705  0.0847  0.1706 -0.4431
16592W        W32776   7.526  13.356   2.857  0.1601 -0.1002 -0.2664
16593W        W32777  10.090   8.489   0.090 -0.0300  0.0580  0.1930
16594W        W32778   0.428   2.148   3.405  0.0459  0.2611  0.0222
16595W        W32779   2.148   4.524   0.354 -0.4826 -0.0919 -0.0717
16596W        W32780  16.484   6.404  14.719 -0.1420  0.1881 -0.3582
16597W        W32781  16.658   0.149  14.624  0.0908 -0.3081  0.1115
16598W        W32782  10.720  16.982  13.169  0.1697  0.0220 -0.0361
16599W        W32783  12.958  17.067   4.281 -0.3070 -0.1131  0.0218
16600W        W32784   5.544  14.019   1.098  0.0377 -0.1814  0.0099
16601W        W32785  17.073  16.338   1.971  0.1153 -0.1867  0.2293
16602W        W32786  16.695   4.149   4.338  0.1722  0.0266 -0.3141
16603W        W32787   7.511  15.612   2.811 -0.1003  0.0155 -0.1232
16604W        W32788  12.171   9.690  14.756 -0.1869  0.4359  0.2469
16605W        W32789  12.610   8.568   2.790  0.1096  0.0115  0.1871
16606W        W32790  13.380   4.850  11.732  0.0151  0.3460  0.1729
16607W        W32791  12.670   6.636   0.761 -0.0151  0.0411  0.0309
16608W        W32792  11.673   6.978   3.486 -0.1123 -0.1818 -0.4116
16609W        W32793  18.706  10.506   2.791  0.0057 -0.0966  0.1191
16610W        W32794  15.385  18.759   2.393  0.2530  0.2214 -0.1205
16611W        W32795  15.137  16.641   2.267 -0.1526  0.2521 -0.3918
16612W        W32796  15.873  15.745   2.289 -0.1243  0.5990  0.0091
16613W        W32797  13.305   8.661   1.340 -0.0612  0.0283  0.1072
16614W        W32798  14.520   8.856   0.556  0.2431 -0.3076 -0.1753
16615W        W32799   2.809  16.668  12.863 -0.1147  0.3758 -0.0792
16616W        W32800   4.937   8.256   0.921 -0.0282  0.0260 -0.2284
16617W        W32801   7.093  11.557   0.685 -0.2768 -0.0292  0.2744
16618W        W32802  14.871  17.104   9.222 -0.4085  0.0746  0.0123
16619W        W32803   8.095   4.280   4.609  0.3832 -0.0022  0.2542
16620W        W32804  11.054  18.670  11.264 -0.2198  0.1516  0.0089
16621W        W32805   1.790   0.697  11.167 -0.0765  0.1884 -0.1037
16622W        W32806  18.424  12.685  12.238 -0.0771 -0.0559 -0.1575
16623W        W32807   1.655  12.311  11.148  0.1084 -0.1634 -0.1153
16624W        W32808   7.642  13.282  11.590  0.2523 -0.2467  0.0147
16625W        W32809  17.079  11.445  14.302 -0.2936 -0.2343  0.1438
16626W        W32810   8.734   3.550  13.416  0.1649 -0.0524  0.2349
16627W        W32811  10.677   6.570  13.233 -0.1829  0.1127  0.2803
16628W        W32812  11.909   0.881   2.049  0.0515  0.3694  0.2424
16629W        W32813  14.066   7.424   0.309  0.1042  0.0887 -0.0080
16630W        W32814  18.180   4.268  13.392 -0.5322  0.5388  0.0663
16631W        W32815  10.595  12.505  15.100  0.0060 -0.2335  0.1965
16632W        W32816   5.992  11.909   5.018  0.2752 -0.2109  0.2340
16633W        W32817  14.314   9.850   1.912  0.0167  0.0676 -0.1621
16634W        W32818   3.760  18.928  11.235  0.0454  0.0228  0.0925
16635W        W32819   0.859   7.154  11.385  0.2757  0.1513  0.0174
16636W        W32820   6.747   2.996  11.458  0.3405 -0.0324  0.0064
16637W        W32821  16.514   4.753  11.509 -0.3194 -0.1465 -0.0674
16638W        W32822   1.829   4.268   1.176  0.0166  0.1597 -0.1692
16639W        W32823   4.657  14.744   2.602  0.0179  0.1485 -0.1007
16640W        W32824   1.452   0.982   4.407  0.0715  0.4355  0.0865
16641W        W32825   9.615  13.265  14.442  0.3000 -0.0992 -0.0141
16642W        W32826  15.680  13.564  11.873  0.0656  0.2610  0.1111
16643W        W32827   9.574  13.723  13.798 -0.3177 -0.3049 -0.2605
16644W        W32828   4.804   3.794   5.041  0.2412  0.2280  0.2210
16645W        W32829  15.830   9.808  11.821 -0.2383  0.0903 -0.0071
16646W        W32830   7.165   6.232  10.768  0.0832 -0.0940 -0.0346
16647W        W32831   2.083  18.246  14.727  0.0351  0.0759  0.0641
16648W        W32832   3.541   7.291  14.549  0.0723 -0.0843 -0.0048
16649W        W32833  10.795  16.939   4.863 -0.0995  0.2255 -0.0814
16650W        W32834   0.246  16.435  11.662 -0.3086  0.0366 -0.1592
16651W        W32835   8.343   1.509  12.370 -0.0381 -0.1342 -0.3449
16652W        W32836   5.040   3.493   9.845  0.0497 -0.0236  0.2558
16653W        W32837   9.246  12.556  15.010 -0.3512  0.0531 -0.4621
16654W        W32838   5.650   2.639   0.100  0.3079 -0.1719 -0.2784
16655W        W32839  15.960  13.184  15.255  0.1261  0.1221 -0.1543
16656W        W32840   7.259  11.954   3.475  0.3998  0.0533  0.2271
16657W        W32841  14.381  17.290   0.566 -0.1499 -0.0178 -0.1395
16658W        W32842   5.617  11.962  13.425 -0.0161 -0.0187  0.6833
16659W        W32843  16.866  12.756   3.762 -0.0333  0.2192  0.1135
16660W        W32844   6.769   8.784   3.769 -0.0895  0.1836 -0.1960
16661W        W32845   2.661  11.817   1.177 -0.0154  0.0401  0.0970
16662W        W32846   8.365  10.980   5.636 -0.1889 -0.0793 -0.1559
16663W        W32847   9.901  17.830  15.253  0.2607  0.1123 -0.2791
16664W        W32848  15.090  11.083   0.946  0.3548 -0.0484 -0.2939
16665W        W32849   9.089  13.394   4.837  0.0660  0.0549 -0.1283
16666W        W32850  16.184   8.829  13.373 -0.0423  0.2494  0.4189
16667W        W32851   9.109   8.874   0.451  0.1106 -0.0351 -0.0074
16668W        W32852   0.751  16.702   1.493  0.0012 -0.1945  0.0579
16669W        W32853   7.701  10.722  12.622 -0.0564  0.2710  0.0283
16670W        W32854   2.148  13.676   2.489 -0.1781 -0.2726 -0.3057
16671W        W32855   0.686   2.959   0.802 -0.1912  0.2701  0.0395
16672W        W32856  12.475   0.938   1.120  0.1790  0.0294  0.0267
16673W        W32857  15.887   2.360   1.641 -0.1216 -0.1565  0.0187
16674W        W32858   5.293   4.525  13.218 -0.1146 -0.3919 -0.0990
16675W        W32859  12.949  10.310   5.707 -0.0661 -0.0630  0.3513
16676W        W32860   4.688  13.183   5.288 -0.0472 -0.0462  0.1211
16677W        W32861   6.573  18.172  14.940  0.2182 -0.2608  0.0677
16678W        W32862  13.087   8.821   0.838  0.0345  0.0586  0.0185
16679W        W32863  11.795   8.717   4.353 -0.1437  0.2207 -0.0295
16680W        W32864  11.802   0.377   5.293 -0.1478  0.2141 -0.1041
16681W        W32865   2.035  17.995  12.094 -0.0867  0.0712 -0.0314
16682W        W32866   1.460   3.464  14.684  0.0384  0.0215  0.1084
16683W        W32867   4.362   9.207  12.532 -0.0198  0.0389  0.2177
16684W        W32868   5.588   9.266   2.858 -0.2171  0.0593 -0.2810
16685W        W32869  10.465   3.354  11.397 -0.3539  0.1289 -0.2080
16686W        W32870  14.131   3.308   3.851  0.2265 -0.0147 -0.2756
16687W        W32871  15.227  10.114   3.898  0.0855  0.0531  0.3796
16688W        W32872   3.708   7.808   0.834  0.1004 -0.1067  0.1558
16689W        W32873  13.991  15.087  12.202  0.1340  0.1906  0.1239
16690W        W32874  11.955  16.689   1.392 -0.1358 -0.0034  0.1662
16691W        W32875  13.728  12.765   0.500 -0.0264  0.2149 -0.1718
16692W        W32876  13.426  13.873   1.114 -0.0765 -0.1845  0.1503
16693W        W32877   5.614   9.996  13.658 -0.1332 -0.0430 -0.1737
16694W        W32878  15.361   4.117   4.870 -0.3461  0.2779  0.0292
16695W        W32879   7.484   4.804  12.615 -0.1870 -0.0092  0.1608
16696W        W32880   2.464   6.758   0.770  0.1822  0.3687 -0.1037
16697W        W32881   6.110   0.770  14.007  0.1636  0.0233  0.2171
16698W        W32882   2.732   8.141  15.281 -0.2068  0.1587 -0.3506
16699W        W32883   3.084   5.501   2.305 -0.0052 -0.4212  0.1677
16700W        W32884  17.930  10.223   4.924 -0.0988  0.3581 -0.1014
16701W        W32885   0.429   0.872   1.259  0.0995 -0.0691 -0.3192
16702W        W32886  16.836  10.020   2.988  0.0317 -0.0281  0.0245
16703W        W32887   8.684   3.162  13.065 -0.1608  0.2894  0.0682
16704W        W32888   9.959   6.379   0.369  0.0808  0.0511  0.2388
16705W        W32889  13.205  18.982  14.767 -0.1478  0.1529 -0.1854
16706W        W32890   7.932  10.125  11.267 -0.2102 -0.2360 -0.3890
16707W        W32891   7.344   7.102  13.742  0.0195  0.2125 -0.1675
16708W        W32892   7.935   1.060   2.179  0.0699  0.0912 -0.1150
16709W        W32893   3.683  10.192  13.640  0.3184  0.1877  0.4280
16710W        W32894   0.213  17.431   1.187 -0.0505  0.1029 -0.1324
16711W        W32895   9.096   7.851   1.885 -0.0867  0.2261  0.4366
16712W        W32896  12.810  14.444  14.702 -0.1258 -0.2849 -0.0492
16713W        W32897   8.996   6.671   3.447  0.0874  0.1627  0.0336
16714W        W32898   7.797  17.387   4.828  0.2323 -0.1856 -0.2181
16715W        W32899  12.278   3.086   0.683  0.0724 -0.1537  0.0649
16716W        W32900   6.689  13.561   3.516 -0.3824  0.4557  0.0611
16717W        W32901   1.353   4.670  15.187  0.2654  0.0671  0.0073
16718W        W32902  13.754   1.702   1.563 -0.3203 -0.0682  0.3036
16719W        W32903  10.797  10.633  12.244 -0.1236 -0.1701  0.0524
16720W        W32904   5.106  13.058  10.749 -0.2211 -0.1235 -0.0426
16721W        W32905   2.240   9.476  10.589 -0.3552  0.1589 -0.0004
16722W        W32906  18.107   5.802   3.373  0.0637  0.5826 -0.1844
16723W        W32907  10.184   0.100   4.234  0.5126  0.0372  0.0778
16724W        W32908   9.642  16.924  14.127 -0.1227 -0.2816 -0.0865
16725W        W32909  10.063   0.498  14.033  0.0908  0.0684  0.4296
16726W        W32910  17.673  17.580   2.810  0.0180 -0.0088  0.0790
16727W        W32911   9.363   7.611  10.282  0.0293  0.0678 -0.1221
16728W        W32912   6.968  16.736   3.702 -0.1001 -0.1657  0.0671
16729W        W32913  18.770  18.210  15.071 -0.1865  0.1224  0.2153
16730W        W32914   3.619  14.881   4.159 -0.1551  0.0244 -0.0588
16731W        W32915  13.399   4.243  14.004 -0.0132 -0.2126 -0.1776
16732W        W32916  12.103  12.475  15.311 -0.1303  0.2336 -0.2833
16733W        W32917  16.621   2.339  13.413 -0.0369  0.3107  0.0819
16734W        W32918  14.356   1.599  13.994  0.0095  0.0360  0.0612
16735W        W32919   7.684  12.417  13.231 -0.1551  0.0741 -0.0717
16736W        W32920   1.805  12.220  15.027 -0.0368 -0.0593  0.0005
16737W        W32921  15.612   5.193  11.165 -0.1802  0.3194 -0.0142
16738W        W32922   6.002   0.687   2.313  0.1637  0.2106  0.3784
16739W        W32923  11.429  11.947  13.312  0.0157  0.0340 -0.1937
16740W        W32924   3.306  14.422  11.670 -0.0614  0.0689 -0.0090
16741W        W32925  12.491   3.452   0.387  0.2887 -0.1144  0.1614
16742W        W32926  18.494  16.481   2.808 -0.2118 -0.0221  0.0194
16743W        W32927  18.448  11.280  11.387  0.1837 -0.0811 -0.0236
16744W        W32928   3.577   3.605  10.808  0.0465 -0.0557 -0.0681
16745W        W32929  17.663   2.983   4.599 -0.3990  0.0673  0.2440
16746W        W32930   4.754   6.582  14.817 -0.2369  0.1200 -0.2762
16747W        W32931  14.479  13.332   3.749 -0.0367 -0.0664  0.1475
16748W        W32932  16.629  18.134  12.906  0.1571 -0.1087  0.0319
16749W        W32933  14.937  11.606   4.973 -0.0073 -0.3612 -0.1537
16750W        W32934   8.823   9.856  15.018 -0.0652  0.2583 -0.1363
16751W        W32935   0.587  18.911  14.664 -0.0202 -0.1849  0.1638
16752W        W32936  10.474  10.906   2.237 -0.0578  0.0797  0.0998
16753W        W32937   8.277  14.270  14.912  0.0528  0.1224 -0.0626
16754W        W32938   6.413   5.710   1.149 -0.1212  0.0586  0.0819
16755W        W32939  17.948   5.138  10.816  0.1625 -0.0067  0.0217
16756W        W32940   8.762   0.338   4.560  0.0650 -0.0773  0.4307
16757W        W32941   3.150   1.793  10.849  0.2494  0.1518  0.2992
16758W        W32942   5.887   8.712  11.967  0.1698 -0.0099 -0.0391
16759W        W32943   1.499   3.878   1.046 -0.3410  0.0301 -0.0543
16760W        W32944   4.955  14.707  14.388  0.1120 -0.0431 -0.0814
16761W        W32945  13.659  10.298  12.822  0.0267  0.1721  0.1248
16762W        W32946   7.220   7.046   4.540 -0.0551  0.1578  0.2413
16763W        W32947   2.418   2.330  10.620 -0.0616 -0.0433  0.1716
16764W        W32948  10.600   6.789   5.057 -0.0833  0.1011 -0.3045
16765W        W32949  14.929  11.657  10.884  0.0372 -0.1627 -0.0113
16766W        W32950  10.523   8.927   3.808  0.0086 -0.0974  0.2881
16767W        W32951  17.225   5.321  11.319 -0.0527 -0.2712  0.0385
16768W        W32952   5.279  18.623  13.590  0.0631  0.0183  0.3030
16769W        W32953   1.738   5.184  11.991  0.2654  0.3894  0.1123
16770W        W32954  16.017   9.354   2.556 -0.1162  0.0608  0.1897
16771W        W32955  10.390   8.717   3.134 -0.1782  0.1042  0.3034
16772W        W32956   9.345   6.366  12.948  0.1243  0.1340 -0.2284
16773W        W32957   6.330   2.917  11.168  0.3261  0.1370 -0.0584
16774W        W32958   3.014  16.781  10.958 -0.0100 -0.1763  0.2727
16775W        W32959  14.210   6.905   2.377 -0.2854 -0.1980  0.0180
16776W        W32960   8.674   9.575   4.258  0.0609 -0.0062 -0.1050
16777W        W32961  12.053   0.318  13.591  0.2116 -0.0071  0.0356
16778W        W32962  10.365   4.190   3.257 -0.0246  0.0256 -0.1247
16779W        W32963  10.760   3.617  14.317 -0.1724  0.2642  0.2567
16780W        W32964   4.392   5.392   2.519 -0.1180  0.0171 -0.1322
16781W        W32965   9.295   0.321  14.342  0.2476 -0.0180  0.0221
16782W        W32966   6.633   0.773  14.237  0.0457  0.0007  0.1669
16783W        W32967   2.566   6.591  13.825  0.0751  0.0407  0.1940
16784W        W32968  18.828   6.470  13.405 -0.1902  0.1017 -0.1426
16785W        W32969  13.596   0.116   0.334 -0.1504 -0.1462 -0.2788
16786W        W32970  10.999  18.380  14.515  0.1017 -0.0613 -0.1037
16787W        W32971  11.813  18.838  10.787  0.3059  0.2919 -0.1943
16788W        W32972   3.088   9.846  14.634 -0.0558  0.0810 -0.0429
16789W        W32973   5.345  10.709   3.805 -0.0201 -0.4446 -0.2662
16790W        W32974   2.222   4.339  13.092 -0.2255  0.0073 -0.0834
16791W        W32975  11.804  16.377   4.141  0.1203  0.0185  0.0549
16792W        W32976   6.577  11.682  11.569  0.1752  0.6036  0.0688
16793W        W32977   7.447   9.266  11.456  0.0297 -0.0359 -0.0097
16794W        W32978   9.735   4.235  10.743  0.0014  0.0085 -0.0918
16795W        W32979  13.901   2.787  10.392  0.2557 -0.2056  0.2605
16796W        W32980  12.339  15.623  12.057 -0.1950  0.0030  0.3923
16797W        W32981   1.411  11.437  11.062  0.2730  0.0713 -0.1924
16798W        W32982   4.181   2.098   2.271  0.0427  0.0364  0.1801
16799W        W32983  14.986   3.634   5.477 -0.2016 -0.2356 -0.1721
16800W        W32984   7.902  15.427  12.215 -0.1688 -0.1517 -0.2552
16801W        W32985   0.431  10.537   1.926  0.0708  0.2705  0.1818
16802W        W32986  17.250  13.277  10.218  0.1974 -0.0703  0.0888
16803W        W32987   5.611   3.529   0.874 -0.0100 -0.1094  0.2374
16804W        W32988  15.537  18.253  10.576  0.3991 -0.3216 -0.3879
16805W        W32989   0.202   9.433   2.651 -0.0942 -0.1288  0.4742
16806W        W32990   0.665  18.732  14.155 -0.0553  0.0820 -0.3064
16807W        W32991   5.400  12.959   5.594  0.0204  0.2306 -0.3140
16808W        W32992   5.661   3.254  11.746 -0.2354 -0.0073 -0.2270
16809W        W32993   3.399   2.206  10.721  0.1528  0.0465  0.1444
16810W        W32994  10.840   6.903  12.853 -0.0897 -0.2001 -0.0838
16811W        W32995   1.613   3.363  11.290  0.0462 -0.0152  0.1160
16812W        W32996   5.522  11.432  13.462 -0.0571  0.2439 -0.2898
16813W        W32997  10.975  18.766  12.854  0.1070  0.1242 -0.0938
16814W        W32998   7.115  18.567   3.765  0.3672 -0.0498 -0.2365
16815W        W32999   7.409   0.462  11.860  0.0862 -0.0368  0.0501
16816W        W33000   0.066  18.929   1.475  0.4250 -0.0988 -0.0224
16817W        W33001  12.471  14.104   3.014 -0.2583 -0.1129 -0.0358
16818W        W33002   7.873  10.272   4.056 -0.0307  0.0249 -0.2509
16819W        W33003  13.614  15.853  12.642  0.1112  0.3268  0.0874
16820W        W33004  10.575   8.018   1.303 -0.0652 -0.3353  0.0132
16821W        W33005   7.921   4.341   2.693  0.1279  0.1002  0.1533
16822W        W33006   9.765   3.956  13.197 -0.2857  0.0630 -0.1739
16823W        W33007   6.410  17.762  15.191 -0.1557  0.0412  0.0977
16824W        W33008  15.867  10.502   4.948  0.1128  0.0501 -0.4649
16825W        W33009   3.833  18.661   1.280  0.0118 -0.0331  0.0897
16826W        W33010  15.094   2.979   3.689 -0.4623 -0.1384 -0.2425
16827W        W33011  14.388  12.514  11.950  0.1198  0.2124 -0.2210
16828W        W33012   4.408  10.665   4.255  0.1286  0.0238  0.1119
16829W        W33013   3.584   8.067   0.281 -0.2188  0.2388 -0.2634
16830W        W33014  10.838   6.592   4.000  0.4701 -0.0711  0.1222
16831W        W33015   9.914   4.895  12.494 -0.0063  0.3987 -0.0328
16832W        W33016   3.612  15.141   1.157  0.0381 -0.0591  0.1186
16833W        W33017   3.699  18.753   1.745  0.1852  0.0290 -0.0333
16834W        W33018   1.143   4.757  14.713 -0.1182 -0.1090 -0.0612
16835W        W33019  15.630   9.315  15.118  0.1164 -0.2934 -0.2526
16836W        W33020   4.115   1.274   5.437 -0.0517 -0.0097  0.1194
16837W        W33021  16.335  18.369  14.978  0.3143 -0.3723  0.0386
16838W        W33022  17.241   0.376   5.430 -0.0069 -0.0572  0.0891
16839W        W33023   3.071   9.819   3.248 -0.0296  0.2547  0.1951
16840W        W33024  14.620  14.545   1.937  0.1249  0.3057  0.1853
16841W        W33025  12.704  12.826   9.771  0.1779 -0.1798  0.2877
16842W        W33026   2.514   2.257   2.877  0.1255 -0.0068  0.0291
16843W        W33027   4.857   7.947   2.495 -0.1080 -0.0231  0.2070
16844W        W33028   6.099   7.590  12.432 -0.0161  0.0166  0.2525
16845W        W33029  16.766   6.899  12.579  0.1111  0.0134 -0.0791
16846W        W33030   5.336   3.826   0.264  0.0179 -0.3872 -0.1404
16847W        W33031  18.069   3.062  12.050 -0.0609  0.0177 -0.1222
16848W        W33032  11.404  10.337   5.356 -0.1109  0.1601 -0.0874
16849W        W33033  15.328   8.589   0.934  0.0991  0.0987  0.1048
16850W        W33034   0.927  13.223  14.864 -0.2511 -0.1673 -0.1982
16851W        W33035   6.445   8.056  14.331 -0.0733 -0.2597 -0.1966
16852W        W33036  11.560  15.756  11.263  0.2026 -0.0350 -0.0541
16853W        W33037  17.914  10.274   1.710 -0.1058 -0.3266 -0.0516
16854W        W33038  15.166   6.255   5.826 -0.1930  0.0777  0.1632
16855W        W33039   6.018  15.719  12.782  0.0138  0.0131 -0.1993
16856W        W33040  16.673  17.548  12.619  0.1742 -0.1407  0.0686
16857W        W33041  16.566  12.671  12.297  0.2961  0.0306  0.1497
16858W        W33042  18.223   2.576  12.224  0.2306  0.1395 -0.1613
16859W        W33043   6.790  18.792  10.392 -0.2255 -0.0601 -0.0393
16860W        W33044   7.426  17.961   3.237  0.0838  0.3116 -0.1027
16861W        W33045   9.473  16.718   4.341  0.1038  0.1960 -0.1552
16862W        W33046   8.573  11.633   4.270  0.0046  0.1693 -0.1394
16863W        W33047   9.664   7.290   3.595  0.2403 -0.0263 -0.1557
16864W        W33048  17.216  11.112  15.270 -0.0254  0.1598 -0.1355
16865W        W33049  17.411  12.634   1.702  0.3457 -0.1455 -0.2885
16866W        W33050  15.501  15.665   5.089 -0.2628 -0.0661 -0.1812
16867W        W33051   5.044   1.293  10.695 -0.2153 -0.0091  0.1176
16868W        W33052  10.427  10.913  13.360  0.2263  0.1635 -0.4125
16869W        W33053  10.222  11.303  11.791 -0.1828 -0.2876  0.2560
16870W        W33054   1.731   3.752   2.843 -0.1690 -0.1248  0.1665
16871W        W33055  17.834  18.187  11.582  0.1624 -0.2679  0.0473
16872W        W33056  17.853   1.013  14.639  0.4770 -0.0280  0.3232
16873W        W33057   4.635  18.074   3.375  0.1206  0.1260  0.1320
16874W        W33058   3.841  18.815  12.016  0.0076 -0.1615 -0.1490
16875W        W33059   0.378  11.418  12.960  0.1321  0.1751 -0.1369
16876W        W33060   6.195   8.250  12.075  0.0606 -0.0988  0.1133
16877W        W33061   6.978  18.192  14.686  0.0592 -0.1425  0.0517
16878W        W33062  13.863  10.367  15.276 -0.1864  0.2588 -0.1677
16879W        W33063  11.402  10.490  12.298 -0.0671 -0.2801 -0.3133
16880W        W33064   4.113  13.153  15.303  0.0422  0.1909 -0.0900
16881W        W33065   7.896   0.561  11.969  0.1348 -0.1625 -0.1188
16882W        W33066  14.300  12.300   3.971 -0.2001 -0.0428  0.0641
16883W        W33067   5.227   5.788   5.271 -0.2496  0.1984 -0.0562
16884W        W33068   5.911  10.721  14.398 -0.1133 -0.2870 -0.0304
16885W        W33069  13.235   0.188   4.077  0.2390  0.1081 -0.0344
16886W        W33070  11.271  11.946   3.645 -0.0917  0.0077 -0.0557
16887W        W33071   6.368   7.167   0.637  0.1430  0.1621  0.0038
16888W        W33072  14.922  13.709   3.824  0.1787 -0.3047 -0.1566
16889W        W33073  10.082   8.997   1.953 -0.1085  0.1933 -0.2325
16890W        W33074  18.407   7.266   0.384  0.0754  0.2260  0.1042
16891W        W33075  14.636  11.723  12.209 -0.0254 -0.1482  0.0479
16892W        W33076  16.744   0.637  14.768  0.0852 -0.2593  0.1527
16893W        W33077  18.442   9.473   2.909 -0.1152  0.0918  0.2441
16894W        W33078  12.500  10.982  12.841  0.0497  0.0644 -0.2243
16895W        W33079  18.612  17.815   2.807 -0.0327  0.0823 -0.0897
16896W        W33080  11.829  18.932   4.130  0.3503 -0.0452 -0.0883
16897W        W33081   0.016  11.692   1.428 -0.1678 -0.3209  0.0962
16898W        W33082   6.835  12.663   2.494  0.1867  0.0968  0.1213
16899W        W33083  10.757   0.886   3.991 -0.0022  0.0574  0.2513
16900W        W33084  12.412  10.968   1.648 -0.3689  0.0249 -0.2568
16901W        W33085  14.496  17.236  10.720  0.1025 -0.1205  0.0214
16902W        W33086  16.541   2.509  11.878  0.1596  0.1987  0.0312
16903W        W33087   4.672  13.017   3.018  0.1396 -0.0547  0.0522
16904W        W33088  18.769  14.092   1.759  0.0053  0.1613 -0.0132
16905W        W33089  14.579  18.184  12.929  0.1533  0.4253  0.1756
16906W        W33090   1.613   7.218  10.924  0.1484 -0.0677 -0.2520
16907W        W33091  13.730  10.234  11.891 -0.0204  0.2455  0.2145
16908W        W33092   3.841   6.092  15.298  0.1027 -0.3252  0.2609
16909W        W33093   4.919   2.213  15.260 -0.1551  0.0107  0.0750
16910W        W33094  10.400   1.856  12.581  0.0116 -0.0432 -0.1464
16911W        W33095   2.263   4.747  13.683 -0.0529 -0.2377  0.6476
16912W        W33096   5.305   8.213   4.964 -0.0054  0.0705 -0.0815
16913W        W33097   6.449   7.132  12.395 -0.0409  0.0532 -0.1538
16914W        W33098  12.689   2.983   5.441 -0.1462 -0.1974 -0.1502
16915W        W33099  11.514   5.725   2.996 -0.3668 -0.3987  0.1557
16916W        W33100  14.772   1.328   0.741 -0.0730 -0.3123 -0.0437
16917W        W33101  11.633  16.876  13.083 -0.0039  0.0601  0.2323
16918W        W33102   9.724   9.749  12.185 -0.1512  0.1804 -0.1047
16919W        W33103  14.578   6.011  14.572 -0.0101  0.0469  0.0609
16920W        W33104  14.721   9.498  13.316  0.0115 -0.0563 -0.0976
16921W        W33105   6.708  13.731  11.015  0.0703 -0.2300  0.1093
16922W        W33106  12.167   2.646   4.975 -0.1776  0.1704  0.1273
16923W        W33107  16.405  11.450   0.481  0.2979  0.2884  0.3160
16924W        W33108   8.914  18.011  14.621 -0.0066  0.1045 -0.2253
16925W        W33109   4.288   3.256  11.300  0.2682 -0.1362 -0.3338
16926W        W33110  10.539   0.792   1.090  0.0232 -0.1509  0.4998
16927W        W33111  17.912   6.177  11.093  0.2260 -0.2256 -0.0321
16928W        W33112  16.542   8.976  12.432  0.0871  0.2533 -0.0317
16929W        W33113  18.867  11.718  11.378  0.1078  0.1036  0.0891
16930W        W33114   0.966   2.828   0.321  0.3010  0.0016 -0.1733
16931W        W33115   5.171  16.930  13.896 -0.2304 -0.1806  0.1804
16932W        W33116  13.144   6.528   4.170 -0.2848  0.2247  0.0711
16933W        W33117   6.318  14.490   0.851  0.1249 -0.0175  0.2063
16934W        W33118  17.903  18.736  12.796 -0.0714 -0.1641 -0.1422
16935W        W33119   3.036   9.809   2.711 -0.2170  0.2437  0.0683
16936W        W33120   3.066   2.542  14.768 -0.0790  0.0069  0.1315
16937W        W33121   7.583   4.302  14.411 -0.0541  0.1253 -0.2279
16938W        W33122  14.302   3.839  11.278 -0.0256 -0.4006 -0.1826
16939W        W33123   2.106   3.217  11.442 -0.1521 -0.1736  0.1406
16940W        W33124   7.929  14.118  14.547  0.0737 -0.1404  0.1119
16941W        W33125   7.164   0.262   4.376 -0.2221 -0.0170  0.0204
16942W        W33126  14.806  13.858   4.327 -0.3004  0.2614 -0.1989
16943W        W33127   0.807   1.639   5.119 -0.3666  0.3976 -0.0461
16944W        W33128   9.327  10.555  13.454  0.1284  0.2976  0.0712
16945W        W33129   6.089   3.650  11.304 -0.2687 -0.2691 -0.1413
16946W        W33130   0.502   7.014   2.704  0.1061  0.2314  0.0519
16947W        W33131  14.090   7.012  12.259  0.1310  0.2114 -0.2072
16948W        W33132   4.708   0.614   1.215  0.2683 -0.0592 -0.1888
16949W        W33133   2.042  14.629   2.549 -0.0425 -0.2185  0.0159
16950W        W33134   7.915  13.772   2.695  0.4151 -0.0098  0.0527
16951W        W33135  11.355  14.698  12.406  0.0361  0.3304  0.4841
16952W        W33136  12.912  13.153   1.799  0.0873 -0.3441  0.2091
16953W        W33137  14.340   9.755  13.691 -0.2576  0.0259 -0.1353
16954W        W33138   1.566   4.299   2.207  0.2587  0.5508  0.1620
16955W        W33139  11.716  18.300  11.752  0.0344  0.0725 -0.0807
16956W        W33140   2.139  14.137   2.851 -0.1406 -0.3145  0.0851
16957W        W33141   5.142   4.315  11.626 -0.1068  0.0165 -0.0481
16958W        W33142  15.988  12.681   3.663 -0.4209 -0.2203 -0.0217
16959W        W33143  15.080   5.854   5.083 -0.1770 -0.1998 -0.1236
16960W        W33144   8.524   1.139   0.326  0.2584 -0.0111  0.0966
16961W        W33145   8.514   9.000   4.658  0.0755  0.0707  0.0986
16962W        W33146  10.653   5.449  10.636  0.0424  0.0956  0.1114
16963W        W33147  15.041   6.318   4.469 -0.3291  0.3997 -0.0829
16964W        W33148   2.506  16.858   5.383 -0.0212  0.1785  0.0187
16965W        W33149  11.572   9.883  12.290  0.1345 -0.0180 -0.0894
16966W        W33150   3.869   4.152   2.483 -0.0255 -0.0442 -0.1105
16967W        W33151  18.771   6.759   3.272  0.0843 -0.1629 -0.4072
16968W        W33152   2.213   3.230   4.149  0.1009 -0.1186  0.0602
16969W        W33153  11.155  12.180   2.650  0.2957 -0.1146  0.1379
16970W        W33154   7.934   4.998  14.916 -0.0521  0.0232 -0.1696
16971W        W33155  17.878   8.154   4.103 -0.1214 -0.1300  0.2839
16972W        W33156  17.093  18.479   2.072 -0.3333 -0.0945 -0.1088
16973W        W33157   0.914  12.795  13.560  0.1581 -0.1725 -0.1632
16974W        W33158   2.383   3.540  11.193  0.1180  0.0235  0.1672
16975W        W33159   3.507   7.458   1.398 -0.0891  0.1907  0.0264
16976W        W33160   3.416   3.965  10.388  0.0901  0.2392  0.3413
16977W        W33161  11.828  14.433  14.911 -0.2233 -0.3254  0.0656
16978W        W33162   8.128   0.111  12.659 -0.1469  0.1687  0.2811
16979W        W33163  13.701  18.159   1.033 -0.0814  0.0088 -0.1346
16980W        W33164  10.692   9.137  15.244 -0.0379  0.2037 -0.2981
16981W        W33165   1.202  18.185   4.811 -0.2977  0.0735 -0.3304
16982W        W33166  12.781  10.417   0.678  0.1181 -0.3691  0.2561
16983W        W33167   3.531   4.541  10.960  0.2093  0.0831  0.1981
16984W        W33168   1.197   5.102   5.025  0.3786 -0.1573 -0.0846
16985W        W33169   3.676  11.797  14.205 -0.0751 -0.1089 -0.2377
16986W        W33170   8.207  13.574   0.108  0.2971  0.4520 -0.1526
16987W        W33171   7.306  13.308  14.137 -0.0609 -0.1649  0.1561
16988W        W33172  18.587  13.620  11.979  0.0126  0.2955  0.2643
16989W        W33173  18.938   9.561   3.145  0.1189 -0.0467 -0.2644
16990W        W33174   0.642  12.785   2.802  0.2473  0.0659  0.1173
16991W        W33175   7.438  18.990   3.623  0.3671  0.1094  0.0716
16992W        W33176   2.573   5.168  13.529  0.2171  0.1054 -0.2771
16993W        W33177   2.267  17.559  15.187  0.0914  0.1130 -0.0162
16994W        W33178  14.258  17.628   4.040 -0.0167 -0.1722 -0.0591
16995W        W33179  18.506  16.311  12.715 -0.2094 -0.1076  0.2203
16996W        W33180  15.705   4.277   9.875  0.1438  0.1885  0.1104
16997W        W33181  18.362  11.967   2.473 -0.3690 -0.0643 -0.0133
16998W        W33182   1.916   9.752  11.823  0.2124 -0.1080 -0.0430
16999W        W33183   4.411   5.510  13.795  0.0577  0.0259  0.2420
17000W        W33184  11.500   2.327  13.226 -0.0562  0.0525  0.0059
17001W        W33185  12.297  14.895   0.116 -0.2664 -0.1527 -0.0612
17002W        W33186   5.810  10.173   1.507  0.0262 -0.0649 -0.0619
17003W        W33187  12.678   2.393   1.349  0.0994 -0.1961  0.1462
17004W        W33188  17.189  13.320  14.709  0.0356  0.2642  0.1224
17005W        W33189   2.134   5.847   4.385  0.0598 -0.0964 -0.2180
17006W        W33190   9.102   2.229   4.972  0.0893 -0.1927 -0.0896
17007W        W33191   0.888  12.349  11.989  0.0260 -0.0281 -0.1901
17008W        W33192   9.286   7.590  13.787 -0.1088 -0.1006  0.0135
17009W        W33193   0.459  15.995  11.580  0.4386  0.0516 -0.0016
17010W        W33194   7.549   8.922  13.656  0.0103  0.1202  0.2415
17011W        W33195  13.395  10.477   4.984  0.0651 -0.1103  0.0186
17012W        W33196  16.521   1.697   2.454 -0.1185  0.2274 -0.1234
17013W        W33197   3.413   3.709  11.842  0.0387 -0.3929 -0.1855
17014W        W33198  13.370  11.956  14.390 -0.1371 -0.0646 -0.0031
17015W        W33199   4.424   1.079  13.719  0.2119  0.0226  0.1448
17016W        W33200   9.749   1.248   0.706  0.1455  0.1581  0.2228
17017W        W33201   7.653  14.921   0.990 -0.2054  0.4290  0.1443
17018W        W33202  13.795  18.778  14.106  0.2584  0.0332 -0.2373
17019W        W33203   7.290  17.408   4.682  0.0505  0.0190 -0.0636
17020W        W33204   6.493  18.611  11.563 -0.3633  0.0162 -0.1809
17021W        W33205   9.438   0.986  11.576 -0.0055  0.3776  0.0538
17022W        W33206   3.287   6.007  14.245 -0.3150  0.0302  0.0294
17023W        W33207  16.715  12.185  14.202  0.0274 -0.2189  0.0132
17024W        W33208   2.129   5.558   3.638 -0.2242 -0.0572 -0.0187
17025W        W33209   0.348   2.575   4.550 -0.1993 -0.0914 -0.0603
17026W        W33210  10.792   0.231   3.332 -0.0833 -0.2025 -0.3276
17027W        W33211  13.942  16.954   2.183  0.3570  0.2930  0.1092
17028W        W33212   5.412  15.963   4.744 -0.3757 -0.3455 -0.2701
17029W        W33213  11.951   9.251   0.200 -0.0238  0.0172 -0.2502
17030W        W33214   5.570   7.807  14.088 -0.1328  0.3420 -0.0994
17031W        W33215   1.245  15.481   5.147 -0.0357  0.2110  0.0921
17032W        W33216   1.249   9.544   0.638 -0.0907 -0.0278 -0.1066
17033W        W33217  12.876   9.426  13.228 -0.0442 -0.0561  0.0517
17034W        W33218  14.750  10.187   0.722 -0.0045 -0.2896  0.0935
17035W        W33219  18.043  14.771   2.594  0.0594  0.0275  0.1809
17036W        W33220   7.092   4.389  12.402 -0.1169 -0.0616 -0.0944
17037W        W33221  12.268   3.482   4.153 -0.1875 -0.1069  0.0420
17038W        W33222  16.022  16.036   1.559 -0.2224 -0.0694  0.0841
17039W        W33223   1.451  11.467   2.686  0.1586 -0.0050 -0.0591
17040W        W33224   9.925  17.638  14.728  0.1172  0.4302  0.0081
17041W        W33225  13.911   4.405  14.253 -0.2968  0.0028  0.0646
17042W        W33226   4.555   9.680  14.790 -0.2647  0.1574 -0.0801
17043W        W33227   1.376   8.528  13.723  0.0636 -0.0683 -0.2636
17044W        W33228  13.898  13.139   0.872  0.0994  0.0286 -0.0314
17045W        W33229   6.713   4.859   0.623 -0.0957  0.1166 -0.1932
17046W        W33230  13.773  12.590   5.470 -0.0280  0.0314  0.1527
17047W        W33231   8.867   8.401   4.366 -0.2551  0.0959 -0.3430
17048W        W33232  18.277   2.909   1.588 -0.0240  0.2383  0.2393
17049W        W33233  18.645  14.129   5.548 -0.4423  0.0022  0.2813
17050W        W33234  15.847  10.205  14.775 -0.1449 -0.2744 -0.0750
17051W        W33235  14.546   7.280  11.270  0.0458 -0.2077 -0.2934
17052W        W33236   9.970  12.267   4.579 -0.1005  0.3054 -0.1572
17053W        W33237   3.703  15.195   5.097 -0.1331  0.1211  0.0550
17054W        W33238  14.917  11.140  10.924  0.2117 -0.1049 -0.3426
17055W        W33239   4.271   1.692   0.952  0.2330  0.0545 -0.0591
17056W        W33240  10.908   3.291   2.749 -0.1730  0.2760 -0.2176
17057W        W33241   7.055  13.048   1.372  0.0174  0.0150 -0.1050
17058W        W33242  10.828  18.955  10.878 -0.0258  0.1264  0.1393
17059W        W33243   2.614  16.195  11.777  0.0081  0.0004  0.1359
17060W        W33244  13.734  13.480  13.724 -0.1203  0.4085 -0.0602
17061W        W33245   4.650   2.233   2.180  0.0667  0.1599 -0.1262
17062W        W33246   9.069   2.231  11.801 -0.0464  0.1086  0.1417
17063W        W33247   7.951  10.739   3.815  0.1388  0.0192  0.0409
17064W        W33248   0.700  12.149  11.261 -0.1666  0.3584 -0.0882
17065W        W33249  15.042  11.154   0.427  0.2154  0.1472  0.0948
17066W        W33250  17.172  12.416   3.558  0.1102 -0.0432 -0.0557
17067W        W33251  15.058   4.458  11.530 -0.0726  0.1592 -0.2701
17068W        W33252  10.489   0.193   3.770  0.1729  0.3074 -0.1439
17069W        W33253   3.481   6.900  14.861  0.3131 -0.0779 -0.0263
17070W        W33254  17.490   3.355   0.485 -0.2886  0.1930 -0.1642
17071W        W33255   2.050   8.137   4.304  0.0977  0.2504  0.0208
17072W        W33256   8.964  12.604   2.183  0.0222  0.1765 -0.4085
17073W        W33257   1.707  18.545   3.038  0.0466 -0.2992  0.1702
17074W        W33258  12.049   2.071   2.261 -0.0381  0.2113 -0.1404
17075W        W33259  13.803  17.214  10.555  0.0353 -0.2085 -0.1540
17076W        W33260   5.766   2.895  10.833  0.1116  0.1186 -0.3190
17077W        W33261  18.698   1.235   3.500  0.1062  0.0694  0.1810
17078W        W33262   0.069  18.412   1.277 -0.1883  0.0367  0.1338
17079W        W33263  10.814   6.266   3.303  0.2336  0.1540  0.1833
17080W        W33264   4.339  16.047   0.340 -0.2003  0.0114 -0.2814
17081W        W33265  15.120   3.655  11.994 -0.0809  0.3543  0.1166
17082W        W33266  17.030   6.519   3.287  0.1615 -0.0043  0.0211
17083W        W33267   1.118   4.513   3.523 -0.0860  0.0975 -0.0328
17084W        W33268  14.635   3.353   3.776  0.0560 -0.1683 -0.0013
17085W        W33269  17.573  13.591  10.420  0.0726 -0.1218  0.3685
17086W        W33270  17.544   6.478   5.581  0.0200 -0.0901 -0.1659
17087W        W33271   5.464  11.063  15.187  0.1453 -0.0210 -0.2192
17088W        W33272   4.065  12.791   3.409  0.1225  0.1399  0.0895
17089W        W33273  10.993  16.696  13.786  0.0343  0.0175 -0.0625
17090W        W33274   3.859  18.418  11.111  0.2643  0.1648  0.1830
17091W        W33275  12.059  17.382  14.389  0.1862  0.0394 -0.0200
17092W        W33276  14.131   4.735  13.791  0.0925 -0.0686  0.0567
17093W        W33277   1.435   2.667  13.960 -0.0322  0.1399  0.0179
17094W        W33278  10.354   0.207  10.553  0.2179 -0.3701 -0.1401
17095W        W33279  14.285  14.894   2.582  0.0242 -0.1655 -0.1785
17096W        W33280   8.509  10.573  13.901  0.1958 -0.4406  0.0464
17097W        W33281  15.464   8.352  13.149 -0.1267  0.0013 -0.1194
17098W        W33282  12.638   0.554  11.523  0.0328  0.1040 -0.2189
17099W        W33283   2.668   1.630  13.316  0.1394 -0.2943  0.0087
17100W        W33284   0.474  11.560   2.485 -0.3103 -0.0925 -0.2225
17101W        W33285   3.754   7.267   2.237 -0.0514 -0.1444  0.2448
17102W        W33286   1.412   5.224  15.307 -0.1845  0.0217 -0.1587
17103W        W33287  13.800   2.933  11.875 -0.1246  0.2042 -0.1242
17104W        W33288  17.352   1.569  15.187 -0.3185  0.0141  0.0783
17105W        W33289  18.988   3.114  14.045  0.0115  0.3643  0.1141
17106W        W33290  11.835  12.083  10.720 -0.0593  0.0868 -0.1594
17107W        W33291   8.291   8.477   0.906  0.2142 -0.3689  0.0533
17108W        W33292  12.854   4.348  13.746  0.2769  0.0198  0.0467
17109W        W33293  15.130  10.187  11.558 -0.2248  0.1691  0.0675
17110W        W33294   9.570  15.630  10.945 -0.2237  0.1390  0.1673
17111W        W33295  14.516   7.882   3.565 -0.2166  0.1988  0.0112
17112W        W33296   2.173  15.890   0.470 -0.0507  0.0133 -0.1395
17113W        W33297   0.364   6.621  15.069 -0.1047  0.5793 -0.0362
17114W        W33298  18.235  12.460   2.635 -0.0071 -0.3978 -0.0644
17115W        W33299  10.925   0.392   0.931 -0.0023  0.4341 -0.3195
17116W        W33300  14.383  18.911  12.118  0.0155 -0.4111 -0.0992
17117W        W33301   7.215  15.575   1.377 -0.0219  0.3771  0.1182
17118W        W33302   6.600   9.172  10.867 -0.1553 -0.0186  0.2919
17119W        W33303  18.046  11.533  15.234  0.1998  0.1224 -0.0829
17120W        W33304   7.154   3.160  10.662 -0.0461  0.0234  0.2011
17121W        W33305   3.174   6.087   0.520  0.0363 -0.1805  0.3231
17122W        W33306  10.270  11.151   0.018  0.1691  0.0417 -0.1077
17123W        W33307   0.249  17.380  11.279  0.1667  0.1482  0.0964
17124W        W33308   3.523   7.734   1.825  0.0989  0.1182  0.0137
17125W        W33309   2.751   1.618   0.909  0.0398 -0.2481 -0.2991
17126W        W33310   6.331  11.870  10.785 -0.1262 -0.0439 -0.0032
17127W        W33311  11.741  15.641   5.146 -0.1089  0.0267 -0.2139
17128W        W33312   8.777   5.957   2.298 -0.0197  0.0932 -0.1219
17129W        W33313  12.653   1.594   0.988  0.1153 -0.1418 -0.0466
17130W        W33314  18.155  16.118  15.366 -0.0802  0.2034 -0.0814
17131W        W33315  12.623  13.932  15.242 -0.1300 -0.0361  0.0563
17132W        W33316  18.588  14.753  14.251  0.0236  0.1449  0.2433
17133W        W33317  10.723  11.820   4.616 -0.3351 -0.0777 -0.1210
17134W        W33318   1.390   1.928  10.972 -0.2575 -0.0563 -0.2263
17135W        W33319   0.810   6.194  12.364  0.2946  0.0820 -0.1689
17136W        W33320  14.694   3.307   1.067 -0.0338  0.0771  0.1555
17137W        W33321   5.069  12.162   2.050 -0.1014 -0.1409  0.1832
17138W        W33322   6.224   4.365   1.413 -0.1791 -0.0989 -0.0020
17139W        W33323  16.753   3.860   3.835 -0.2492 -0.2682  0.2475
17140W        W33324  17.123   2.487   4.579  0.2042 -0.0456  0.2376
17141W        W33325   1.338   4.073   0.553 -0.2310  0.0080  0.3474
17142W        W33326  15.369   7.203  11.321  0.2927  0.0558 -0.2585
17143W        W33327   0.339  17.682   4.895 -0.3709 -0.1503 -0.1560
17144W        W33328  10.619   1.485  14.922 -0.3330 -0.1158  0.0412
17145W        W33329   5.568  11.317  11.093  0.0516 -0.2335  0.1304
17146W        W33330  13.447  15.230   0.583  0.0350 -0.1195  0.0999
17147W        W33331   8.881  16.730  11.690 -0.0603  0.0042 -0.2298
17148W        W33332   7.175  15.683   4.833  0.0959 -0.0981  0.2132
17149W        W33333   7.154  13.281   2.512 -0.2194 -0.1767  0.3804
17150W        W33334   1.512   6.560  13.651  0.1068 -0.2527  0.0160
17151W        W33335   0.218   0.168  12.460  0.1224 -0.1301 -0.2076
17152W        W33336   3.817   9.224   5.011 -0.2154  0.0289  0.1927
17153W        W33337   2.617   6.822  14.277  0.0948 -0.0561 -0.0823
17154W        W33338  11.097  14.918   3.821 -0.0467  0.1513 -0.1388
17155W        W33339   3.515  16.048  11.310  0.0488 -0.1853 -0.1119
17156W        W33340  11.045   4.888  13.896 -0.1691 -0.0484  0.1770
17157W        W33341  11.662  16.148   0.419  0.0958  0.0586  0.2647
17158W        W33342  18.587   2.812  11.025  0.1212 -0.0066 -0.1592
17159W        W33343  12.364  17.758   2.926  0.1311 -0.1402 -0.3673
17160W        W33344   9.996   7.501  11.140  0.2683  0.0106  0.0531
17161W        W33345  10.027  17.704  13.846 -0.4562 -0.2237 -0.1064
17162W        W33346   2.601   7.465   2.624  0.0652 -0.0233 -0.2730
17163W        W33347  18.024   7.572   0.219 -0.3012 -0.0387  0.2133
17164W        W33348   4.484   7.667  10.728 -0.2943 -0.1185  0.0476
17165W        W33349   9.923   7.940   2.139 -0.3640 -0.1113 -0.1717
17166W        W33350  16.573   4.604  12.253 -0.1301  0.1091 -0.1891
17167W        W33351  16.105   4.605   4.099  0.2626 -0.0713 -0.0600
17168W        W33352  11.535   5.096  13.899 -0.2849 -0.0796 -0.1511
17169W        W33353   9.420   3.079   4.462 -0.0351  0.3986 -0.0329
17170W        W33354  18.302  18.957  11.476 -0.1001 -0.0077  0.2359
17171W        W33355  14.059   0.323  15.245 -0.1591  0.1924 -0.4012
17172W        W33356   0.616   5.868   3.433  0.1574  0.0794 -0.2783
17173W        W33357   5.328   3.637   4.970 -0.1389 -0.0942 -0.2075
17174W        W33358  11.045   7.343   2.294  0.0345  0.1409 -0.0238
17175W        W33359   2.832  10.053  11.086  0.0029  0.2381  0.3165
17176W        W33360  10.626  17.460  12.742 -0.0867 -0.1526  0.0238
17177W        W33361  12.876   8.899   1.998 -0.0244  0.0767  0.2970
17178W        W33362   0.399  12.923   0.780  0.1787  0.1627 -0.0268
17179W        W33363  17.180  15.202  12.019 -0.1098  0.1020 -0.0020
17180W        W33364  18.356   0.509   2.971  0.0729 -0.3229  0.2381
17181W        W33365  18.060  12.362   4.158 -0.0246  0.1006 -0.4882
17182W        W33366   5.380  18.524   0.576  0.2120 -0.0647 -0.5272
17183W        W33367  18.439  14.699   0.776 -0.0701  0.0128 -0.4095
17184W        W33368   7.190  15.608   2.350 -0.0629 -0.2969 -0.3274
17185W        W33369  15.524  12.843  14.208  0.1699  0.2291 -0.2388
17186W        W33370   1.236  12.338   4.283 -0.1948  0.0074 -0.2906
17187W        W33371   1.486   5.077  14.323  0.1585 -0.1710  0.0079
17188W        W33372   8.979   1.420   2.816  0.1064  0.4129  0.1228
17189W        W33373  16.036   0.066  10.739  0.0414  0.0541  0.1091
17190W        W33374  14.964  14.410  15.318  0.1600  0.0670 -0.3497
17191W        W33375   6.385   7.352   4.510 -0.2332  0.1519  0.0476
17192W        W33376  13.585   4.516   1.282 -0.0921  0.3522  0.2176
17193W        W33377   2.183  17.161   1.437 -0.0711  0.1521  0.1169
17194W        W33378  16.257  10.926   1.234  0.1495  0.4130 -0.0226
17195W        W33379   2.320  17.124  14.412  0.2008 -0.1847 -0.0603
17196W        W33380   9.224   5.219   4.217  0.1029  0.2510 -0.0937
17197W        W33381   4.530   1.268   0.732 -0.1805  0.1662  0.1646
17198W        W33382   8.673   9.137   0.463 -0.2470 -0.1378  0.4261
17199W        W33383  11.433   9.561   1.204 -0.1910  0.0502 -0.0561
17200W        W33384  12.737  16.169   3.112 -0.0640  0.0596 -0.0397
17201W        W33385  12.306  11.783   1.267  0.0618 -0.0245 -0.2780
17202W        W33386  12.843   6.438  14.234 -0.4468  0.0077  0.1890
17203W        W33387   1.458  17.899   1.610  0.3365 -0.0604 -0.2903
17204W        W33388   7.207  16.688  14.305 -0.0982 -0.1857 -0.2301
17205W        W33389  14.129  14.311   0.113  0.1644 -0.0219 -0.2617
17206W        W33390  14.232   0.236  11.739 -0.0446 -0.2563  0.0839
17207W        W33391   1.129  14.063   1.148 -0.0194  0.0968  0.1301
17208W        W33392   7.935   4.634  13.033 -0.0351 -0.0458 -0.1383
17209W        W33393   0.796   1.522  12.441 -0.1373  0.2196 -0.1148
17210W        W33394  13.084  14.764   1.174  0.1037 -0.4230 -0.0626
17211W        W33395   8.496   2.084  11.570 -0.1517 -0.0978  0.0818
17212W        W33396  15.143   3.446   0.686 -0.0910 -0.0522  0.0927
17213W        W33397   4.750   0.953  11.178  0.1428 -0.1913  0.0776
17214W        W33398  14.341  13.668   2.950  0.3242  0.0590  0.2661
17215W        W33399   3.655  16.707  10.595  0.0436 -0.0019  0.0443
17216W        W33400   2.494  16.592   0.981  0.1051 -0.0812 -0.1577
17217W        W33401   4.289  15.355   0.372 -0.0462 -0.0261 -0.0056
17218W        W33402  10.396   6.905   1.047 -0.2110  0.1268  0.1179
17219W        W33403  18.594  13.306   3.903 -0.0611  0.2244 -0.2247
17220W        W33404   2.833  15.987   5.061 -0.0233  0.0905  0.0480
17221W        W33405  12.769   6.143   1.613 -0.0300 -0.0391 -0.0777
17222W        W33406   6.562  13.076   0.076 -0.4942 -0.2570 -0.2997
17223W        W33407  17.440  18.307   3.398 -0.3436 -0.3266 -0.1463
17224W        W33408  12.170   8.133  13.335 -0.0424  0.2115  0.2257
17225W        W33409  16.656  18.942  12.007  0.1118  0.1840  0.2693
17226W        W33410  12.054  12.030   0.897 -0.1262 -0.1910 -0.0042
17227W        W33411   3.835   0.916   5.104 -0.2508 -0.1427 -0.1192
17228W        W33412  13.324   6.872   1.979  0.3129  0.0825  0.2916
17229W        W33413   1.406   9.772   9.655 -0.1185  0.2243  0.0920
17230W        W33414  13.525   8.034   4.943  0.3562 -0.1917 -0.6814
17231W        W33415  10.982   0.076  14.773 -0.0087 -0.0463 -0.1206
17232W        W33416   4.840  10.769   1.589 -0.3495  0.3682  0.0788
17233W        W33417   1.332  12.290  12.805  0.1991  0.0867  0.2045
17234W        W33418  17.851   9.161   3.730 -0.1414 -0.0337  0.0363
17235W        W33419  13.360  15.651   3.595  0.1553 -0.3062  0.0535
17236W        W33420   5.444   7.010   4.081  0.1112  0.1617  0.4197
17237W        W33421  17.059   0.279  10.764 -0.2389  0.1335  0.0965
17238W        W33422   7.222  14.551   4.114 -0.0394  0.3160  0.0651
17239W        W33423   2.365   3.658   1.573 -0.0590  0.0302 -0.1807
17240W        W33424   0.736   8.081  14.035 -0.1373 -0.0627 -0.1432
17241W        W33425  13.039   5.975  14.369  0.0578  0.1623 -0.0679
17242W        W33426   7.310   2.310  14.773 -0.0921  0.0974  0.3971
17243W        W33427  15.980  18.067  13.216  0.0721  0.0385 -0.3268
17244W        W33428  15.998  14.329  12.600  0.0595 -0.1040 -0.2263
17245W        W33429   8.995  10.063  11.562 -0.1917  0.0927 -0.0478
17246W        W33430   5.386  10.684   0.123  0.0762  0.2162  0.1834
17247W        W33431  17.495   6.841   0.823  0.4207  0.0092  0.1941
17248W        W33432  12.036  15.675   4.699 -0.1240 -0.3522  0.0841
17249W        W33433   9.159  13.746  12.524 -0.0590  0.0082 -0.2306
17250W        W33434  14.931   7.773   1.010  0.1198  0.0875 -0.3433
17251W        W33435   1.841  12.715   0.391 -0.1108  0.0454 -0.1461
17252W        W33436  10.563   0.358  11.367  0.0842  0.1125 -0.0831
17253W        W33437   0.267   5.023  11.056 -0.0237  0.2908 -0.1947
17254W        W33438  14.438  15.310  11.615 -0.1235 -0.0853  0.0367
17255W        W33439  18.107   8.323  13.169  0.2685  0.2241 -0.0162
17256W        W33440  18.434   8.569  10.953  0.1882 -0.2040  0.0282
17257W        W33441  12.468   4.910  14.512  0.0436 -0.1054  0.1499
17258W        W33442  10.367  16.695  12.221 -0.2236  0.0023 -0.0020
17259W        W33443  15.701  12.046   4.536 -0.0471 -0.0143 -0.1467
17260W        W33444   4.382  18.586  15.257  0.1395 -0.2281  0.1315
17261W        W33445  18.586   6.641   3.713  0.1653  0.1788 -0.1139
17262W        W33446  12.359   4.037   4.321 -0.1032 -0.4008  0.2553
17263W        W33447   0.587   7.291   3.157  0.4306  0.0832  0.3088
17264W        W33448  15.736  13.795   3.816 -0.1703  0.0010  0.0834
17265W        W33449  18.735   4.088  14.310  0.1192  0.0487  0.0203
17266W        W33450   5.182   0.179   4.539 -0.0142  0.1174  0.0564
17267W        W33451   8.829   9.565  14.095  0.0776 -0.0990  0.2117
17268W        W33452   5.497  14.530   9.464 -0.0353  0.0310  0.1521
17269W        W33453   2.109  10.555  13.566 -0.0938  0.2226  0.1694
17270W        W33454   4.850   7.346  10.704  0.3889 -0.0104  0.1968
17271W        W33455  11.174  13.588  13.040 -0.1410  0.0210 -0.1669
17272W        W33456   8.979   8.181   5.484 -0.0195 -0.3604  0.0561
17273W        W33457  14.913   4.930  13.370 -0.2354 -0.1742 -0.2943
17274W        W33458  13.814   5.466  12.132 -0.3469  0.0613 -0.1740
17275W        W33459  15.987  16.903   0.583  0.0683  0.3456  0.2194
17276W        W33460  11.625   0.765  11.309  0.1391 -0.0423 -0.2188
17277W        W33461  10.669  13.746   0.107  0.1564  0.1660 -0.1239
17278W        W33462   7.901   9.328   5.760 -0.2924 -0.1420  0.1325
17279W        W33463   7.963  14.702  11.360  0.1086  0.0006 -0.0837
17280W        W33464   4.947   7.610   3.545 -0.1182  0.0364  0.2309
17281W        W33465  16.643   6.872  14.868  0.0287 -0.1297 -0.0427
17282W        W33466   5.229  17.927   2.009 -0.4866  0.2871 -0.0644
17283W        W33467  17.112   8.522   3.870  0.2679  0.2019 -0.2788
17284W        W33468   5.890  19.000   1.352 -0.1099  0.2433  0.0538
17285W        W33469  10.726   8.328   1.724 -0.0438  0.1955  0.0203
17286W        W33470   8.300   8.570  12.826  0.2507  0.0305  0.2620
17287W        W33471  11.204   5.800   1.023 -0.0483  0.0841  0.2190
17288W        W33472   4.551  17.607  11.696  0.1259 -0.0199 -0.0976
17289W        W33473   4.727   4.084  11.831  0.2183  0.2694 -0.0970
17290W        W33474   4.881   2.236   0.770 -0.0291 -0.0698 -0.1598
17291W        W33475   1.180  17.745  12.831 -0.0249 -0.0665 -0.0840
17292W        W33476   8.017  12.862   2.928 -0.0041  0.1547 -0.1624
17293W        W33477   4.908   3.080   1.256  0.0936  0.1362  0.0812
17294W        W33478  12.753  12.789   0.029 -0.1210 -0.2660  0.3772
17295W        W33479   4.791  17.790   1.732  0.1035 -0.2765 -0.1754
17296W        W33480   0.591  11.660  11.453 -0.2120  0.1941 -0.1301
17297W        W33481   2.783   4.258  13.040  0.3075 -0.5033 -0.3146
17298W        W33482  11.315   9.373  11.373 -0.0822 -0.2066  0.0994
17299W        W33483  10.888   1.143  14.050  0.3551  0.1227  0.0272
17300W        W33484   0.018   9.298  11.863 -0.3023 -0.1252 -0.1076
17301W        W33485   5.305  11.807  14.685  0.0272 -0.1333 -0.1292
17302W        W33486   7.471   0.155   3.053 -0.0554  0.0697 -0.1749
17303W        W33487  18.037  11.671  11.317  0.5492 -0.3228  0.0464
17304W        W33488   6.620   9.949   3.768 -0.2469 -0.1643  0.0226
17305W        W33489  14.230   3.385   0.816 -0.0035 -0.1528  0.2679
17306W        W33490   1.021   0.955   0.501 -0.1477 -0.1736  0.0429
17307W        W33491   9.860  16.153   2.484 -0.1303  0.1730 -0.1127
17308W        W33492  18.706  13.003  14.262 -0.0773 -0.0962  0.0343
17309W        W33493   2.576   3.484  14.995 -0.0441 -0.1144  0.0699
17310W        W33494   3.046  17.088   1.774  0.1050 -0.1566  0.0521
17311W        W33495  16.769  10.664  13.724  0.3422 -0.1157 -0.2413
17312W        W33496  11.008  13.932   1.037 -0.1722  0.2350 -0.1394
17313W        W33497  13.939  12.450  12.131 -0.0031  0.2893 -0.1390
17314W        W33498  18.632  13.570   4.765 -0.2546 -0.0421 -0.0840
17315W        W33499   0.293  12.409  12.148  0.0670 -0.0623 -0.0001
17316W        W33500   5.490   0.079   2.769  0.1227  0.2585 -0.0996
17317W        W33501   8.900  12.877  10.886 -0.0866  0.1777 -0.0785
17318W        W33502  14.145   0.117   0.316 -0.1532 -0.0782 -0.2618
17319W        W33503   7.213   5.545  13.822 -0.1966 -0.1312  0.0900
17320W        W33504  18.502  18.177  12.859  0.2711  0.2814  0.0609
17321W        W33505   8.499  12.828  11.848 -0.1858 -0.0308  0.2703
17322W        W33506  12.270  16.021   3.143 -0.2107  0.1299  0.3782
17323W        W33507  16.000  16.051  13.061  0.1353 -0.0386 -0.0131
17324W        W33508   4.581   9.849   5.346 -0.1780 -0.0379  0.0281
17325W        W33509   5.194   5.644  12.333  0.1526 -0.1427 -0.1871
17326W        W33510   6.041   1.750  12.075  0.0897  0.5830  0.2530
17327W        W33511  16.480   3.617  10.844  0.2552  0.3845 -0.0733
17328W        W33512  12.986   5.854  10.744  0.0713  0.0820  0.0136
17329W        W33513   4.195  15.077   5.811  0.4013  0.3658  0.1009
17330W        W33514  12.521   7.196   2.225  0.1340  0.2753 -0.0385
17331W        W33515   3.832  11.069   4.960  0.2407 -0.2025  0.1388
17332W        W33516   5.388   6.054   2.278  0.1370  0.0340  0.0001
17333W        W33517  14.451  11.250  14.512 -0.2988  0.1979 -0.4885
17334W        W33518  18.132   7.817  11.342  0.1564  0.2015 -0.1455
17335W        W33519   5.541   5.403  14.273 -0.3167 -0.1133  0.1951
17336W        W33520   1.273  14.960   1.593  0.0483  0.1410  0.1261
17337W        W33521   4.626   6.727  14.368 -0.3442 -0.0515 -0.2080
17338W        W33522  18.414  17.351  11.696  0.2250  0.1332  0.4638
17339W        W33523   8.397   0.286   4.215  0.3151  0.2729 -0.0917
17340W        W33524  13.673  11.980  15.149 -0.1413  0.0928  0.2406
17341W        W33525  14.392   0.727   3.904 -0.0973  0.0756 -0.1623
17342W        W33526  18.923  11.368   4.709 -0.1834 -0.0659 -0.0849
17343W        W33527   4.826   9.906   5.831  0.3284  0.3267 -0.1020
17344W        W33528   3.532   5.814  10.431 -0.0596  0.0186  0.1693
17345W        W33529   2.953  16.490   0.110 -0.0577  0.1062 -0.0547
17346W        W33530   2.797   6.331   0.667  0.3181 -0.1935 -0.0327
17347W        W33531  18.267   1.511   3.238  0.1685 -0.0886 -0.2949
17348W        W33532   3.116   1.050  13.899  0.0062  0.0250 -0.0911
17349W        W33533   2.005   5.449   4.118 -0.0671  0.3523  0.2202
17350W        W33534   3.378   6.472  14.019  0.4724 -0.0791 -0.0995
17351W        W33535   7.330   7.767  12.761 -0.4250  0.0589 -0.1811
17352W        W33536  15.961   1.210   0.207 -0.1490  0.3831 -0.0538
17353W        W33537   7.066   8.924  13.394  0.2252  0.2380  0.3187
17354W        W33538  12.454   9.321   9.568  0.2768  0.4443  0.1394
17355W        W33539  14.101  16.803  10.724 -0.3330  0.3724 -0.1146
17356W        W33540  15.862   8.234  12.259 -0.1439 -0.2937 -0.2526
17357W        W33541   1.328  13.252   2.129 -0.2097 -0.0497 -0.0868
17358W        W33542   8.179   1.414  11.445 -0.0048  0.0017 -0.0676
17359W        W33543   2.474   6.342  10.952 -0.3493 -0.0319 -0.0029
17360W        W33544   3.814   8.956  14.131 -0.3205  0.0134  0.1076
17361W        W33545  14.303  18.823  14.249 -0.3870  0.0824 -0.2870
17362W        W33546   2.467  15.397  11.972 -0.1067 -0.0984 -0.0367
17363W        W33547   7.736  16.832  11.389 -0.0637 -0.1176  0.1099
17364W        W33548  13.760   9.182   0.433 -0.2565 -0.3102  0.1399
17365W        W33549   8.821  16.396  13.455 -0.0914 -0.1740  0.0394
17366W        W33550  10.062  16.278  11.643 -0.2348  0.3214  0.2536
17367W        W33551  18.656  11.970  12.473 -0.0775 -0.0047 -0.0790
17368W        W33552  14.777   8.164  14.642  0.1165 -0.0683 -0.0371
17369W        W33553  12.506  13.190  10.840  0.0908 -0.1434  0.0570
17370W        W33554   6.545  17.748   1.440  0.2899 -0.2198 -0.1257
17371W        W33555  13.930  13.630   1.112 -0.0778 -0.1924 -0.1047
17372W        W33556   6.074   3.277   0.063 -0.4435  0.0129  0.3780
17373W        W33557   4.107   8.284   4.883 -0.3275  0.0091 -0.1889
17374W        W33558  17.389   4.228  12.490 -0.2841 -0.0674  0.0558
17375W        W33559   0.127   1.171  12.761 -0.1069  0.0817  0.1438
17376W        W33560  16.535  16.643   0.501 -0.0040 -0.0175  0.6423
17377W        W33561   9.698  13.357   1.806  0.0053  0.0997  0.5266
17378W        W33562  12.114   3.121  12.347  0.2051 -0.1058  0.2768
17379W        W33563  13.981   6.647  11.810 -0.2109  0.0428 -0.0349
17380W        W33564   5.102   5.309  12.700  0.1522  0.2563 -0.0322
17381W        W33565   7.192  17.680  10.535  0.2600 -0.0695  0.2422
17382W        W33566  15.862   6.266  11.786 -0.1896 -0.1060 -0.2093
17383W        W33567  14.056  16.995   2.676 -0.1149 -0.1297  0.0548
17384W        W33568   0.758  14.390   3.150 -0.0517  0.1519 -0.6159
17385W        W33569   9.809  14.766  10.977 -0.0001  0.1140 -0.4126
17386W        W33570   3.054   0.744   1.079  0.2719 -0.0443  0.1342
17387W        W33571   3.965   1.780   3.048 -0.2039 -0.2005 -0.0686
17388W        W33572  11.588  18.115   3.049 -0.1270 -0.0116 -0.1616
17389W        W33573   8.298   3.793  15.301 -0.1949  0.1923 -0.1648
17390W        W33574   2.257  11.462  11.036  0.2024  0.0015  0.0545
17391W        W33575  12.183   7.545  14.003  0.2653 -0.2264 -0.1998
17392W        W33576   3.566  18.480   4.000  0.3258  0.1533 -0.1920
17393W        W33577   9.771   7.749   1.169  0.1657 -0.0340 -0.0115
17394W        W33578   0.519   3.732   2.658 -0.4126  0.0455  0.1854
17395W        W33579  11.787  16.120  15.314  0.0939 -0.0478  0.2733
17396W        W33580   5.586  16.478   4.740 -0.0481  0.0274  0.0620
17397W        W33581  17.055  13.721  14.967  0.0217  0.0174 -0.0982
17398W        W33582   7.502  15.903  12.784 -0.0782 -0.1816  0.1341
17399W        W33583   9.368   3.605   3.516 -0.0682  0.1714  0.0694
17400W        W33584   3.809  12.709   5.070 -0.1406 -0.1049  0.0183
17401W        W33585   3.503  17.465  12.832 -0.0110 -0.0052  0.0055
17402W        W33586  18.711   4.316   2.010 -0.2692  0.1245  0.1137
17403W        W33587  17.581  12.907   2.197  0.1519  0.0139  0.0204
17404W        W33588  12.995  14.799   4.127  0.0667  0.0572 -0.2779
17405W        W33589   1.547  14.807   3.424  0.0289  0.2429 -0.2382
17406W        W33590   0.314  14.357  14.539 -0.3202 -0.0209  0.1827
17407W        W33591   0.848   8.430   4.050  0.1602  0.0586 -0.0809
17408W        W33592   0.344  17.197   4.818 -0.1641 -0.0099 -0.0786
17409W        W33593  18.565   8.636  13.413 -0.1775  0.2896  0.3046
17410W        W33594  17.646   5.680  14.421 -0.0338 -0.0242  0.0456
17411W        W33595  11.119   5.271  13.147  0.1543  0.1490 -0.1713
17412W        W33596  10.033  16.133   4.983  0.0245 -0.0564  0.2113
17413W        W33597  13.474   0.506  12.115  0.0364  0.0131 -0.0069
17414W        W33598  11.113  14.096  14.994 -0.1202 -0.1145 -0.0300
17415W        W33599   2.113  11.256   4.220 -0.2637 -0.2950 -0.0167
17416W        W33600  11.867   6.561  14.447 -0.1820  0.4417 -0.1965
17417W        W33601  10.693   6.727   1.898  0.0434  0.1431 -0.2092
17418W        W33602   0.658  10.146  11.278 -0.0450 -0.1367 -0.1735
17419W        W33603  14.043  17.673  12.618  0.1754 -0.0361 -0.1106
17420W        W33604  14.813   0.211  11.921 -0.0409 -0.0900  0.0277
17421W        W33605  17.854  18.886   3.952 -0.1667  0.1068  0.0682
17422W        W33606  17.747  11.590  10.858 -0.0638  0.1625 -0.0150
17423W        W33607   2.795   7.556  15.361 -0.1769  0.2128  0.1330
17424W        W33608   1.954  16.591  12.015  0.1255  0.0982 -0.2375
17425W        W33609   7.232  16.832  12.605 -0.2368 -0.1018  0.0808
17426W        W33610   3.439   7.349   3.204 -0.1628  0.2883 -0.1480
17427W        W33611  10.472   6.095  12.052  0.0354  0.1022 -0.0538
17428W        W33612  15.308   9.932   2.903 -0.1951 -0.0357 -0.1303
17429W        W33613   5.622  17.193   1.793 -0.1031 -0.0774  0.0134
17430W        W33614   7.665   7.699   0.783  0.0482  0.2193 -0.1619
17431W        W33615  16.695   8.791   4.613  0.2153 -0.1180  0.0647
17432W        W33616   1.678   2.905   2.838  0.1297 -0.3271  0.1174
17433W        W33617  18.077  17.908  12.542  0.3125  0.0503  0.0777
17434W        W33618  17.056  16.916  11.181  0.1342  0.0939  0.3801
17435W        W33619  14.305   5.950   4.702  0.2924 -0.1868  0.0397
17436W        W33620  14.131   0.063   5.689  0.1168 -0.0974  0.1714
17437W        W33621   1.277  14.981   0.328 -0.0686 -0.2284  0.0771
17438W        W33622   0.123  16.179  10.776 -0.0430  0.2954 -0.1532
17439W        W33623  12.494  18.910  12.361 -0.3012 -0.4057 -0.2111
17440W        W33624  17.167   3.557   5.051  0.5902 -0.1128  0.0201
17441W        W33625  16.508  17.360   1.000  0.2601  0.1014  0.2034
17442W        W33626   0.511   9.075   0.431  0.1118 -0.0657 -0.0064
17443W        W33627  17.711   1.269   9.715 -0.0430  0.2183  0.1079
17444W        W33628   3.734   1.503  11.895 -0.0684 -0.4016  0.1299
17445W        W33629   2.696   3.271  13.266  0.0638  0.0458 -0.1135
17446W        W33630  14.370  13.061   4.692  0.2847  0.1486 -0.1590
17447W        W33631   9.160   0.585   0.984  0.0450  0.0631 -0.2527
17448W        W33632  16.244  18.412  13.601  0.0725  0.3632  0.1601
17449W        W33633   0.438  10.108  10.818  0.2312 -0.2668 -0.2927
17450W        W33634  11.277   9.810  10.794  0.1109 -0.1219 -0.1821
17451W        W33635  10.428  12.285  13.671  0.0035 -0.0347  0.1540
17452W        W33636  13.295   7.633  13.659  0.1854 -0.0857 -0.2017
17453W        W33637  17.941   9.473   2.972  0.0381  0.2430 -0.0646
17454W        W33638   4.880  15.366  12.232 -0.0383 -0.3147 -0.1466
17455W        W33639  14.743  12.402   2.302 -0.0851 -0.1971 -0.0768
17456W        W33640   7.019  13.513  12.904 -0.0853 -0.2331  0.1187
17457W        W33641   1.962  14.813  12.748  0.1250  0.1410 -0.0363
17458W        W33642   8.761   2.963   3.042 -0.0953 -0.4162  0.0202
17459W        W33643   7.855   0.962   5.515  0.0865 -0.2281  0.1925
17460W        W33644   4.745   5.807   0.219  0.0467 -0.3826  0.2341
17461W        W33645   2.330   9.467  15.198 -0.0030  0.2615  0.0694
17462W        W33646   8.837   9.691   0.091  0.2412  0.3276  0.0556
17463W        W33647   9.161   6.839   0.827 -0.4331  0.0699 -0.3792
17464W        W33648  14.517   9.015   1.758 -0.0422 -0.0547 -0.0428
17465W        W33649   8.914   9.305   4.914  0.1201 -0.0990  0.0835
17466W        W33650  14.590  16.329  11.267  0.2528 -0.1545 -0.1575
17467W        W33651   0.041  15.218  13.460  0.1913 -0.1766  0.0180
17468W        W33652   2.249  15.112  12.417  0.1592  0.2346  0.1990
17469W        W33653   1.051  12.998  11.369 -0.0903 -0.0731  0.3317
17470W        W33654  12.188   6.538  13.010 -0.1351  0.0049  0.3634
17471W        W33655  16.564   2.746   4.065  0.1877 -0.1394  0.1372
17472W        W33656  15.444   7.647  11.647  0.0550 -0.1164  0.1593
17473W        W33657  16.735   9.590  14.239 -0.3773 -0.0506 -0.2393
17474W        W33658  13.377  15.364  12.122  0.0151 -0.3409 -0.0050
17475W        W33659   1.135   9.417  11.840  0.1687 -0.0222  0.0380
17476W        W33660  12.303  17.022   4.961 -0.1970  0.1384  0.2052
17477W        W33661  16.504   0.203  11.080  0.2179  0.1954 -0.2463
17478W        W33662   2.332  15.107   5.252 -0.0374  0.1011 -0.2144
17479W        W33663  16.271  16.280  11.697 -0.0540 -0.1971 -0.2853
17480W        W33664  15.808   5.390   3.415 -0.0490 -0.2012  0.0155
17481W        W33665   1.900   2.402   0.933 -0.3077  0.1124 -0.0808
17482W        W33666  13.589   7.369  14.903  0.1211  0.2679  0.0514
17483W        W33667   2.005  15.011  13.701 -0.1837 -0.0063 -0.0865
17484W        W33668  17.221  17.834   3.257  0.0868  0.0853  0.1786
17485W        W33669   8.677   5.559   1.189  0.0629  0.2957  0.1371
17486W        W33670  14.648  15.066   5.140 -0.0404  0.0615  0.3993
17487W        W33671  13.871  18.769  13.094  0.0282 -0.3371 -0.1698
17488W        W33672  15.068  12.875  13.259  0.1283 -0.2170  0.1145
17489W        W33673   0.552   9.906   3.779  0.0257 -0.0685  0.0534
17490W        W33674  15.305  11.718  14.309  0.0679  0.2050  0.1385
17491W        W33675   1.829  14.412   0.659  0.1478 -0.3677 -0.1003
17492W        W33676   8.941   3.841   3.699  0.1148  0.1137 -0.3115
17493W        W33677  16.439  10.755   3.036 -0.1094 -0.0515 -0.1115
17494W        W33678  11.417   7.777   3.818 -0.2835 -0.0011 -0.2132
17495W        W33679  13.750  10.367   5.694 -0.4451 -0.1055 -0.1493
17496W        W33680  12.276   1.841   1.866 -0.1813  0.1341  0.1704
17497W        W33681  15.818  14.952   3.736 -0.0612  0.0259  0.6033
17498W        W33682   1.375   1.373   5.709 -0.2064  0.4490  0.0010
17499W        W33683   4.488   9.887   3.494 -0.1494  0.1634 -0.1726
17500W        W33684  11.394   5.268  12.703  0.2205  0.0211  0.2820
17501W        W33685   0.807   9.862  13.286  0.0821 -0.0943  0.1818
17502W        W33686  18.505   2.545   2.586 -0.0263 -0.0626  0.1699
17503W        W33687   1.205  17.031   1.491 -0.3911 -0.0497 -0.3705
17504W        W33688   7.239  10.727   3.539  0.3249  0.2983  0.2517
17505W        W33689   9.354  15.955   3.940 -0.3016  0.1621  0.0946
17506W        W33690   1.641   3.804  13.889  0.0779 -0.1380 -0.0038
17507W        W33691   8.337  10.461   4.309 -0.2616  0.0453  0.0220
17508W        W33692   3.497   2.861   3.839  0.3128  0.2106 -0.0863
17509W        W33693  17.455   9.223  12.221 -0.1091  0.1651 -0.1962
17510W        W33694   8.488  18.121  10.542  0.2283  0.2518  0.1408
17511W        W33695   6.809  10.795   3.712  0.1062 -0.3392  0.2951
17512W        W33696   7.579  12.580   4.150  0.0376 -0.2028  0.1722
17513W        W33697   1.628   6.617  12.627 -0.0964 -0.2410 -0.1428
17514W        W33698   9.248   9.511  12.174 -0.1896 -0.0422  0.2157
17515W        W33699  10.602  16.063   3.838 -0.0026 -0.2150  0.2496
17516W        W33700   3.566   5.515  12.646  0.0568 -0.2526 -0.1118
17517W        W33701   9.226   9.683   2.694 -0.0651 -0.1318 -0.0101
17518W        W33702   7.633   3.578   1.633  0.3590 -0.1023  0.0159
17519W        W33703  10.471   2.685   0.102  0.0097  0.0881  0.1841
17520W        W33704  16.541   2.598  15.325 -0.1616  0.0414  0.0486
17521W        W33705   5.163   8.123  12.150 -0.1885  0.1090  0.2464
17522W        W33706   6.285   8.042   2.549 -0.1501 -0.2292 -0.1807
17523W        W33707  16.896   4.470   0.791 -0.3394  0.1685 -0.0837
17524W        W33708   9.963   6.984   3.823 -0.0017  0.4537  0.1724
17525W        W33709   1.683  18.801  11.775  0.3196 -0.1508 -0.0906
17526W        W33710   2.328   8.990   4.528  0.4301  0.0450  0.0967
17527W        W33711   0.588   8.223   0.037  0.1448 -0.4652  0.3339
17528W        W33712  11.804  17.373  13.936  0.2777 -0.0109 -0.0039
17529W        W33713   8.920  18.622  12.690  0.2280 -0.2172 -0.0161
17530W        W33714  13.724   3.889  13.347  0.0631  0.0173  0.1718
17531W        W33715  14.800  15.375   3.952  0.1460  0.3031 -0.1065
17532W        W33716   1.656  13.633  15.367  0.1069 -0.0382  0.0849
17533W        W33717   4.286   6.397  12.512  0.3953  0.1450 -0.0913
17534W        W33718  14.383   6.517  15.124 -0.4532 -0.4554 -0.1989
17535W        W33719  17.666   9.467   5.306 -0.0725  0.1320 -0.1502
17536W        W33720   6.559  10.590   0.866  0.2922 -0.1597  0.0164
17537W        W33721   5.827  15.985   5.079  0.0262 -0.0072 -0.2284
17538W        W33722  17.518  16.727  13.360 -0.0574 -0.1195  0.4020
17539W        W33723  10.643  11.419  11.042  0.1455 -0.0601 -0.1110
17540W        W33724  10.575   2.136   4.565 -0.0994  0.1590 -0.0023
17541W        W33725  17.147  12.175  14.444  0.3545  0.2491 -0.0128
17542W        W33726   8.439   5.089   4.896  0.0757 -0.0788  0.0672
17543W        W33727  13.864  13.955  10.618 -0.0530 -0.1804 -0.2642
17544W        W33728  14.120  14.979  14.654 -0.2588 -0.2398  0.0109
17545W        W33729  15.209  16.981  12.164 -0.1992 -0.1770  0.1383
17546W        W33730  17.141   4.999   2.002 -0.0848  0.0557 -0.1140
17547W        W33731   0.287  16.043  13.924  0.0624  0.1924  0.1332
17548W        W33732   4.329   2.948  12.296  0.1747  0.0182  0.0153
17549W        W33733  14.125   7.758   3.133 -0.0475 -0.2095  0.1757
17550W        W33734  16.863   3.319  12.844  0.2601  0.0275  0.1855
17551W        W33735  11.051  10.236   0.427  0.2234  0.0575 -0.0994
17552W        W33736   0.929   8.944  11.803 -0.0361 -0.3290  0.2126
17553W        W33737  12.947   5.823   1.278  0.0236  0.0069 -0.1035
17554W        W33738   7.030   4.910  12.137 -0.0821 -0.0772  0.0141
17555W        W33739   9.830   5.001  10.735 -0.1184 -0.0623  0.0735
17556W        W33740  13.390   3.228  11.780 -0.0978 -0.1849  0.0381
17557W        W33741   1.809   6.305   0.304 -0.0034  0.1553  0.0980
17558W        W33742  17.281   8.147  14.801  0.0176  0.0889 -0.0876
17559W        W33743  14.718  16.839   0.322  0.0942  0.1546 -0.0710
17560W        W33744   8.972   2.169  12.306  0.3793  0.2115  0.0691
17561W        W33745  17.753   3.598   1.920 -0.0419  0.0713 -0.0343
17562W        W33746  15.750  17.529   2.471 -0.1547 -0.1707 -0.1127
17563W        W33747   8.689   6.272   0.467 -0.0609 -0.0667 -0.0548
17564W        W33748   1.657  13.332  12.843 -0.0503  0.0056  0.1203
17565W        W33749   2.224  13.522  12.478  0.1786  0.1306  0.0316
17566W        W33750   6.494  12.850  10.942  0.2894  0.2273 -0.0585
17567W        W33751   8.623   3.964  11.437 -0.0246  0.2384 -0.1703
17568W        W33752  16.165   2.593   3.784 -0.0653 -0.3678  0.0482
17569W        W33753   1.536  18.629   4.880 -0.2057 -0.1581  0.4240
17570W        W33754  16.207   9.685   2.195 -0.0783 -0.1944 -0.1275
17571W        W33755  15.319  18.677   3.578  0.2375 -0.2082  0.0782
17572W        W33756   9.465   4.627  10.810  0.2779 -0.3503 -0.2899
17573W        W33757   6.321   2.252  15.153  0.0086  0.1162 -0.0490
17574W        W33758  13.028  17.175   3.180  0.3004  0.0630 -0.0820
17575W        W33759   3.074   4.156   2.948  0.1626  0.5116  0.2607
17576W        W33760  18.118   9.848  13.981  0.1784 -0.2503 -0.0481
17577W        W33761  14.612  15.920   6.269 -0.1176 -0.0297  0.1983
17578W        W33762   9.999   2.155   1.739 -0.2095 -0.2447  0.1228
17579W        W33763   8.734   2.684   3.636  0.1173 -0.0805  0.1555
17580W        W33764  10.467   5.991  13.334 -0.1613  0.1638 -0.2096
17581W        W33765   1.840   7.941  11.922 -0.0176  0.0611 -0.0963
17582W        W33766  16.330   4.809   2.281 -0.1880 -0.4862 -0.1652
17583W        W33767   3.496   9.098   3.120 -0.1896  0.0736  0.2282
17584W        W33768   9.698   7.557  14.635 -0.0597  0.0443  0.0965
17585W        W33769  10.997  15.694  11.259 -0.3087 -0.0145  0.0967
17586W        W33770  10.578  11.775   3.673 -0.1466 -0.2889  0.0353
17587W        W33771   1.391  18.627  14.040 -0.3560 -0.1397  0.0591
17588W        W33772   6.556  13.463   1.898  0.0408  0.0055  0.0093
17589W        W33773  17.108   0.800  13.574 -0.1797  0.0565 -0.3263
17590W        W33774  18.557   6.865  14.557 -0.1651  0.1647  0.0665
17591W        W33775   2.251   0.416   4.181 -0.0556 -0.2600  0.3460
17592W        W33776  11.963   5.390  13.671 -0.0298  0.0111  0.1998
17593W        W33777   5.146  14.968  10.714 -0.1681 -0.0786  0.2181
17594W        W33778  11.832   9.114  13.838 -0.2205  0.0370  0.0452
17595W        W33779  13.219   9.309  11.009  0.0668  0.2819  0.1812
17596W        W33780   7.727   6.800  13.555  0.1978 -0.0689 -0.0150
17597W        W33781  14.702   5.003  12.072 -0.2154  0.1709  0.0456
17598W        W33782   3.229   0.766  12.299  0.0840  0.1904  0.1077
17599W        W33783   9.514  14.648  10.540 -0.1791  0.4021 -0.3127
17600W        W33784  16.074  16.763  11.750  0.1744  0.0570 -0.0416
17601W        W33785   3.500   1.423  15.134 -0.4265  0.1061  0.2516
17602W        W33786  10.103   2.294   4.457  0.2496  0.0516 -0.1442
17603W        W33787   3.469  15.858  12.872  0.4007 -0.0038  0.1319
17604W        W33788   4.949   3.627   2.475 -0.1387 -0.2893  0.3943
17605W        W33789  11.433   8.993   5.158  0.5765  0.3116 -0.1204
17606W        W33790  11.144  16.883  10.751 -0.3296 -0.1999  0.1461
17607W        W33791   0.649   3.136   3.703 -0.1597 -0.0114  0.3363
17608W        W33792   5.451   2.002  14.010 -0.1670  0.1215  0.1071
17609W        W33793   5.362  18.189   4.330 -0.2568  0.0019 -0.0454
17610W        W33794  16.073  15.671   3.681 -0.5021 -0.1531  0.1110
17611W        W33795   4.278  14.184   3.506 -0.0856  0.0869  0.1457
17612W        W33796   0.500  15.882  12.091  0.1983  0.0987 -0.2124
17613W        W33797  17.996   2.631  15.202 -0.3692  0.0099 -0.1525
17614W        W33798   3.221   7.552  13.231 -0.0087 -0.0463 -0.0240
17615W        W33799   1.583  14.669   4.666 -0.1355 -0.0314  0.3810
17616W        W33800  16.745  15.162   3.321 -0.0410 -0.0677  0.1913
17617W        W33801  11.928  17.799   1.470  0.1106 -0.1769 -0.2318
17618W        W33802  12.953   6.512  11.933 -0.0424  0.0378 -0.0120
17619W        W33803  10.010   0.918  13.678 -0.5144 -0.1701  0.0248
17620W        W33804  11.202  13.002  13.255  0.0003 -0.1827 -0.1701
17621W        W33805   2.005  16.117  11.993 -0.0498 -0.3022  0.0376
17622W        W33806  15.856  13.873  12.797  0.0501  0.2617 -0.0057
17623W        W33807  18.398  10.748  14.885  0.3985  0.0119 -0.0223
17624W        W33808   9.132   8.703   2.109 -0.0740  0.3320 -0.0035
17625W        W33809  10.803   3.769   0.793 -0.1758  0.3727  0.1527
17626W        W33810  11.526  17.858   3.522 -0.2647 -0.0986  0.2253
17627W        W33811  11.267  12.057   5.745  0.0829 -0.3432  0.1812
17628W        W33812  18.430  10.738  14.300 -0.2570 -0.2078 -0.0344
17629W        W33813  16.893   1.520  11.525  0.0739  0.2184 -0.1441
17630W        W33814   3.359  15.326  11.661 -0.3382 -0.1818  0.2564
17631W        W33815   5.302   8.822  11.392  0.0828 -0.3796 -0.0844
17632W        W33816   0.267  13.603  13.954 -0.3800  0.1608  0.0828
17633W        W33817   3.131   1.419  12.986  0.0541 -0.0960  0.0625
17634W        W33818  15.865  14.629   1.594  0.0040 -0.0310 -0.0263
17635W        W33819  11.810  15.211  15.315 -0.0692  0.0904 -0.1222
17636W        W33820  18.959   3.505   3.670 -0.1077 -0.1309 -0.1743
17637W        W33821   6.834   6.074   5.093  0.2074  0.2444 -0.1230
17638W        W33822  12.115  11.735   2.431 -0.2134  0.0465  0.1235
17639W        W33823  14.858  15.796   0.691  0.3044 -0.0768 -0.1932
17640W        W33824  15.847   0.114   4.755  0.2016  0.0339 -0.0935
17641W        W33825   6.570   1.809   3.927  0.0386  0.0676  0.1211
17642W        W33826  16.227   1.279   5.180  0.0147 -0.1826  0.2497
17643W        W33827   5.990   0.515   9.663 -0.1903 -0.0282  0.2643
17644W        W33828  17.009  12.881  14.890  0.1243 -0.0065  0.0055
17645W        W33829  18.287  15.067  13.043  0.1266  0.0295 -0.0072
17646W        W33830   7.941  15.372  14.021 -0.5154 -0.1008 -0.2155
17647W        W33831   0.641  18.154   0.286  0.0515 -0.1318 -0.0820
17648W        W33832   7.859   3.310   2.456  0.0124  0.1722 -0.0947
17649W        W33833   3.131  15.689  13.196 -0.0818  0.0726 -0.2702
17650W        W33834  11.524  16.928  12.524 -0.4470  0.1208 -0.1194
17651W        W33835  10.215   4.403   2.289  0.1412  0.1026 -0.2610
17652W        W33836   1.574   0.631  15.245 -0.0906 -0.0302 -0.2486
17653W        W33837   2.300  18.467  14.242 -0.1571 -0.0041  0.2012
17654W        W33838   1.015  16.077   0.342 -0.0634 -0.2572  0.0864
17655W        W33839  16.258   4.861   0.215 -0.0807  0.2904 -0.1061
17656W        W33840  16.269   0.462   0.755 -0.3003  0.1534  0.0067
17657W        W33841   9.288   7.200  14.232  0.1805 -0.3147  0.0810
17658W        W33842  18.992   5.145   2.379 -0.1158  0.2807  0.0583
17659W        W33843   8.830  13.084  11.344 -0.5047  0.0283 -0.0970
17660W        W33844  16.838   4.604   1.714  0.1784 -0.1633  0.1657
17661W        W33845  13.411  15.805   4.133 -0.3026 -0.0621 -0.0132
17662W        W33846   3.708   7.304   0.844  0.1017  0.2536 -0.1786
17663W        W33847  10.908   6.953  14.211  0.1512 -0.2776 -0.1128
17664W        W33848   9.644   9.206  12.146 -0.0871  0.1996  0.2753
17665W        W33849  13.079   7.336   2.182  0.2639  0.2142 -0.0337
17666W        W33850   0.756  18.516   2.041  0.3664  0.1324 -0.0300
17667W        W33851  10.240   4.228  11.763  0.0073 -0.1047  0.1441
17668W        W33852  14.514  17.098   5.644  0.2882 -0.0507 -0.2453
17669W        W33853   8.023   4.855  13.460  0.0203 -0.0493  0.1396
17670W        W33854  15.197   8.195   4.219  0.0982  0.1950 -0.0476
17671W        W33855   8.834  14.122  11.708  0.3216  0.4069 -0.1565
17672W        W33856   6.736   7.974   2.747 -0.3597  0.1243 -0.4555
17673W        W33857   4.422  10.274   3.938  0.1449  0.1766 -0.1027
17674W        W33858  13.059  11.833   1.272  0.0310  0.1295  0.2214
17675W        W33859  15.456  12.136  13.177 -0.2226  0.4503  0.1712
17676W        W33860  10.166  10.189  12.838 -0.0681 -0.1694  0.0211
17677W        W33861   5.004   4.853   0.993  0.2643  0.2850 -0.0136
17678W        W33862  14.289   7.060   1.043 -0.1439  0.0085 -0.1547
17679W        W33863  13.102   0.677   3.924  0.0086  0.0722  0.1031
17680W        W33864  14.299   8.914  13.515  0.2512  0.0574  0.1135
17681W        W33865  14.397   8.063  11.503 -0.1431  0.1152  0.1715
17682W        W33866   1.368   9.952  12.369 -0.2128  0.0235  0.1189
17683W        W33867   5.070  18.910   4.901  0.1275 -0.3351 -0.0008
17684W        W33868  13.183   9.701   1.164  0.1524 -0.3245  0.0176
17685W        W33869  15.169   9.213   4.626 -0.0508  0.0379  0.1535
17686W        W33870   0.573  17.458   4.386 -0.0262  0.2268 -0.1641
17687W        W33871   5.401   4.572  12.163  0.0762  0.2892  0.1893
17688W        W33872  13.351  15.788  10.766 -0.1881 -0.2405  0.3100
17689W        W33873   4.579   4.936   5.255 -0.0553 -0.3318  0.1406
17690W        W33874   0.815  18.374  13.329  0.0558  0.2521  0.2181
17691W        W33875   3.328   0.711   3.596  0.4937  0.1660  0.1304
17692W        W33876  18.817  16.023   1.843  0.0229  0.1441  0.0153
17693W        W33877   2.437   2.451  14.867 -0.1944  0.1116 -0.1148
17694W        W33878   6.388   1.083   0.709  0.1568 -0.2687 -0.1523
17695W        W33879  16.968   0.992   2.547 -0.3749  0.2454  0.0530
17696W        W33880   2.677  10.142  12.162  0.2544 -0.2383  0.0803
17697W        W33881  13.240  11.573   0.817  0.1253 -0.2131  0.2737
17698W        W33882  10.255  16.176  10.520 -0.0165 -0.1250  0.0842
17699W        W33883   5.437   3.827  14.305  0.1240 -0.0602 -0.2592
17700W        W33884  14.463  14.909  13.335  0.2845 -0.4902 -0.0534
17701W        W33885   2.815  17.091  14.645 -0.0809  0.0353  0.1418
17702W        W33886  10.529   0.242  14.276  0.2088  0.0269  0.0326
17703W        W33887  18.828   1.869  12.751  0.2253  0.1486 -0.1212
17704W        W33888  18.997  16.618  12.679 -0.0590 -0.0048  0.0078
17705W        W33889   3.540   9.684   3.438 -0.3444 -0.1460  0.1350
17706W        W33890  17.596   8.203  11.315 -0.2195 -0.0594 -0.0582
17707W        W33891   1.683   0.593   1.173  0.0239 -0.1709  0.2500
17708W        W33892   1.316  14.425   3.853 -0.2277  0.1861 -0.1550
17709W        W33893   9.831  12.355   2.919  0.0315 -0.0342 -0.0615
17710W        W33894  14.245   8.846   1.364  0.1025 -0.2357 -0.0172
17711W        W33895  13.508   9.551  10.553 -0.1279  0.0930  0.1080
17712W        W33896   6.480  12.998  11.470  0.3469  0.0991  0.0493
17713W        W33897   5.029   6.075   4.527 -0.2237  0.0615 -0.1651
17714W        W33898  17.223  17.606   0.637  0.4176  0.1751 -0.1405
17715W        W33899   2.385   9.856  10.869 -0.1171 -0.1182  0.0974
17716W        W33900   8.260  17.731  12.268  0.1180 -0.0256  0.1520
17717W        W33901   0.756   2.807  10.428  0.0337  0.2204  0.0813
17718W        W33902   3.785   8.205  11.061 -0.2445  0.0048 -0.1765
17719W        W33903   8.135  14.493  10.910  0.0548  0.3333  0.0683
17720W        W33904   4.879  18.418   0.643 -0.1705  0.1110  0.2166
17721W        W33905  11.281   0.673  13.353 -0.1531  0.0930 -0.1961
17722W        W33906   5.300   6.559  12.046 -0.1166  0.1843  0.0327
17723W        W33907   6.821  10.177   1.121 -0.1447  0.0968 -0.4233
17724W        W33908  18.140  15.724  10.940 -0.1148 -0.0839  0.1231
17725W        W33909  12.905   8.773  15.247  0.1347 -0.0588  0.2577
17726W        W33910  17.039   3.677   1.685  0.2204  0.1919  0.1803
17727W        W33911   5.231  15.474  10.881 -0.4544 -0.1205 -0.2126
17728W        W33912  12.238   2.698  14.935  0.2968 -0.2513  0.2650
17729W        W33913   8.693   5.125   4.163  0.2631 -0.4826  0.2887
17730W        W33914  10.507   3.314   3.837  0.2285 -0.3625  0.0302
17731W        W33915   3.127  11.731   2.179 -0.0191  0.3833  0.1241
17732W        W33916  11.373   8.269   0.539 -0.0177 -0.0562 -0.1218
17733W        W33917   9.362   5.929   4.566  0.0068  0.2972  0.1162
17734W        W33918   4.218  14.581   2.828  0.0911 -0.0861  0.1187
17735W        W33919  10.316   9.131  14.136 -0.1261 -0.1610 -0.0340
17736W        W33920   9.915   7.627  12.028  0.2138  0.1559 -0.0175
17737W        W33921   4.680   0.234   0.342 -0.3748  0.0472  0.0043
17738W        W33922   3.668  13.796   2.379 -0.0466  0.2921 -0.0080
17739W        W33923   5.390   5.405   3.985 -0.0916 -0.1249  0.4703
17740W        W33924   5.707   1.907  10.740  0.2711 -0.1562  0.0227
17741W        W33925   3.759  10.546   3.011 -0.3068 -0.0363 -0.2273
17742W        W33926   8.936  10.205  14.630 -0.1987  0.1154  0.1757
17743W        W33927   1.497   0.294   2.128  0.3093 -0.2105 -0.1893
17744W        W33928   9.912   4.403  13.455  0.1456  0.2477 -0.1622
17745W        W33929   7.229  13.414   5.056  0.0132  0.1282  0.2636
17746W        W33930  16.922  12.649  14.297 -0.4095 -0.0062 -0.2468
17747W        W33931   2.532  18.661  13.329 -0.0359  0.2596 -0.1816
17748W        W33932   5.146   2.220   1.908  0.0997  0.2281 -0.1004
17749W        W33933  10.048  13.177   4.533  0.1121 -0.3494  0.1549
17750W        W33934   1.151  12.874   5.445 -0.1010 -0.1244  0.0410
17751W        W33935  16.269  10.255   5.189  0.0740 -0.2783  0.1532
17752W        W33936   5.136  18.782  14.091  0.1734 -0.0135  0.0844
17753W        W33937   1.840  17.923   0.266  0.1268  0.1156 -0.3269
17754W        W33938   8.294  10.890  10.965 -0.0686  0.2332  0.2562
17755W        W33939   0.527   3.774  13.855 -0.0218 -0.1688  0.1125
17756W        W33940   7.981  13.486   2.108  0.1972 -0.2316  0.2779
17757W        W33941   6.358  14.944  11.369  0.0497 -0.3247 -0.0184
17758W        W33942  13.461   3.384  15.045 -0.0080  0.1435 -0.1824
17759W        W33943  10.775  14.531  15.061  0.1074  0.0686  0.0113
17760W        W33944  16.593  17.353   2.904 -0.1217  0.2029  0.1856
17761W        W33945   2.398   8.729  11.920  0.1407 -0.3179 -0.0455
17762W        W33946   3.140  18.097   5.437 -0.1331  0.0802 -0.0325
17763W        W33947   0.250   7.597   4.593 -0.0307  0.1043 -0.2614
17764W        W33948   9.164  18.453   3.507 -0.0213  0.0441 -0.0177
17765W        W33949   0.821  15.593  11.456  0.3477 -0.0586  0.0487
17766W        W33950  17.402   7.795  10.489 -0.1869  0.3076 -0.2380
17767W        W33951  14.586  10.739  12.716 -0.1815  0.1334  0.0994
17768W        W33952  12.800  14.392   0.725 -0.1501  0.1260  0.3964
17769W        W33953  11.148   8.596  11.440  0.2649 -0.1249  0.0718
17770W        W33954   0.436  11.937   1.221 -0.1467  0.0514  0.2692
17771W        W33955  15.463   7.284   0.647 -0.2082  0.3186  0.0019
17772W        W33956   7.579   4.783   5.157  0.0227 -0.2639  0.1528
17773W        W33957   7.434  11.606  12.692 -0.0119  0.2922 -0.1727
17774W        W33958  10.834   9.398  11.774 -0.3935 -0.0302 -0.1157
17775W        W33959  12.238  10.871   2.234 -0.0990 -0.2553 -0.0079
17776W        W33960  16.571   1.798   3.296  0.1971  0.1212 -0.0941
17777W        W33961   1.883   6.101  14.358 -0.3672 -0.1715  0.3762
17778W        W33962  15.877   4.488   3.241  0.1115  0.0274 -0.1590
17779W        W33963  10.980   4.494  12.615 -0.2085 -0.0548  0.1239
17780W        W33964  10.793  10.918   1.697  0.1587  0.0221 -0.0342
17781W        W33965  10.006  16.615   4.423  0.0623 -0.1950 -0.0488
17782W        W33966  13.472  15.556  13.763 -0.2388  0.2595 -0.3889
17783W        W33967   5.525  13.853  11.442  0.0510 -0.1269 -0.1923
17784W        W33968   1.124  11.682   5.688  0.0709  0.3031 -0.0674
17785W        W33969  11.683  15.217  12.526  0.0421 -0.1324 -0.1763
17786W        W33970  14.891   2.313   0.153  0.0459 -0.0454  0.0138
17787W        W33971  17.261  13.661  13.632 -0.0662 -0.2176  0.0850
17788W        W33972   7.971   9.264  13.906 -0.1314  0.1320 -0.2196
17789W        W33973   3.412  15.684   0.860  0.0560  0.1132 -0.2294
17790W        W33974   3.372   0.088   2.459 -0.0965 -0.1299 -0.0624
17791W        W33975   9.924   3.916   1.339  0.2565 -0.1264 -0.2496
17792W        W33976  16.082  11.787   4.334 -0.1703 -0.3612  0.3292
17793W        W33977  10.363  11.888   0.925  0.2254 -0.1830  0.0311
17794W        W33978  14.082  13.191   4.127 -0.4283  0.1152 -0.2698
17795W        W33979   3.519   4.327  15.030  0.0096  0.0430  0.0169
17796W        W33980  10.544   7.167   0.155 -0.3351  0.2737 -0.3782
17797W        W33981   1.891  13.984   0.887 -0.0259 -0.0515  0.0148
17798W        W33982  12.692  12.310   2.017  0.0833  0.0554 -0.1008
17799W        W33983  18.831   6.540  12.061 -0.0152 -0.0203  0.0675
17800W        W33984   6.449  13.371   1.074  0.1103 -0.3644 -0.1693
17801W        W33985  11.614  17.503   1.228  0.0894  0.0946  0.0312
17802W        W33986  14.998  12.831   3.000  0.0709  0.3326 -0.1234
17803W        W33987   0.832  14.029   5.000 -0.0677 -0.0251 -0.2697
17804W        W33988  12.555  16.651   4.735  0.0565 -0.0436  0.1316
17805W        W33989   8.857  15.380   0.262  0.0787 -0.1223 -0.0204
17806W        W33990   0.634   2.504  12.718  0.0950  0.0144 -0.1231
17807W        W33991  16.873   2.205   3.105  0.1588  0.0419 -0.0903
17808W        W33992   7.274  11.240   0.320  0.5485  0.0831 -0.0808
17809W        W33993   0.953  14.226   0.478  0.0452  0.2845  0.0304
17810W        W33994  15.897   0.354   1.262  0.0518 -0.0227  0.2213
17811W        W33995   0.123  13.096  14.010 -0.0557  0.0160 -0.0907
17812W        W33996   0.361  14.614  14.931  0.0741  0.0608  0.3836
17813W        W33997   8.999   3.802   1.532  0.1246  0.0853  0.3799
17814W        W33998   2.755   1.709  12.725 -0.1501 -0.1965  0.0040
17815W        W33999  16.944  14.723   5.036 -0.4086 -0.1388 -0.0137
17816W        W34000  12.543   9.734  13.937 -0.0486  0.2656 -0.2960
17817W        W34001  12.312   5.850   0.761  0.1995 -0.1676  0.3027
17818W        W34002   6.837   3.465  13.190 -0.3040 -0.4063  0.2895
17819W        W34003   5.836  12.736   1.979 -0.0033  0.2206  0.2344
17820W        W34004  16.949   2.707   3.699  0.1940 -0.0463 -0.0798
17821W        W34005  15.066   4.520   1.348 -0.0583 -0.0718  0.1068
17822W        W34006   1.307  18.280  13.017  0.1277  0.1758 -0.0548
17823W        W34007  10.545   3.224   1.379 -0.0632 -0.3010  0.0379
17824W        W34008  16.267   9.256  10.323 -0.2172  0.0504  0.0036
17825W        W34009   2.769   8.492   2.827 -0.1581  0.1339 -0.1354
17826W        W34010  13.152   0.063   2.659 -0.2292 -0.3435 -0.0920
17827W        W34011   2.942  11.629  11.979  0.0322  0.0721 -0.0583
17828W        W34012  10.571   0.856  11.104 -0.1753 -0.2149 -0.1105
17829W        W34013  13.013  18.111  12.876 -0.1436  0.0982 -0.0530
17830W        W34014  18.055   4.158  12.538  0.1746  0.0300  0.4992
17831W        W34015   2.948   5.137   1.472 -0.3657  0.0933  0.0373
17832W        W34016  14.294  13.866  14.246  0.2023  0.0368  0.2505
17833W        W34017   6.399   6.648   0.420  0.2257 -0.0409  0.0700
17834W        W34018   3.460   9.793  10.861  0.1845 -0.1010  0.0639
17835W        W34019  18.252   3.470  13.452  0.1796  0.1192 -0.1512
17836W        W34020  14.531  16.811  10.999 -0.0733  0.1240 -0.3170
17837W        W34021   5.210   9.292   3.741  0.1156  0.2995  0.1567
17838W        W34022  11.756  11.787   2.848 -0.0811  0.1079  0.3209
17839W        W34023  12.944  17.513  10.989 -0.1558  0.0340  0.3871
17840W        W34024  18.993   5.100   1.471 -0.2106  0.1326 -0.1302
17841W        W34025   8.164   1.892  14.989 -0.1841 -0.0932  0.1118
17842W        W34026   4.131  15.105  14.327 -0.0515 -0.0966  0.0688
17843W        W34027  15.103  13.066   3.878  0.1806 -0.1491  0.1233
17844W        W34028   7.111   3.408   3.679  0.4265 -0.0152  0.0496
17845W        W34029   1.170   2.800   0.806 -0.0522  0.0679 -0.1839
17846W        W34030   4.894  16.815   2.948 -0.1585  0.0551 -0.0265
17847W        W34031   6.866  13.524   2.843 -0.1989 -0.1783 -0.1615
17848W        W34032  12.174   8.187  13.876  0.0431  0.0068 -0.1937
17849W        W34033   1.483  15.925   0.109 -0.0284  0.2045  0.2409
17850W        W34034   5.857   9.326  15.337 -0.1492 -0.4433  0.1144
17851W        W34035  10.561  15.560   0.728  0.3211 -0.1964  0.1260
17852W        W34036   8.466   2.604   4.955 -0.3362  0.0947 -0.2959
17853W        W34037   1.682  14.111   3.641  0.0623  0.2356  0.1244
17854W        W34038  15.106  12.947  15.013 -0.2559  0.0512 -0.0433
17855W        W34039  13.376  12.531   3.469  0.1836  0.0500  0.0979
17856W        W34040  10.911   5.263   0.016 -0.4984 -0.1285  0.1009
17857W        W34041   5.151  10.513   5.368  0.1755 -0.4585  0.1092
17858W        W34042   1.498  14.261   4.273 -0.1734  0.0650  0.0194
17859W        W34043   5.177  13.638   3.479  0.2970 -0.1462  0.2008
17860W        W34044  15.361   7.527  15.127  0.3958  0.2033 -0.1880
17861W        W34045   9.868  15.399   0.264 -0.0299 -0.1845 -0.0063
17862W        W34046   1.784   3.854   2.364 -0.0153  0.0092  0.3899
17863W        W34047   1.916  12.151   9.652 -0.1385  0.1331 -0.0897
17864W        W34048   0.470  13.869   0.279 -0.1039  0.4889  0.1407
17865W        W34049   7.621  15.620   9.379 -0.1153  0.0995 -0.1183
17866W        W34050  14.146   2.862  11.543 -0.3074  0.0178  0.0097
17867W        W34051   2.634  12.593   3.135 -0.0462  0.1346  0.2586
17868W        W34052  10.267  17.223   1.695 -0.0335 -0.0707  0.2648
17869W        W34053   8.369   2.513  11.339 -0.4592 -0.2270 -0.2991
17870W        W34054  12.179  10.985   2.787  0.0664  0.1399 -0.1075
17871W        W34055  15.554   8.136  14.469  0.3286  0.2620 -0.1005
17872W        W34056   6.379   1.315   1.839  0.0147 -0.1304  0.0404
17873W        W34057  16.518   3.088  12.552 -0.0944 -0.4240  0.1628
17874W        W34058  12.260  16.311   5.534  0.2247 -0.1429  0.0549
17875W        W34059  11.775   8.917  11.004  0.2870 -0.0720 -0.2121
17876W        W34060  15.939   2.156   5.508 -0.1073  0.1169  0.0420
17877W        W34061  13.691  16.529   1.326 -0.1632  0.1655  0.0526
17878W        W34062  14.332   2.629   3.175  0.1507  0.0358  0.1609
17879W        W34063  18.865   6.684   1.580 -0.2024  0.0030 -0.0722
17880W        W34064   7.373  14.953   5.635 -0.2592 -0.1301  0.0805
17881W        W34065   0.156  12.954  15.067 -0.2787  0.1994 -0.2702
17882W        W34066  12.490  12.343  14.179 -0.1198 -0.0079 -0.1156
17883W        W34067   5.260   2.457  12.544 -0.0822  0.1352  0.0324
17884W        W34068   8.027  11.566  12.914  0.0320  0.1008  0.0351
17885W        W34069   2.233   4.389   4.831  0.0310 -0.1664 -0.0367
17886W        W34070   2.241   7.135  13.482  0.0137 -0.1097  0.0467
17887W        W34071  10.189  15.726  13.335 -0.1136  0.4254  0.0653
17888W        W34072  12.618  14.622   3.416 -0.1074 -0.0329 -0.0616
17889W        W34073  16.055  15.477  14.940  0.2528  0.0485 -0.1969
17890W        W34074   1.063   1.971   0.818  0.4098 -0.4625  0.1746
17891W        W34075  17.865  18.737  12.253  0.1001  0.0617  0.2448
17892W        W34076  12.124  16.659   4.486 -0.3234  0.2984  0.2518
17893W        W34077   5.810   2.029   0.677  0.2572  0.0639  0.1005
17894W        W34078  18.713  10.033   1.469 -0.0931  0.3016  0.2932
17895W        W34079   4.104   9.088   2.398  0.1650 -0.1672  0.4207
17896W        W34080  12.901  10.365   5.216  0.0123 -0.0314 -0.0759
17897W        W34081   4.635  10.265   2.489  0.2566 -0.0965  0.1841
17898W        W34082   6.829   2.679  11.850  0.0144  0.2571  0.1769
17899W        W34083  12.371   0.773   2.282  0.0763  0.2142  0.0058
17900W        W34084   2.845   4.139   1.886  0.1286 -0.1182  0.1926
17901W        W34085   4.615  13.965  11.982  0.3709 -0.0764  0.4442
17902W        W34086  14.594  18.326   0.743  0.1373 -0.0017 -0.5320
17903W        W34087  15.991  12.347   4.935 -0.2211 -0.0414  0.0192
17904W        W34088  15.688   2.821   0.112 -0.2385  0.0709 -0.3795
17905W        W34089   2.485   3.075  12.449 -0.0805 -0.0583 -0.2339
17906W        W34090  14.647   9.260   1.317  0.2683  0.2811  0.0794
17907W        W34091  18.462  16.921  10.734  0.0197  0.0208 -0.2624
17908W        W34092  10.940  14.553  13.289  0.0893  0.0589 -0.2470
17909W        W34093   9.562  12.514   1.002  0.2041  0.3975  0.2033
17910W        W34094  10.555  15.451  10.926  0.1101 -0.2249  0.1753
17911W        W34095  17.600  11.181  14.411 -0.0561 -0.3201 -0.1614
17912W        W34096  13.906   9.663   0.264  0.0725 -0.0320 -0.0842
17913W        W34097   5.308  12.570  12.991 -0.1771  0.1117  0.2505
17914W        W34098  16.429   0.115  13.669  0.0831 -0.3083  0.2448
17915W        W34099  14.666  10.832   0.254 -0.1735  0.0860  0.1974
17916W        W34100   3.943  12.757   2.440 -0.0303  0.1061 -0.0284
17917W        W34101   8.224   7.228  14.589 -0.2448  0.2201  0.3057
17918W        W34102  18.741   1.429  12.906 -0.3772 -0.0102 -0.1056
17919W        W34103   0.998   4.659  12.756  0.1735  0.3534  0.2257
17920W        W34104   5.993  10.318   0.871  0.0307 -0.2402 -0.2076
17921W        W34105   8.479   3.890  12.690 -0.0769 -0.1333 -0.1009
17922W        W34106  16.939   4.710  11.820  0.2361 -0.1940  0.0554
17923W        W34107   1.767   6.676   4.574  0.3186  0.0855  0.1733
17924W        W34108  11.558   9.822   2.250  0.0267  0.3925  0.2816
17925W        W34109   7.870   6.400   3.886  0.2785  0.0218 -0.1172
17926W        W34110   3.752  12.423   3.647  0.3441 -0.2998  0.0193
17927W        W34111   7.519   2.323   1.880 -0.1483 -0.0222 -0.1335
17928W        W34112   8.285  13.395  13.989  0.1268 -0.1158  0.0592
17929W        W34113   8.272   3.592   5.149 -0.2011  0.1773  0.0153
17930W        W34114   0.987  16.474  12.488 -0.2658 -0.3612 -0.1156
17931W        W34115  11.243  15.265   4.559  0.0196  0.1941 -0.2004
17932W        W34116   4.221   3.793   5.819  0.3515 -0.1771  0.1029
17933W        W34117  17.095   5.051  13.553 -0.0181  0.0467 -0.0135
17934W        W34118   9.920   0.755   1.378 -0.0022  0.0646 -0.1433
17935W        W34119  16.801   0.780  15.377  0.1556  0.3222 -0.3013
17936W        W34120  10.789   7.459   0.499  0.0375 -0.2369 -0.2405
17937W        W34121  17.212   9.109  13.735 -0.1296  0.1910 -0.1576
17938W        W34122  16.912  10.762  15.114 -0.1678  0.0658  0.2024
17939W        W34123   7.383   7.674  12.232 -0.3215 -0.1513  0.2432
17940W        W34124  14.879  16.836   1.843 -0.1377  0.0166 -0.1082
17941W        W34125  14.318   3.152   0.099 -0.0906  0.1844  0.0531
17942W        W34126  10.014  11.794  11.940 -0.2613 -0.1555  0.3177
17943W        W34127   4.518   5.755   9.611 -0.1159  0.2599 -0.1548
17944W        W34128   3.392   7.520  11.193 -0.3633  0.1175  0.3318
17945W        W34129  12.835  12.657   5.334 -0.1025 -0.1381  0.1328
17946W        W34130  10.327   2.358   4.032  0.0677 -0.0045  0.3361
17947W        W34131   8.579   6.159  12.692 -0.0320  0.1808 -0.1155
17948W        W34132  15.330  16.494  14.149  0.1077 -0.1571  0.1306
17949W        W34133   2.072  17.360  11.330  0.1881  0.0643 -0.1296
17950W        W34134  15.532   4.807   1.615  0.5445  0.0734 -0.2696
17951W        W34135   0.533  15.352   2.003 -0.0557  0.2780 -0.2120
17952W        W34136  18.463   2.088   3.174  0.4631  0.2597 -0.0728
17953W        W34137   2.284  10.371  12.356  0.0961 -0.2742 -0.2710
17954W        W34138   7.808   7.436   2.927 -0.0139  0.0000 -0.1064
17955W        W34139   4.399  17.836  14.271 -0.0812 -0.0091 -0.0716
17956W        W34140  15.529  11.992   0.628 -0.3081  0.1088 -0.1573
17957W        W34141  14.726   9.037  13.101  0.1072 -0.1966 -0.1567
17958W        W34142   7.304   4.816   5.661  0.0902 -0.0912  0.1782
17959W        W34143  15.003   6.371   2.242  0.0156  0.4593 -0.3373
17960W        W34144   5.453   6.860   0.036  0.4781  0.2185  0.0983
17961W        W34145  17.728   9.115  11.279  0.1901  0.1078 -0.2666
17962W        W34146   0.776  11.391   3.489 -0.1077  0.0099  0.4144
17963W        W34147  10.114   9.139   4.995  0.1290 -0.0709  0.2200
17964W        W34148  10.883   1.001  12.043  0.1015 -0.0109  0.1609
17965W        W34149   5.815  13.155   2.217  0.3043  0.0152  0.0490
17966W        W34150  18.496   4.430  13.894  0.2231  0.1285 -0.2997
17967W        W34151  11.757  15.051  11.145 -0.1869 -0.0379 -0.3498
17968W        W34152   2.661   0.750   2.952  0.0491  0.0313  0.0864
17969W        W34153  17.126  13.887  12.253  0.1400 -0.2188  0.3395
17970W        W34154   0.970  18.198   3.801 -0.3030 -0.3425  0.0798
17971W        W34155  14.192  17.963   2.985  0.2537 -0.3679  0.0502
17972W        W34156   0.774  11.070   1.189  0.1269 -0.0197 -0.1763
17973W        W34157   2.465  17.269   4.100  0.1160  0.1801 -0.3874
17974W        W34158   7.974  11.891   3.665  0.0546 -0.0757 -0.1494
17975W        W34159   0.545   6.888   0.045  0.0357  0.1499 -0.0632
17976W        W34160   7.668  17.969  12.221 -0.1249 -0.4442  0.2910
17977W        W34161   5.170  17.616  12.664  0.2181  0.0201 -0.0762
17978W        W34162   1.032  15.808   2.476 -0.1611 -0.1376  0.1185
17979W        W34163  12.936   5.782  12.666 -0.1138 -0.2169 -0.0673
17980W        W34164   6.946  17.080   0.208 -0.0477 -0.1812 -0.1822
17981W        W34165   2.606   4.524  13.991  0.0401  0.0487  0.1994
17982W        W34166  12.829   4.907   1.584 -0.2785 -0.0882 -0.1810
17983W        W34167   9.863   5.974  12.322  0.1301  0.0055  0.1669
17984W        W34168   5.974  13.160   0.315  0.3186  0.2299 -0.0849
17985W        W34169  10.807  14.446   0.973  0.1633 -0.0945  0.1489
17986W        W34170   8.645  17.661   3.455 -0.0709  0.0648  0.0816
17987W        W34171  13.956   3.129   4.334 -0.0951 -0.1494  0.2310
17988W        W34172  18.024  15.494   3.293 -0.0613  0.0044 -0.0054
17989W        W34173  17.632   8.462  13.281 -0.0213 -0.1388 -0.2030
17990W        W34174   6.804  17.180  14.321 -0.1165  0.2894  0.3785
17991W        W34175  11.677   1.997  10.969 -0.2018  0.2908  0.0053
17992W        W34176   3.060   8.746  11.011 -0.1953 -0.2752 -0.1710
17993W        W34177  16.088  17.112  12.041  0.0846 -0.0788 -0.2939
17994W        W34178  18.210   4.051   3.742 -0.2948  0.0150 -0.1262
17995W        W34179   6.772  13.859  13.207 -0.0255 -0.2457  0.1427
17996W        W34180   5.743   9.253  13.497 -0.0009  0.1248 -0.3952
17997W        W34181  14.428  12.922  11.705 -0.0318 -0.0262 -0.1910
17998W        W34182  11.878   0.447  15.020 -0.0941 -0.0804 -0.0071
17999W        W34183  10.494  16.488  14.449  0.0961  0.0190 -0.2519
18000W        W34184   9.373   3.019  14.160 -0.1579  0.0653 -0.0825
18001W        W34185  15.604   1.432  12.700 -0.0445  0.2423  0.1606
18002W        W34186  15.506  11.803  11.769  0.2293 -0.2927 -0.2937
18003W        W34187  13.484  16.345  10.417  0.2844 -0.0610 -0.0148
18004W        W34188  18.796  14.489  10.891 -0.1991 -0.2233  0.0289
18005W        W34189  17.520   2.682   0.369 -0.0220  0.1087 -0.1035
18006W        W34190  13.204  10.243   1.035  0.0961 -0.0728  0.1059
18007W        W34191  15.269   5.515   1.709  0.0128 -0.3525  0.0647
18008W        W34192  13.481   6.517   4.544 -0.2389  0.2585 -0.2206
18009W        W34193   3.633  14.425   1.851 -0.0606 -0.0164 -0.2905
18010W        W34194  10.339   4.246  10.847  0.0775  0.1088  0.1108
18011W        W34195  14.246   5.499   1.356  0.0428  0.0615 -0.0914
18012W        W34196   7.696   9.701  11.343 -0.0249 -0.0155  0.0886
18013W        W34197   5.647  11.314  11.593 -0.1632 -0.1993  0.0402
18014W        W34198   4.889  12.141   3.931 -0.1299  0.1386  0.0704
18015W        W34199   4.237   7.614  11.163 -0.1093 -0.2023  0.3349
18016W        W34200  17.859   6.398   0.861 -0.4081 -0.2920  0.0313
18017W        W34201  14.727   3.802   3.573  0.0115 -0.2089  0.0136
18018W        W34202   6.950   7.482  13.008 -0.0642 -0.0535  0.0209
18019W        W34203   1.793  11.206   3.784  0.2812  0.3303  0.2036
18020W        W34204   5.003  17.288   2.952  0.1745  0.2654  0.2680
18021W        W34205   6.205  16.303   5.350  0.4161  0.1420  0.1717
18022W        W34206   3.668  14.001   3.730  0.0978 -0.1106  0.3812
18023W        W34207   8.195  12.418  13.225 -0.2786 -0.3547  0.0753
18024W        W34208   2.045   1.605   3.374  0.1132  0.1985  0.1904
18025W        W34209  10.022   2.969  10.150 -0.1767  0.1132 -0.1613
18026W        W34210   2.224   9.707  13.727 -0.1641  0.2150 -0.6234
18027W        W34211  14.626   3.500   3.202 -0.0111  0.4262 -0.2376
18028W        W34212   2.083  13.849  15.146 -0.3222 -0.1399  0.3594
18029W        W34213  17.787  13.550   1.682 -0.0199 -0.0153  0.4204
18030W        W34214   6.164  16.274  14.208 -0.3707 -0.0374  0.3917
18031W        W34215   9.259  16.648  13.950  0.1296  0.0073  0.1865
18032W        W34216   8.638  15.906  11.628 -0.1652  0.1426  0.3210
18033W        W34217   0.048  15.712  12.377  0.3223 -0.0327 -0.0273
18034W        W34218  14.337  15.406  14.538 -0.1723  0.0051 -0.0929
18035W        W34219   0.616   0.601   2.098  0.2608 -0.1919 -0.0012
18036W        W34220   7.448  13.224  13.169 -0.1030 -0.4145  0.1054
18037W        W34221  18.987  14.146  11.247  0.0729 -0.0785  0.0928
18038W        W34222   8.350  15.517   1.035  0.0943 -0.0750  0.2330
18039W        W34223  16.829   5.838   3.985  0.1690  0.0618 -0.2515
18040W        W34224   0.994   6.475   4.703  0.3615 -0.0153 -0.0578
18041W        W34225  18.939  18.397  12.257 -0.0945 -0.1545 -0.1291
18042W        W34226   5.670  11.673  13.968  0.1103 -0.2936  0.1029
18043W        W34227  17.165  16.517   5.014  0.1922  0.3890  0.2566
18044W        W34228   9.126   6.665  13.604  0.1937  0.1234  0.0000
18045W        W34229   7.369   3.854  11.876 -0.0299  0.0713  0.1605
18046W        W34230  14.704  14.132  14.016 -0.0977  0.1197 -0.0225
18047W        W34231   3.357   6.217   2.502  0.0010  0.1702 -0.2079
18048W        W34232  13.039  14.357   3.812 -0.0811 -0.0223  0.0209
18049W        W34233   2.195  17.521   3.616 -0.1508  0.2282  0.0293
18050W        W34234   9.422  12.953  12.105  0.0511 -0.3153  0.0511
18051W        W34235  14.447  16.301  12.472 -0.0541  0.3299 -0.3056
18052W        W34236   9.725   9.244   2.167  0.1349 -0.2330  0.0825
18053W        W34237   4.969   4.161  15.354 -0.2005  0.2491 -0.2384
18054W        W34238  12.652   1.769  12.081 -0.2026 -0.0193 -0.1264
18055W        W34239  11.725   2.812   5.182 -0.0949 -0.0522  0.1883
18056W        W34240  11.827   5.391   2.726  0.2203 -0.1337 -0.1493
18057W        W34241  15.240   7.663  13.165 -0.4359  0.2450  0.2509
18058W        W34242   9.059   2.352  14.016 -0.1164 -0.0286 -0.1729
18059W        W34243  14.332   9.089   4.408  0.1854 -0.1577  0.1280
18060W        W34244  11.250   0.794   4.146 -0.0168  0.4198 -0.0411
18061W        W34245  14.176  15.234   1.623 -0.4857 -0.0519 -0.0372
18062W        W34246   9.476  10.126  13.580  0.0786  0.0317 -0.0070
18063W        W34247   7.634   5.020  13.098 -0.1850 -0.0561 -0.0932
18064W        W34248   0.517  11.318   0.876 -0.4212 -0.1152 -0.1443
18065W        W34249   3.642   9.385   4.418  0.1405 -0.1443 -0.0611
18066W        W34250   1.817  11.625   1.024 -0.0957  0.0292 -0.1209
18067W        W34251  18.390   3.200   4.227 -0.2066  0.0201 -0.1179
18068W        W34252   7.430  13.236  14.973  0.0522 -0.2722 -0.1922
18069W        W34253  11.594  12.786  13.012 -0.0310  0.0993 -0.1637
18070W        W34254   0.898   9.637   3.477  0.1697  0.1634  0.0241
18071W        W34255  11.875   5.948   0.443  0.0999 -0.2078  0.1521
18072W        W34256  13.754  12.591  11.164 -0.1045 -0.0250 -0.0555
18073W        W34257  18.653  12.785   0.228 -0.4658  0.1013  0.0086
18074W        W34258   6.834   1.323   1.296  0.1531 -0.3293 -0.0136
18075W        W34259  17.253  17.541  12.589 -0.2241 -0.0463 -0.2150
18076W        W34260  18.656   3.737  12.080  0.1983 -0.0057 -0.0002
18077W        W34261   5.022   6.213   3.988  0.0051  0.3445 -0.0034
18078W        W34262   0.529  15.198   1.476 -0.0936 -0.2681 -0.0695
18079W        W34263  12.642   5.129  11.722  0.2243  0.0161 -0.0457
18080W        W34264  18.065  10.075  15.217 -0.3410 -0.0324  0.0191
18081W        W34265  18.770   5.042   0.946  0.1845  0.3374 -0.1288
18082W        W34266   9.404  10.153  10.457  0.1675 -0.2575 -0.1847
18083W        W34267  10.254   1.701   4.382 -0.1508  0.0779 -0.1572
18084W        W34268   9.005   8.901  15.300 -0.1239  0.0232 -0.1518
18085W        W34269  12.379   0.712  12.837 -0.0198  0.1492  0.1403
18086W        W34270   1.506  14.354   2.692 -0.1382 -0.0395 -0.0569
18087W        W34271   4.051   6.463   1.029  0.0161 -0.2248 -0.0963
18088W        W34272   3.571   7.408  11.739  0.1840  0.0034 -0.0851
18089W        W34273   2.811   7.657  14.132  0.1313 -0.0967 -0.0348
18090W        W34274  13.342   8.883   1.793 -0.0033 -0.2334 -0.4191
18091W        W34275   1.760  16.143  15.090  0.1135  0.1602 -0.1102
18092W        W34276   1.546  16.907   5.715  0.0572  0.2683  0.1215
18093W        W34277  17.800   5.841  12.119  0.4579 -0.0452  0.0820
18094W        W34278  15.686  11.675   5.352  0.3483 -0.0392 -0.2370
18095W        W34279  18.795  12.437  10.921  0.0936  0.0399  0.0266
18096W        W34280   2.174   8.856  14.088  0.2480 -0.1720  0.2673
18097W        W34281   4.018   5.491   1.900  0.3149 -0.1082 -0.0019
18098W        W34282  10.335  13.474   3.203 -0.2637  0.0835  0.0609
18099W        W34283  11.396   8.102  12.728  0.0523  0.1982  0.2059
18100W        W34284  12.348   6.779  14.744 -0.0866  0.0175  0.0732
18101W        W34285   6.765   3.236   5.166 -0.1194  0.0782  0.1346
18102W        W34286  17.747  18.322  12.459  0.0563  0.1259  0.0753
18103W        W34287  13.990   1.858  12.822 -0.3671  0.0957  0.0824
18104W        W34288  11.024  11.437  15.311 -0.0552 -0.0240  0.2140
18105W        W34289   5.144  10.135   0.745  0.0572  0.3693 -0.0387
18106W        W34290  17.187   2.673   1.738 -0.2271 -0.0420  0.0512
18107W        W34291  18.519   0.075   0.128  0.0898  0.1436 -0.0597
18108W        W34292  10.194  11.225   1.682  0.0079  0.0227 -0.3194
18109W        W34293   4.524   3.081   4.886  0.2797  0.0468  0.0442
18110W        W34294   5.026   9.337   4.238 -0.1033  0.3689 -0.1582
18111W        W34295  14.288   1.583  14.632 -0.3245 -0.0159 -0.1761
18112W        W34296  17.888   4.968  15.018 -0.1242  0.0965  0.0127
18113W        W34297   7.320  17.386   4.161 -0.2791 -0.0591 -0.3183
18114W        W34298   1.507  12.753   3.384 -0.0796 -0.1763 -0.0496
18115W        W34299  15.340  11.311   5.362 -0.3419  0.1313 -0.0339
18116W        W34300   0.321   9.672  11.604 -0.0413 -0.1578 -0.3897
18117W        W34301  13.199   3.824  11.761  0.2378 -0.0170  0.1128
18118W        W34302  17.867  12.744  14.462 -0.0519  0.1608 -0.0076
18119W        W34303  18.233  14.556  12.200 -0.0239  0.1050  0.0212
18120W        W34304   7.970  13.731  12.638  0.2007 -0.1568 -0.4335
18121W        W34305  17.354   9.305  15.004 -0.1296  0.0059 -0.1087
18122W        W34306   3.705   2.600   4.523  0.2047 -0.0610 -0.1167
18123W        W34307   7.793   9.079   1.392 -0.1501 -0.2038 -0.3561
18124W        W34308   6.086   3.411   5.410  0.1911  0.0214 -0.1142
18125W        W34309  17.320   5.614  13.474 -0.2825 -0.1837  0.0442
18126W        W34310   8.553  16.299   3.995  0.1043 -0.0573  0.1805
18127W        W34311   4.598   6.807  12.749  0.0839  0.0330  0.1328
18128W        W34312   5.362   7.242  14.961 -0.0372 -0.1010 -0.0531
18129W        W34313  14.112   6.973  10.910  0.0889 -0.0615  0.0359
18130W        W34314  15.206   5.893  13.457 -0.5247 -0.0786 -0.0505
18131W        W34315   2.228  14.039  12.108  0.2417 -0.0572  0.2285
18132W        W34316   2.375   2.439   2.260  0.0855 -0.5079  0.1318
18133W        W34317   5.653   5.813   1.930 -0.0181  0.0769 -0.2238
18134W        W34318   8.774  18.490   0.549 -0.1575  0.0002 -0.0830
18135W        W34319   6.554  11.534   0.690  0.0304 -0.2966 -0.1685
18136W        W34320  16.953   1.550  14.787 -0.3318 -0.0067  0.1930
18137W        W34321   8.582  13.548   1.876 -0.2499 -0.1546  0.0620
18138W        W34322  16.081  10.469   1.469  0.0005 -0.3764  0.0480
18139W        W34323  15.675   8.868   9.464  0.2505  0.3066 -0.0841
18140W        W34324  13.612  17.473   4.665  0.4170  0.1619 -0.1851
18141W        W34325  18.822   8.253  13.817  0.0023 -0.0029  0.2089
18142W        W34326  11.044   8.672   4.426 -0.2379  0.3136  0.0522
18143W        W34327   2.262   1.176  14.821  0.0019  0.0879 -0.1850
18144W        W34328  17.479   7.255  11.713  0.0578  0.4972  0.0134
18145W        W34329   0.929   0.738  14.423 -0.2144  0.2143 -0.1677
18146W        W34330  12.402   6.559  13.822 -0.0774  0.1088 -0.0320
18147W        W34331  15.131   6.873   2.127 -0.1902  0.2969  0.2110
18148W        W34332  15.799   7.251  11.706 -0.1275 -0.0702  0.0281
18149W        W34333   0.448  14.312   1.728  0.0221 -0.2078  0.0523
18150W        W34334   1.878  14.148  11.105  0.1504 -0.2190 -0.1672
18151W        W34335   3.219  10.908   4.007  0.4360 -0.3434 -0.1613
18152W        W34336   7.214  15.528   3.663 -0.0518  0.2256  0.0538
18153W        W34337  14.207  10.978  11.751  0.1703  0.1158 -0.0872
18154W        W34338  14.473  10.372  12.369  0.1785  0.1432 -0.0635
18155W        W34339  10.573  17.765   3.796 -0.2545 -0.2001 -0.2348
18156W        W34340  14.800  13.325  11.745 -0.1762 -0.2403 -0.5377
18157W        W34341   4.611   2.842   1.571  0.1160 -0.1093  0.0179
18158W        W34342   4.480   5.211  14.906  0.4576  0.2578 -0.0019
18159W        W34343   1.924  12.600  10.790  0.1636  0.2533  0.1985
18160W        W34344   0.332  15.678  13.528 -0.0071 -0.2128  0.1280
18161W        W34345   9.172  16.729  12.590 -0.0692 -0.0737  0.0044
18162W        W34346  11.320  13.483   0.243 -0.3099  0.0118 -0.0547
18163W        W34347  16.221  14.093   0.169 -0.1727 -0.0801 -0.0457
18164W        W34348  10.478  12.904   0.062  0.1144 -0.1026 -0.1444
18165W        W34349  15.410  10.597  13.549  0.2660 -0.0741  0.1585
18166W        W34350   3.037   0.414  11.928 -0.0929  0.3086 -0.1055
18167W        W34351  18.350   9.707  10.784  0.3176  0.3403  0.1342
18168W        W34352   9.745   3.444  11.784  0.2867 -0.0479 -0.0613
18169W        W34353   9.555   5.833   3.535  0.0247 -0.0672 -0.1477
18170W        W34354   7.679   3.810  12.716  0.3507 -0.1483  0.1795
18171W        W34355   7.231   2.986  11.734 -0.4625  0.0342  0.1664
18172W        W34356   0.419   4.845  13.634  0.1103 -0.2289 -0.1357
18173W        W34357   7.441   9.962  15.286  0.0570 -0.4957  0.0898
18174W        W34358   2.586   0.070   2.774  0.2438 -0.1813 -0.0113
18175W        W34359  13.391   9.449   0.333  0.0355 -0.3690  0.0497
18176W        W34360   2.805   4.040  10.426  0.2128  0.1439  0.2424
18177W        W34361  11.903  10.628  12.407  0.1021 -0.1277 -0.4362
18178W        W34362   1.421   6.805  11.091 -0.1223  0.0349 -0.0886
18179W        W34363  14.222   2.324   3.558 -0.0446 -0.1291 -0.2758
18180W        W34364  10.615   0.243   1.331 -0.0502 -0.0859  0.0673
18181W        W34365  11.342  12.366  12.055  0.3351  0.2980  0.2607
18182W        W34366  16.319  12.772   5.206 -0.0511 -0.2501 -0.2586
18183W        W34367  18.535   1.558  11.797 -0.1925  0.1468 -0.0359
18184W        W34368   9.834   2.933   2.113 -0.1538  0.0236  0.2284
18185W        W34369   9.720   0.186   4.496  0.0631 -0.5275  0.2903
18186W        W34370  12.476  10.005   4.408 -0.1666 -0.2755  0.2461
18187W        W34371  15.917   1.192   0.921  0.1805 -0.1382  0.0104
18188W        W34372   2.350  17.581   2.234  0.0750 -0.0843 -0.0117
18189W        W34373   3.519  12.605  13.587 -0.2396  0.1131  0.0326
18190W        W34374   1.438   2.434  10.741  0.0056  0.1366  0.2108
18191W        W34375   6.320  14.507   2.424  0.1920 -0.0574  0.5000
18192W        W34376   2.247   1.906  12.944  0.1124  0.0915  0.2507
18193W        W34377  12.110   7.250   3.375 -0.0146 -0.1850 -0.1378
18194W        W34378  16.044   3.837  14.042 -0.3395  0.0312 -0.3139
18195W        W34379  14.298   6.109  13.229  0.3181  0.0973  0.1371
18196W        W34380  11.330  14.512  14.188 -0.0483 -0.1075 -0.0048
18197W        W34381   5.470   8.640  12.280 -0.1885 -0.0657  0.0688
18198W        W34382   4.335  18.411  14.304  0.0195 -0.4195 -0.0790
18199W        W34383  15.027  10.815  12.391 -0.0820  0.2094  0.3067
18200W        W34384   9.313   0.334   3.870  0.4605  0.0474  0.1091
18201W        W34385   8.747  13.969   2.276  0.4289  0.1550 -0.1482
18202W        W34386  14.087  18.782  15.313  0.0004 -0.3543 -0.2417
18203W        W34387   6.668  17.681  10.618  0.0164  0.1135 -0.3735
18204W        W34388  17.184  12.016   4.616 -0.0563  0.3361  0.3590
18205W        W34389   8.122   8.852  13.690 -0.0076 -0.1460  0.1546
18206W        W34390  17.959   4.870  14.085 -0.2561 -0.2651 -0.0962
18207W        W34391   0.678   7.179  11.897 -0.1728 -0.0600 -0.4378
18208W        W34392   4.714  15.944   1.497  0.2263 -0.0498  0.1734
18209W        W34393   1.068   6.611  14.502  0.4849  0.0105 -0.0540
18210W        W34394  18.564   2.281   4.772  0.2871 -0.0383 -0.1886
18211W        W34395  14.771  12.722   4.741  0.1083 -0.0613 -0.1827
18212W        W34396  11.777   9.833  14.422  0.1442 -0.0995  0.0349
18213W        W34397   7.790   3.017   5.333 -0.0769  0.2728 -0.3701
18214W        W34398   4.306   6.091   0.153  0.0818 -0.0682  0.1157
18215W        W34399  14.307   1.087  12.787  0.2480  0.1600  0.0539
18216W        W34400   7.469   7.020   3.148  0.0351 -0.0226  0.2683
18217W        W34401   4.837   3.698  12.262 -0.4506 -0.1036  0.0703
18218W        W34402   7.024   8.433   4.056  0.2856 -0.2733 -0.1133
18219W        W34403  16.496   7.790   1.561  0.0138  0.0670  0.0088
18220W        W34404   7.221   8.652   0.473  0.0601  0.1043 -0.0430
18221W        W34405   0.355  15.414   0.145 -0.0460  0.4934 -0.1221
18222W        W34406   2.785  17.320   2.249 -0.1486 -0.0035 -0.0581
18223W        W34407   7.116   2.486   4.109  0.1099  0.0999 -0.2499
18224W        W34408   2.467   7.223  12.061  0.0713  0.2176 -0.2436
18225W        W34409   6.844  16.323   2.061  0.1471 -0.0629  0.1824
18226W        W34410  15.947   4.245   0.021 -0.0385  0.1209 -0.1339
18227W        W34411   0.780   3.227   2.600  0.1258  0.0357 -0.0738
18228W        W34412   3.410  17.576  10.830 -0.1380 -0.0631  0.2973
18229W        W34413  16.368  13.207  13.061 -0.1105  0.0244 -0.1272
18230W        W34414   6.165   5.152  14.388 -0.0159 -0.6223 -0.2294
18231W        W34415  14.957  16.667  10.805  0.1643 -0.2391 -0.0533
18232W        W34416  15.891  12.834  13.039  0.1023 -0.1976  0.0568
18233W        W34417  10.152  14.741  14.497  0.0724  0.0126  0.0384
18234W        W34418   2.892   9.090  10.651  0.0242  0.3208  0.0250
18235W        W34419   2.973   9.232  14.585  0.1200 -0.1995 -0.1389
18236W        W34420   6.481   6.739   0.936  0.1976  0.2746 -0.1554
18237W        W34421   8.496  11.301  11.970  0.2871  0.1357 -0.1901
18238W        W34422  10.685   7.516  11.751  0.3455  0.1395  0.2995
18239W        W34423   4.256  17.609   0.950  0.0365 -0.1567  0.0569
18240W        W34424   3.305  12.680   3.662  0.1803 -0.1816  0.0970
18241W        W34425  10.290  13.437   0.159  0.1216 -0.1455  0.0318
18242W        W34426   8.815  15.508   1.853 -0.2379  0.1698  0.0362
18243W        W34427  12.856   0.113  13.133 -0.1245  0.2038  0.3324
18244W        W34428   1.838  18.748  12.722 -0.0770  0.1806  0.1218
18245W        W34429  18.873  11.554  14.586  0.3480 -0.1505 -0.0746
18246W        W34430  12.366  13.114   9.599  0.1215 -0.2680 -0.1863
18247W        W34431  17.881  16.468   3.533 -0.1142  0.1180  0.2252
18248W        W34432   6.206  10.815   4.998 -0.1139  0.2082  0.1103
18249W        W34433  13.276   9.725   2.710  0.0154  0.0438  0.3419
18250W        W34434   9.551   1.457  11.454  0.1655  0.0975 -0.1984
18251W        W34435   9.120  17.454  11.013  0.0171  0.1311 -0.1235
18252W        W34436   2.133  12.115   2.364  0.0477 -0.0598  0.2391
18253W        W34437  18.132  14.431  14.468 -0.1156  0.1176  0.1684
18254W        W34438  15.538  15.804  13.152 -0.2852  0.0692  0.2968
18255W        W34439  13.317   6.399  14.497 -0.1087 -0.0857 -0.1119
18256W        W34440  17.112   2.618  11.110  0.3287 -0.0567 -0.1570
18257W        W34441   3.652  11.484   2.191  0.1739 -0.0263 -0.0523
18258W        W34442   2.078  10.222  10.742 -0.2235  0.0213  0.0650
18259W        W34443  18.896  16.007   1.011  0.2119 -0.0764  0.2046
18260W        W34444   7.541   1.665   4.761 -0.0621  0.1336  0.0212
18261W        W34445   3.307   0.442  14.099  0.2253  0.0466 -0.0011
18262W        W34446   5.841   8.124  12.809 -0.1686 -0.0208 -0.2482
18263W        W34447   9.200  15.322  11.207 -0.2695 -0.3483 -0.1725
18264W        W34448   3.971   7.989   4.138  0.0977  0.0739 -0.1232
18265W        W34449   7.858   6.329   0.186 -0.0458  0.0934  0.1318
18266W        W34450   5.320  13.143   2.092 -0.0707 -0.2703  0.4442
18267W        W34451   2.047   1.447  10.896  0.1129  0.2050 -0.1274
18268W        W34452  10.054  14.421   4.770 -0.0743  0.1088 -0.0211
18269W        W34453  11.025  17.661   1.825  0.1971 -0.1767  0.2625
18270W        W34454  10.910  17.461  14.932  0.2129  0.1285  0.2770
18271W        W34455   4.260   7.808   1.660  0.0538 -0.0448 -0.1377
18272W        W34456  14.217   5.660   2.836 -0.2796 -0.0404 -0.2747
18273W        W34457  11.777  12.307  13.427  0.2340 -0.2442 -0.3685
18274W        W34458  15.022  17.638  11.293  0.1306 -0.2186 -0.3649
18275W        W34459   7.457   5.714   2.070 -0.0593 -0.0753 -0.2515
18276W        W34460  11.968  10.020  13.852  0.4195 -0.2251 -0.2689
18277W        W34461   9.103   4.380   1.413  0.0363  0.0656 -0.2386
18278W        W34462   7.797  14.907   9.473  0.0743  0.0112 -0.0543
18279W        W34463   6.985  10.987   0.680  0.0400 -0.1031 -0.4610
18280W        W34464  12.569   3.128  12.064  0.0871 -0.1852 -0.1569
18281W        W34465   8.941   3.603  14.776  0.0628  0.2885  0.2755
18282W        W34466  10.128   0.036  14.521 -0.0466 -0.0079 -0.2429
18283W        W34467   3.188   1.679  14.646  0.1008 -0.1521 -0.2282
18284W        W34468  11.541  16.556   1.649 -0.1699  0.1779 -0.1005
18285W        W34469  12.771  18.376  11.544  0.1919  0.1964  0.0223
18286W        W34470   8.845  17.209   1.925  0.1665  0.2451 -0.6004
18287W        W34471   8.438   5.142  12.593  0.0865 -0.1399  0.0388
18288W        W34472   9.966  15.153  14.025 -0.0957 -0.2099  0.2790
18289W        W34473   3.236  18.986   1.409 -0.0479  0.3769 -0.2692
18290W        W34474  14.152  16.387  11.016 -0.1478  0.0330  0.1600
18291W        W34475   9.818   8.415  11.136  0.0429  0.2134 -0.1249
18292W        W34476  14.682  11.418   2.068 -0.0312 -0.0299  0.2371
18293W        W34477   7.839   4.236   3.610  0.2014  0.1542 -0.2785
18294W        W34478  18.453  11.196  13.879  0.1370 -0.0517 -0.0713
18295W        W34479   4.716  13.368   3.422  0.0557  0.3644  0.1639
18296W        W34480   9.723   3.258   0.038  0.2714 -0.0366  0.1483
18297W        W34481   5.867   7.260  10.519  0.0053 -0.0392  0.0077
18298W        W34482   8.664   6.121  15.316  0.1939 -0.1884 -0.0448
18299W        W34483  18.187   0.147   4.279 -0.1612 -0.0536 -0.2966
18300W        W34484   1.682   3.015   2.300 -0.0562  0.3269 -0.0654
18301W        W34485   7.288   3.618  13.195 -0.0436  0.0414 -0.4233
18302W        W34486   6.826   2.916   1.671  0.3820  0.1811 -0.0684
18303W        W34487  11.292  15.295  12.849 -0.0935  0.0328  0.0019
18304W        W34488   0.646   3.213   5.057 -0.1369  0.0832  0.1804
18305W        W34489   4.157   9.608   5.063  0.0006  0.0097 -0.2753
18306W        W34490   7.401  16.997   2.332 -0.0859 -0.0862 -0.1036
18307W        W34491  18.514  11.061   4.796 -0.0372 -0.2653  0.4467
18308W        W34492  11.663  11.965   0.508 -0.1032  0.1175 -0.3056
18309W        W34493   4.905  17.194  10.849  0.0806 -0.1620  0.2936
18310W        W34494   9.746   1.500  13.104 -0.1454  0.2864  0.0514
18311W        W34495  18.295  11.029  11.906  0.1464 -0.0247  0.1404
18312W        W34496  11.944  16.935  11.541  0.1699 -0.0185  0.0161
18313W        W34497   0.619   2.856  12.336 -0.1034 -0.4144  0.0371
18314W        W34498   9.746   9.752   2.047 -0.3653 -0.1185 -0.0395
18315W        W34499  12.140  18.262   3.058 -0.1519  0.0536 -0.1355
18316W        W34500   7.028  17.683  12.571  0.3319  0.0699 -0.0947
18317W        W34501   8.263  17.679   0.348 -0.0489 -0.0893 -0.4104
18318W        W34502   3.469  11.351  14.028  0.3149  0.0366  0.0321
18319W        W34503   5.374   1.768  15.234 -0.2664  0.1507 -0.0552
18320W        W34504   0.693  12.934   1.821  0.0089  0.1138  0.0339
18321W        W34505  16.269   5.305   2.399  0.1389 -0.1966 -0.3087
18322W        W34506  12.557   9.306  10.574  0.2020 -0.2046  0.3539
18323W        W34507   9.476   0.625  14.913 -0.0555 -0.0599  0.0505
18324W        W34508   5.119   2.316  11.261 -0.0021  0.1537 -0.1282
18325W        W34509   6.098  14.323   1.930 -0.3000  0.0619  0.1415
18326W        W34510  13.023   2.378   3.781 -0.0271  0.0506 -0.1535
18327W        W34511   9.624  14.766  11.604 -0.1596  0.2930  0.1889
18328W        W34512  16.109  10.585   3.567 -0.0751 -0.0272  0.0008
18329W        W34513  14.280   1.954   0.226  0.1558  0.0077 -0.3494
18330W        W34514   1.761  18.140   4.598  0.1517 -0.1630 -0.1176
18331W        W34515   9.342  14.695   3.544 -0.0426 -0.2218 -0.2245
18332W        W34516   9.147  17.905   0.029 -0.2233  0.0482 -0.2724
18333W        W34517   8.449  10.661   1.027  0.0714 -0.1189 -0.1706
18334W        W34518  10.495   8.003  13.071 -0.0378 -0.1790  0.0934
18335W        W34519   2.670   6.270   2.751  0.5966 -0.0920 -0.2164
18336W        W34520   7.907  12.487   1.085 -0.3103  0.1305 -0.1593
18337W        W34521   4.359   9.571  13.501 -0.0032  0.0487  0.2015
18338W        W34522  18.513   6.684  10.923 -0.0001 -0.0059 -0.1996
18339W        W34523   8.196  13.747  14.332 -0.1832 -0.0541 -0.1559
18340W        W34524  13.553  18.325  14.244  0.1253 -0.0492 -0.0809
18341W        W34525   4.909   7.886  13.198 -0.1062 -0.1540 -0.0004
18342W        W34526   9.966  17.348   0.716  0.2568 -0.1048 -0.2305
18343W        W34527  13.740  14.682  14.966 -0.0683 -0.0995  0.0512
18344W        W34528  18.699   2.661  13.948  0.3199 -0.2044 -0.1457
18345W        W34529   8.774  13.473  12.366 -0.4368  0.1181 -0.0247
18346W        W34530   8.209  14.637   9.658  0.0438 -0.0044  0.0480
18347W        W34531   9.760   5.917   5.813  0.1981  0.1709  0.1798
18348W        W34532  14.967   9.671  14.924 -0.0264 -0.2593  0.2251
18349W        W34533  11.113  11.635  12.582 -0.1865 -0.0491 -0.2135
18350W        W34534  13.954   7.076   0.610  0.2433 -0.4259 -0.2205
18351W        W34535   2.875   6.003   3.163  0.1109  0.1165 -0.2404
18352W        W34536   2.754   6.484   1.601 -0.0190 -0.2282  0.2683
18353W        W34537  12.085  15.102   1.555  0.0657 -0.3513 -0.1737
18354W        W34538   3.618   3.823  12.846  0.1200  0.0724  0.1053
18355W        W34539  18.143  11.586   0.888 -0.0572  0.1330 -0.1562
18356W        W34540  18.621   5.378  13.059  0.2085 -0.1670 -0.1018
18357W        W34541  11.607   0.802   1.628 -0.2367 -0.2306 -0.1971
18358W        W34542   3.950   6.113  12.724 -0.0178 -0.1414  0.2921
18359W        W34543  12.122  10.846  14.996 -0.1041  0.0743  0.1873
18360W        W34544  14.680   4.634   0.955 -0.1426  0.3733  0.0941
18361W        W34545   2.787   4.561  11.613 -0.3311  0.2400 -0.1916
18362W        W34546   2.338   7.797  14.212  0.0243  0.1358 -0.0010
18363W        W34547  12.072   7.607   2.171 -0.2245 -0.1468 -0.1081
18364W        W34548   3.983  15.480   3.073 -0.2309  0.5419  0.0465
18365W        W34549   8.426   9.326   2.195  0.2060 -0.3489  0.2627
18366W        W34550   2.671   3.340   3.972 -0.2304  0.3619 -0.0904
18367W        W34551   5.426   5.164   0.684  0.2117  0.1724  0.0376
18368W        W34552   7.890  17.202   0.807 -0.0506 -0.2667 -0.0228
18369W        W34553   5.649   1.593   0.809  0.1074  0.0890  0.0138
18370W        W34554   6.113   3.375   0.556  0.1762  0.0885  0.0318
18371W        W34555   5.943   9.951   5.109 -0.0027 -0.2094  0.2434
18372W        W34556   4.308  12.088   5.810  0.4593 -0.1117  0.2772
18373W        W34557  14.086  12.869   3.623 -0.2367 -0.2009 -0.1594
18374W        W34558   0.019  12.426   3.111 -0.2673 -0.0370  0.0800
18375W        W34559   1.571   8.374  12.398  0.0488  0.2228 -0.0989
18376W        W34560   5.169  14.775   2.013  0.0738 -0.1524 -0.1258
18377W        W34561  16.827   3.886   4.772  0.1549 -0.1561 -0.4370
18378W        W34562  14.058   3.446  12.532 -0.2557  0.3355  0.1368
18379W        W34563  14.188  11.251   2.231 -0.2333  0.1954  0.0788
18380W        W34564  16.465   4.902   3.941 -0.0370  0.2598  0.1444
18381W        W34565   6.021   3.279   3.725  0.1679  0.2073  0.2093
18382W        W34566  16.619   9.324   0.777  0.0430 -0.1599 -0.2238
18383W        W34567  16.112  11.668  12.300 -0.0113  0.0871  0.2094
18384W        W34568  16.802   6.697   0.874  0.1927 -0.2718 -0.1740
18385W        W34569  12.162  12.093  14.470  0.0518 -0.1809 -0.1730
18386W        W34570   9.748   6.646  13.603  0.2799  0.1046  0.1140
18387W        W34571  18.504   9.788  14.771 -0.2140  0.0280 -0.0755
18388W        W34572  16.955   5.467  12.593  0.0251  0.0002  0.3842
18389W        W34573  11.325  14.109  14.512  0.2588  0.0255  0.1763
18390W        W34574  11.415  10.633   0.228  0.0039 -0.2001  0.1340
18391W        W34575  16.208   2.157  13.154 -0.1430  0.1674 -0.1106
18392W        W34576  10.275  18.866   1.951 -0.0184  0.0304 -0.1012
18393W        W34577  16.642  13.373  13.516  0.1831 -0.1622 -0.1289
18394W        W34578  17.318   1.840  11.551  0.0066 -0.0447  0.2268
18395W        W34579  18.099   9.456  14.731  0.0883  0.0095 -0.2578
18396W        W34580  13.679  18.249   2.861  0.2845  0.0708  0.0171
18397W        W34581   3.607   8.893   4.116 -0.1323 -0.1294  0.0987
18398W        W34582   6.830  18.178  12.481  0.2712 -0.3106  0.0611
18399W        W34583   9.779  17.974  13.424 -0.1457 -0.0957  0.1184
18400W        W34584   4.797   3.948   0.394 -0.0308  0.0126 -0.1834
18401W        W34585   7.995  12.383   3.893  0.1091  0.0331 -0.1133
18402W        W34586   6.358  13.382  10.981  0.2249  0.0161 -0.0188
18403W        W34587   3.516  11.800   4.527 -0.0612 -0.0136 -0.2154
18404W        W34588   1.130  14.403  13.749 -0.1385  0.0604 -0.1162
18405W        W34589  18.505   3.084  13.329  0.1519 -0.1404  0.0272
18406W        W34590  10.585   1.291   5.317 -0.0065  0.0734 -0.0221
18407W        W34591   7.610   8.079  14.764  0.1106  0.0780  0.0595
18408W        W34592   0.665  18.902   3.314 -0.0645 -0.0382  0.0925
18409W        W34593  11.458  14.819   4.564 -0.0930  0.2462 -0.0852
18410W        W34594  17.262   9.021   1.136 -0.1451  0.0084 -0.0751
18411W        W34595   4.458  14.110  13.060 -0.1069  0.0822  0.1101
18412W        W34596  12.308   8.341  11.592 -0.0503 -0.0748 -0.1520
18413W        W34597  13.751   3.052  12.817  0.2151  0.0189 -0.1140
18414W        W34598   1.796  10.347  12.094 -0.3355  0.5008 -0.0769
18415W        W34599  15.180  10.436   1.728  0.0782  0.1107 -0.1551
18416W        W34600   9.076   9.795   2.145  0.2075  0.1524 -0.1742
18417W        W34601   6.720  13.946  14.942  0.0453 -0.0173  0.2595
18418W        W34602   4.214  18.305   3.185 -0.1668  0.5287 -0.0154
18419W        W34603   4.581  12.719  13.682  0.2222  0.2070  0.1708
18420W        W34604  10.388  13.199  11.613 -0.0091 -0.1379  0.1438
18421W        W34605   4.530   0.184   1.315  0.2371  0.0698 -0.1040
18422W        W34606   0.073  12.004  14.827 -0.0605  0.3453  0.1531
18423W        W34607  18.513  14.011  12.689 -0.3725 -0.0254  0.0127
18424W        W34608  12.065  18.716  10.347 -0.0033 -0.2965 -0.0670
18425W        W34609   7.511   6.160   4.729 -0.0619  0.0774 -0.3282
18426W        W34610  12.351   0.944   1.688  0.0734  0.2870 -0.2547
18427W        W34611   8.167   2.240  11.931 -0.1839  0.1402 -0.0795
18428W        W34612  15.436   6.883   0.977 -0.0196 -0.3718 -0.4158
18429W        W34613   7.652  11.655   3.275 -0.0155  0.0749 -0.1256
18430W        W34614   4.885  17.035   5.913 -0.0191 -0.0384 -0.2497
18431W        W34615   5.709  12.561  15.104  0.2203  0.2495  0.0853
18432W        W34616  16.694   9.803   1.780 -0.1630  0.0968 -0.1756
18433W        W34617   3.794  13.036  13.811 -0.0568  0.1822 -0.3769
18434W        W34618   8.142   0.281   1.580  0.0298 -0.2955  0.2203
18435W        W34619   6.582   0.315  15.295  0.0368 -0.3184  0.1355
18436W        W34620   8.339  16.431  14.716 -0.0857 -0.1758  0.1834
18437W        W34621   3.931   2.260  15.266  0.1186  0.2020  0.1574
18438W        W34622  11.809   9.117   0.689  0.2564  0.2742  0.2764
18439W        W34623  18.792  13.898  13.214  0.1230  0.3781 -0.0029
18440W        W34624   3.680   1.407   1.157 -0.0785 -0.0903 -0.2575
18441W        W34625   3.624  14.688  12.302 -0.2003 -0.0169  0.2125
18442W        W34626   4.130   4.242   3.881  0.0418  0.5647  0.1922
18443W        W34627   9.788   6.041  14.842  0.2711 -0.0575  0.2299
18444W        W34628  14.579  13.584  15.345  0.1236  0.1397 -0.1237
18445W        W34629   4.671   4.984  14.394 -0.1303  0.2931 -0.1149
18446W        W34630  16.735  10.110  13.011  0.0923  0.0810 -0.0327
18447W        W34631   5.343   9.604   4.553  0.3214  0.0257 -0.1937
18448W        W34632  11.313  14.910  14.538 -0.1061  0.0294  0.0450
18449W        W34633   6.645   7.031   0.168 -0.1030  0.2467  0.0320
18450W        W34634  16.820  15.892   2.083 -0.0419  0.0020  0.0262
18451W        W34635   2.766  13.118  13.646  0.2188 -0.0587 -0.3254
18452W        W34636   1.943  14.723  13.330 -0.2074 -0.0121 -0.0335
18453W        W34637   3.974  10.098   1.531 -0.0706  0.0632 -0.0651
18454W        W34638   1.751  15.650  10.532  0.5064 -0.2646 -0.0623
18455W        W34639   7.211  13.682  15.128 -0.0455  0.1662 -0.0668
18456W        W34640  10.142   8.617   2.710 -0.0529  0.2211 -0.1394
18457W        W34641  16.924   0.110  13.312  0.0963  0.0431  0.2526
18458W        W34642  17.143  10.411   2.333 -0.0032  0.1149 -0.1929
18459W        W34643  13.614   4.877  13.260 -0.3368  0.2421  0.0872
18460W        W34644   4.262  12.883   0.312  0.0893  0.1616 -0.1833
18461W        W34645  18.389   4.159   2.873  0.1248  0.0231  0.0160
18462W        W34646   5.733   1.561  14.988 -0.3516 -0.1494 -0.1258
18463W        W34647  10.344   4.927  11.419 -0.0730  0.1680  0.2029
18464W        W34648  16.172  11.607  12.858  0.0574  0.1503  0.1338
18465W        W34649  11.064   0.090   1.643 -0.0389 -0.0420 -0.2161
18466W        W34650   9.733   3.157  12.803 -0.2038  0.0897  0.1606
18467W        W34651  13.674   2.480   4.922 -0.2068  0.1104 -0.0328
18468W        W34652   2.279  10.018   0.065 -0.3361  0.1424  0.0644
18469W        W34653  15.296  17.970  10.914 -0.0445 -0.0072 -0.1324
18470W        W34654   3.992  12.689  11.387  0.0324 -0.1252  0.0342
18471W        W34655   2.897  10.677   4.833  0.0250 -0.0561  0.1594
18472W        W34656   7.581  13.183   4.172 -0.1080 -0.0030 -0.1444
18473W        W34657   7.233  12.553   5.334  0.2851 -0.3914  0.2972
18474W        W34658   0.672   0.038   0.181  0.0764  0.1403 -0.2742
18475W        W34659   3.855  16.761   0.198 -0.5281  0.0016 -0.0527
18476W        W34660   4.189   4.113   5.446 -0.4101 -0.2165 -0.0230
18477W        W34661   9.075  14.484   1.024 -0.1575  0.2245  0.3700
18478W        W34662   7.801  15.258  15.255 -0.0900  0.1915 -0.0221
18479W        W34663   5.564   6.328   6.062  0.1945 -0.0803  0.3494
18480W        W34664  10.279  16.925   4.123 -0.0375  0.0047 -0.2379
18481W        W34665  18.371  14.457  15.268  0.2445  0.1376 -0.3254
18482W        W34666   2.252   1.559   5.906  0.0609 -0.1650  0.0876
18483W        W34667   6.006   1.052   2.668 -0.0160 -0.0209 -0.1806
18484W        W34668   6.329   7.152   1.839 -0.3075 -0.0246  0.1141
18485W        W34669  18.432  10.000   2.832  0.0236  0.0220 -0.3794
18486W        W34670  15.457  16.802   1.379  0.0508  0.2268 -0.1203
18487W        W34671   7.869   4.349   2.172 -0.0770  0.2105 -0.0641
18488W        W34672  10.580   8.988  10.337 -0.0097  0.0479  0.3036
18489W        W34673  14.997  18.147  12.733 -0.3025  0.1228 -0.1943
18490W        W34674  12.492  10.534   4.482 -0.1695 -0.0093  0.1361
18491W        W34675   0.368   1.812   5.001  0.3193 -0.0145  0.1248
18492W        W34676   4.284  17.418  13.007 -0.0253  0.1587 -0.2670
18493W        W34677   5.251  13.899   3.898  0.4797  0.1225  0.1281
18494W        W34678   7.072   2.187   0.898  0.1368 -0.0625 -0.0406
18495W        W34679   1.414  16.172   2.476  0.1133  0.1771  0.1063
18496W        W34680   2.058   8.229  13.253 -0.0293  0.0313 -0.3361
18497W        W34681  14.136  16.335  13.888 -0.1516  0.1780 -0.0321
18498W        W34682   6.095  10.415  12.083  0.1263  0.0008 -0.4513
18499W        W34683   4.330   7.580  13.167  0.1961  0.1743  0.1018
18500W        W34684   9.696  14.429   3.836  0.1374  0.0345 -0.2621
18501W        W34685  15.087  10.045   4.880 -0.0024  0.0311  0.0210
18502W        W34686   5.444  11.441   1.098  0.1334  0.0282  0.0305
18503W        W34687   2.316   4.892   4.641 -0.4056  0.0828 -0.0045
18504W        W34688   0.716  14.114  10.658  0.1192  0.4640 -0.3042
18505W        W34689   2.423  10.286   3.578  0.2002  0.1791 -0.0633
18506W        W34690   7.719  15.693  13.159  0.2305 -0.1533 -0.4857
18507W        W34691  11.604  14.662  10.246 -0.1840 -0.1239 -0.0872
18508W        W34692   3.673  16.173  10.726 -0.4053 -0.3413  0.0732
18509W        W34693   5.086   3.986   1.563  0.2740  0.2475  0.0964
18510W        W34694   6.722  10.732  14.432  0.1482 -0.3656 -0.0126
18511W        W34695  14.031  13.253   1.863 -0.1255 -0.1513  0.3065
18512W        W34696   0.664   8.478   3.545  0.0025  0.2867 -0.0968
18513W        W34697   9.012   1.880  14.290  0.0739 -0.1903  0.2522
18514W        W34698  10.407   3.136  13.005 -0.1013  0.2009  0.2396
18515W        W34699  14.243  15.533  12.040 -0.2489  0.4107 -0.0750
18516W        W34700  10.155  15.832   2.709 -0.3184 -0.2309 -0.0324
18517W        W34701  11.119   9.843   3.926  0.0034 -0.2700 -0.0709
18518W        W34702  10.667  12.586   3.853 -0.1771  0.0149  0.0322
18519W        W34703  12.844   9.021   2.438 -0.3550  0.2447 -0.1146
18520W        W34704  17.918   1.131   2.188 -0.0217 -0.0841  0.0915
18521W        W34705  15.093  12.337  13.507 -0.1761 -0.2211  0.0182
18522W        W34706  14.809   9.074   4.206 -0.0087 -0.3166 -0.1494
18523W        W34707  17.360   6.956   0.067 -0.0588 -0.1298 -0.0853
18524W        W34708  11.419   1.303   1.860 -0.0167  0.1079  0.1759
18525W        W34709   6.728  18.113  11.336  0.1907 -0.0745  0.0811
18526W        W34710   3.460   1.517   2.193 -0.2397  0.3941 -0.0121
18527W        W34711   5.232   5.540   2.035 -0.0861  0.0768  0.2234
18528W        W34712  12.240  17.634  11.430  0.1875 -0.1056 -0.1093
18529W        W34713  12.120   6.647   3.844  0.0263 -0.2703 -0.1354
18530W        W34714  13.173  11.440   1.562  0.0619  0.0517  0.1168
18531W        W34715  18.021  15.551  14.119 -0.1327 -0.0234  0.0330
18532W        W34716  13.485  13.478  15.335 -0.1535 -0.0501 -0.2542
18533W        W34717   6.978   0.099   3.896  0.5229  0.0561 -0.0113
18534W        W34718  14.365  12.091  12.408  0.1101 -0.3175 -0.1694
18535W        W34719  14.081  13.806  12.892  0.1743 -0.0690 -0.1034
18536W        W34720   2.619  17.360   1.566  0.1903  0.2413  0.0327
18537W        W34721   1.946  10.603  12.975 -0.4903 -0.0379  0.2820
18538W        W34722   4.968   2.904  13.367 -0.3768  0.0898 -0.1350
18539W        W34723   4.572   8.332  14.206 -0.1872 -0.0213  0.0935
18540W        W34724   2.885   7.218  11.118 -0.1810 -0.3290  0.2102
18541W        W34725  14.960   0.620   5.051 -0.1585  0.1616 -0.0527
18542W        W34726   4.943   2.033   2.891 -0.0361  0.1765  0.1340
18543W        W34727   1.214   6.986  14.750  0.0143  0.0067 -0.2294
18544W        W34728   7.707   1.940  10.912  0.2564 -0.1525 -0.0816
18545W        W34729  10.506   6.602  12.195  0.2328 -0.2478  0.0284
18546W        W34730  12.843   5.695   1.821 -0.4462 -0.2546  0.0653
18547W        W34731  18.644  10.310   4.162 -0.0994  0.1824 -0.0030
18548W        W34732   7.895  18.847  12.994 -0.0911 -0.1184  0.3155
18549W        W34733  17.386  13.409   2.112 -0.1559  0.3171 -0.2153
18550W        W34734   8.311  16.434  15.293 -0.0025  0.3040  0.0601
18551W        W34735   1.251   8.506  15.076  0.2582 -0.3497 -0.0257
18552W        W34736   7.485  13.941   9.678  0.1864 -0.0424  0.4327
18553W        W34737   3.226   4.658  11.897 -0.1381  0.1054 -0.1084
18554W        W34738   8.777  14.476   2.056  0.2933 -0.2085 -0.2231
18555W        W34739   5.879  16.781   2.618  0.2530 -0.1328  0.1011
18556W        W34740  10.450  18.273   3.781  0.2246  0.0300 -0.1893
18557W        W34741   1.149   1.985  10.488  0.1051  0.0207 -0.0972
18558W        W34742  15.727  16.106  14.220 -0.2177  0.0440 -0.1869
18559W        W34743   7.147   7.808   0.832  0.0440  0.2667 -0.2305
18560W        W34744   3.216   0.684  13.572  0.0167  0.1733 -0.0024
18561W        W34745  14.291  11.814  15.308 -0.1593 -0.2416  0.1522
18562W        W34746   8.987  14.613  10.439  0.2618  0.3760  0.0355
18563W        W34747  15.991   1.405  13.635 -0.0619 -0.0341 -0.0727
18564W        W34748  14.317  18.732  10.714 -0.0133 -0.0024  0.2159
18565W        W34749  13.387  18.936  13.031 -0.2436  0.3273 -0.0873
18566W        W34750   3.198   5.342   0.990 -0.0186  0.1635  0.2880
18567W        W34751  11.261   7.040  11.525 -0.1119 -0.1557  0.1260
18568W        W34752   8.464  18.112   3.229 -0.3138 -0.2344 -0.0282
18569W        W34753   5.004   6.750   2.577  0.0194 -0.1960 -0.5007
18570W        W34754   7.509   1.462   0.169  0.1404 -0.3633  0.2282
18571W        W34755  11.145   8.311  10.683  0.5089 -0.1619 -0.0199
18572W        W34756  17.074  17.837   5.101 -0.0563 -0.3486 -0.1467
18573W        W34757   5.439   4.955   1.129 -0.2816 -0.2230  0.1043
18574W        W34758  15.256   6.982  15.046  0.2367 -0.3226  0.2440
18575W        W34759  16.872   1.348  12.896  0.2863 -0.2097 -0.1433
18576W        W34760   3.158   2.834  11.431 -0.0854  0.2672 -0.0116
18577W        W34761  12.126  15.455   1.151  0.2259 -0.1581  0.0986
18578W        W34762  10.324  13.855  10.182 -0.2278  0.0775  0.1979
18579W        W34763   3.054  16.053   3.470  0.0008 -0.0061  0.0951
18580W        W34764   8.167   5.156  13.019 -0.2230 -0.0498 -0.4003
18581W        W34765   6.017  16.482   2.108  0.2091 -0.1814  0.2131
18582W        W34766   3.297   3.769   0.408 -0.0126  0.1019 -0.1871
18583W        W34767   9.117  11.411  12.967 -0.2787 -0.0898 -0.1424
18584W        W34768  16.863  13.372   5.040 -0.2314 -0.2319 -0.3567
18585W        W34769   0.183   4.586   2.123 -0.1083  0.1852 -0.2375
18586W        W34770   2.874   0.296   2.298 -0.0329 -0.1344 -0.0871
18587W        W34771  12.604  16.138   5.151 -0.1428 -0.3415 -0.0322
18588W        W34772   5.247   2.452  14.075  0.0199 -0.0398  0.1395
18589W        W34773   7.482  13.859   1.825  0.2063 -0.2723  0.0595
18590W        W34774  11.379   1.172  13.442 -0.0487 -0.1251  0.0630
18591W        W34775   7.637  16.097  11.757 -0.2327 -0.0134 -0.3745
18592W        W34776  13.281  10.813   4.590 -0.0752 -0.0439 -0.0924
18593W        W34777   5.547  12.541   5.341  0.2225  0.2008 -0.0737
18594W        W34778   8.152   6.818  13.316 -0.1965 -0.0697 -0.1171
18595W        W34779   2.140  14.167   5.774  0.0674  0.1668 -0.0307
18596W        W34780   3.241  14.619   3.812 -0.0062 -0.0352 -0.3673
18597W        W34781  14.250  13.926  15.218  0.1399 -0.1360  0.0545
18598W        W34782   0.166   0.560   0.069 -0.1685 -0.1837 -0.1749
18599W        W34783   2.968  17.545  12.601  0.0338  0.4622 -0.1013
18600W        W34784  11.999  17.431   1.915 -0.0557  0.0467  0.1167
18601W        W34785  12.975  15.383  15.307  0.4124  0.3838  0.2706
18602W        W34786   9.667  12.782  14.273 -0.0604  0.1412  0.0009
18603W        W34787   4.304   4.959   0.416 -0.2484  0.2500  0.0267
18604W        W34788  15.916  12.296   5.881 -0.0548 -0.1486  0.0284
18605W        W34789   9.364   4.885   1.241  0.1107  0.2159 -0.0762
18606W        W34790   2.325   8.923   3.762 -0.1794  0.2565  0.0716
18607W        W34791  17.781   1.350  14.214  0.0324 -0.2673 -0.0800
18608W        W34792   0.344   5.449  12.598  0.1224  0.2604 -0.3360
18609W        W34793   6.534   9.353  12.233 -0.0861  0.0650  0.2070
18610W        W34794   8.234   5.938  13.427 -0.0880  0.1575 -0.3824
18611W        W34795   1.570   6.619  12.069 -0.4031  0.4448  0.0614
18612W        W34796   1.809   2.950  15.088 -0.1090 -0.4876  0.1432
18613W        W34797  14.524  13.022   1.077  0.0133 -0.2741 -0.0785
18614W        W34798   0.703   5.023  10.075 -0.1790  0.2457 -0.2619
18615W        W34799   4.861  10.577  11.775 -0.1051 -0.5337 -0.3686
18616W        W34800   7.187  18.756   4.578  0.0301 -0.0628  0.0612
18617W        W34801   3.284  17.973   4.880 -0.2729 -0.3858 -0.1691
18618W        W34802  11.325   9.599  15.279  0.0293  0.4167  0.3051
18619W        W34803  13.371   1.439  14.661  0.1755 -0.5970 -0.0215
18620W        W34804   0.563  16.871  12.097  0.3931 -0.1760  0.2723
18621W        W34805   0.402   1.153  13.728 -0.3521  0.1885  0.1922
18622W        W34806   5.251   6.416  15.237 -0.0479  0.1588 -0.1264
18623W        W34807  17.779  16.682  14.618 -0.0375 -0.0395 -0.2859
18624W        W34808   6.749   1.340  13.441  0.1754 -0.1736  0.0013
18625W        W34809  10.200   3.303   3.349 -0.0634 -0.0256 -0.5738
18626W        W34810   3.423   6.301   4.952  0.1099  0.3632 -0.4297
18627W        W34811  12.162   5.369   3.693 -0.0038 -0.1686  0.4884
18628W        W34812   2.945  17.694   4.121 -0.2403 -0.3843  0.1305
18629W        W34813   6.765  17.986   4.134 -0.0501  0.0639 -0.2467
18630W        W34814   0.651   4.266   3.538 -0.2164 -0.0972  0.0364
18631W        W34815   2.976  13.372   5.198  0.0937 -0.1206 -0.1380
18632W        W34816   6.139   9.385  11.573 -0.0639  0.0830  0.2047
18633W        W34817   4.891   1.694   0.728  0.0571 -0.1134  0.1589
18634W        W34818   8.648   6.128   4.425 -0.0831  0.0291  0.2847
18635W        W34819   3.922   7.062   0.187  0.0104  0.0674 -0.1565
18636W        W34820   4.080   3.720   3.821 -0.1226  0.1601 -0.1884
18637W        W34821  11.874  13.861  11.706  0.3941 -0.1932 -0.3057
18638W        W34822  12.488   6.986  13.612 -0.0234  0.2440 -0.1959
18639W        W34823  17.612   1.664  11.943 -0.1095 -0.1699  0.2319
18640W        W34824   6.706  14.082  14.429 -0.0115  0.0040 -0.0780
18641W        W34825  15.776  10.272   2.808  0.2186 -0.1548  0.1307
18642W        W34826  18.466  18.657  13.523 -0.0668  0.1093 -0.0828
18643W        W34827   4.875  15.299   4.525 -0.1397 -0.0315  0.0100
18644W        W34828   7.563   4.868   3.964  0.5744  0.3086  0.1796
18645W        W34829  12.006  12.665   4.165  0.0809  0.1667  0.0697
18646W        W34830   1.900  11.942  13.757 -0.2261  0.0881 -0.5128
18647W        W34831  16.031  18.665  14.287 -0.0816 -0.0481  0.2103
18648W        W34832   9.824  11.814  12.752 -0.1616  0.0790  0.1397
18649W        W34833  16.469  15.058  15.312 -0.0491  0.0405  0.1948
18650W        W34834   6.690   6.712   1.974  0.1802  0.0060 -0.1045
18651W        W34835  12.344   2.660   3.486  0.0336 -0.1767 -0.0539
18652W        W34836  14.169  13.703   0.320 -0.0717 -0.2973 -0.1186
18653W        W34837   3.046  17.346   3.181  0.1814  0.1737  0.1771
18654W        W34838   6.094  18.801  12.532 -0.0455  0.0885  0.1950
18655W        W34839   4.441   6.205   2.299 -0.1610 -0.3707  0.1614
18656W        W34840  14.458  18.670   5.788  0.0179  0.0164  0.2047
18657W        W34841  12.905  12.734   4.359  0.0239 -0.0944  0.0158
18658W        W34842  17.621   9.165  14.192  0.0207 -0.0497  0.0640
18659W        W34843   4.501   2.951   0.350  0.1274  0.0648  0.0182
18660W        W34844   6.981  17.897   4.737 -0.0844 -0.1242  0.0875
18661W        W34845   2.541   2.788  13.372  0.0464 -0.1591 -0.2250
18662W        W34846  18.863  17.644   1.995 -0.2363 -0.1109  0.2201
18663W        W34847   1.961  16.255  14.194 -0.0826 -0.2608  0.1270
18664W        W34848   8.913   4.564  12.982 -0.2377  0.0779 -0.1767
18665W        W34849  10.359  16.328   2.636  0.0198  0.0171  0.0696
18666W        W34850  13.188   5.537   2.794 -0.0873 -0.1182 -0.1130
18667W        W34851   2.866  13.776   4.432 -0.0466  0.1120 -0.2158
18668W        W34852  15.689   1.950  10.764  0.0876  0.1008 -0.1261
18669W        W34853   9.633   6.164  11.902 -0.1758 -0.0623 -0.1557
18670W        W34854   4.223  12.605   3.866  0.0271  0.0698 -0.1697
18671W        W34855  10.408   7.711   4.704  0.0797 -0.1035  0.0511
18672W        W34856  10.876   2.283  11.385  0.3943 -0.2094 -0.2299
18673W        W34857   8.265   8.826   1.951  0.1042 -0.1296  0.4565
18674W        W34858  14.104  15.652  15.095  0.4428  0.1281 -0.0690
18675W        W34859  18.409  18.571   0.053  0.0146  0.1631 -0.2841
18676W        W34860   3.889  18.765   0.138 -0.1010 -0.1075  0.2308
18677W        W34861   5.543   5.451   0.200 -0.2911  0.2209 -0.3787
18678W        W34862   5.087  11.383  12.347 -0.0923  0.0229 -0.1465
18679W        W34863  15.086  17.055   4.054  0.3021 -0.2050 -0.2325
18680W        W34864   6.472  11.976   1.009  0.0643  0.3278 -0.0892
18681W        W34865   3.305   5.133  13.529  0.1807  0.0005 -0.1773
18682W        W34866  17.691  15.710  13.509  0.0523 -0.0056 -0.0226
18683W        W34867   0.575   0.859  11.835  0.1297 -0.0373 -0.1596
18684W        W34868   9.517   9.108   4.233  0.4213  0.1069 -0.1330
18685W        W34869  11.572  11.551   2.218  0.0104 -0.1335 -0.1652
18686W        W34870  16.283  12.282  14.899 -0.1347  0.2779 -0.2631
18687W        W34871   3.937   3.051   0.186  0.2192  0.0024  0.2503
18688W        W34872   8.065   8.944   4.865 -0.3961  0.1849  0.1295
18689W        W34873   9.642  13.816  12.554  0.1080  0.0672 -0.1184
18690W        W34874  13.270   2.512  10.496  0.2510 -0.2219  0.1577
18691W        W34875   7.896   8.293  14.353  0.1577  0.2947 -0.3542
18692W        W34876   9.953   7.589   4.589 -0.0536 -0.1272  0.1433
18693W        W34877  16.339  18.830   1.689  0.1035  0.3954  0.1489
18694W        W34878  10.221   2.134   2.679  0.0838 -0.2981  0.1612
18695W        W34879  17.254  18.462   5.624 -0.1856 -0.1470  0.2876
18696W        W34880  10.986   9.074  13.158 -0.3102 -0.1155 -0.1990
18697W        W34881   5.384   8.959   1.893 -0.2318  0.2460 -0.0313
18698W        W34882  16.418   0.179   2.557  0.1364  0.1539  0.0075
18699W        W34883   3.068  18.942   0.755 -0.0562  0.0090  0.0042
18700W        W34884  11.685  18.012   4.892  0.1322 -0.0406  0.0324
18701W        W34885   8.152  16.790  12.343 -0.3348 -0.0816  0.2570
18702W        W34886   6.012   3.839  15.154  0.1354  0.1290  0.0525
18703W        W34887  15.756   5.820  13.803 -0.0198 -0.0988 -0.1409
18704W        W34888   1.355  12.955  13.111 -0.1597  0.3237 -0.0766
18705W        W34889   0.803   5.057  13.905  0.1267 -0.0250 -0.0639
18706W        W34890  12.750  13.654   2.460  0.1334  0.2283 -0.1615
18707W        W34891   7.849   2.624   2.234  0.1458  0.2816  0.2124
18708W        W34892  12.143   3.237  11.867  0.5277 -0.0680  0.2790
18709W        W34893   7.366   6.596  11.197  0.0710 -0.1820 -0.0965
18710W        W34894   2.584  10.667  12.631  0.2118  0.0106 -0.0811
18711W        W34895   5.166  18.232  14.689  0.0633  0.0750 -0.1803
18712W        W34896   3.366   5.046  10.939  0.0242 -0.0253 -0.2576
18713W        W34897  14.501   7.385  14.458  0.1942 -0.2327 -0.3592
18714W        W34898   2.011   5.953   3.872 -0.0101 -0.1338 -0.1310
18715W        W34899   5.987  16.230   4.006 -0.1271  0.1614  0.0245
18716W        W34900  12.888  13.570   4.821  0.0322 -0.2377 -0.1309
18717W        W34901   7.710  12.606  12.790  0.0409  0.1952 -0.0221
18718W        W34902   8.273  10.360   6.392  0.2494 -0.0523 -0.4879
18719W        W34903   9.938   1.350  13.898 -0.0370  0.0786  0.1596
18720W        W34904  16.644   2.685   1.541  0.0778  0.6083  0.1339
18721W        W34905   5.688   4.736   2.786  0.2630  0.0177  0.3399
18722W        W34906   1.738  17.398   5.750 -0.2209 -0.0950  0.1481
18723W        W34907   5.448  14.763   0.042 -0.2197  0.1143  0.1080
18724W        W34908  18.937   5.479   2.021  0.0943 -0.0834 -0.1847
18725W        W34909   2.900   7.872  13.573  0.1908 -0.1119  0.3778
18726W        W34910   9.753   5.685  12.700 -0.1004  0.0792  0.1988
18727W        W34911   2.252   9.888  14.437 -0.2523  0.0101 -0.4640
18728W        W34912   5.632  11.905   5.523  0.5312  0.0095  0.1526
18729W        W34913  15.795  17.946  11.055  0.0288 -0.0360 -0.0701
18730W        W34914   2.423   6.305   4.427 -0.0612 -0.3705  0.0475
18731W        W34915  14.535  18.876   0.789 -0.0046 -0.0729 -0.2312
18732W        W34916  16.827   2.756  11.492  0.0420  0.2587  0.2310
18733W        W34917   2.751   0.582  10.182  0.1796  0.0455 -0.1424
18734W        W34918   2.956  10.171   5.004  0.5012 -0.1750 -0.0658
18735W        W34919  13.024   7.323   4.264 -0.0976  0.0347 -0.1728
18736W        W34920   5.523  17.933   3.079  0.2222 -0.1163  0.2862
18737W        W34921  15.987  13.487  10.980 -0.1939  0.5934 -0.0658
18738W        W34922   0.833  18.518  12.410 -0.1447 -0.0503  0.1053
18739W        W34923  18.738  12.355   3.579 -0.0929  0.0042  0.3749
18740W        W34924   0.444   4.242  15.009 -0.1531 -0.0066 -0.1419
18741W        W34925   1.369  18.484   3.378 -0.0894 -0.2355  0.1979
18742W        W34926  18.989   0.654   4.294  0.0459  0.0480 -0.3322
18743W        W34927  12.785  11.726   3.752 -0.0031  0.2054 -0.0365
18744W        W34928  17.932   0.379  12.760  0.0079 -0.0491  0.1714
18745W        W34929  13.533   3.981  14.397 -0.2206  0.0446 -0.0182
18746W        W34930  16.082  15.620  12.320 -0.0401  0.3052  0.1739
18747W        W34931   6.579  17.938   2.405 -0.2221 -0.0758 -0.1254
18748W        W34932   4.035   1.785   4.592  0.0445  0.0395  0.1761
18749W        W34933   8.396   9.961   4.393 -0.1325  0.0389 -0.3487
18750W        W34934   3.141  17.887  13.770 -0.1631 -0.0239  0.1559
18751W        W34935  12.060   8.979  11.937 -0.0544 -0.0383  0.0092
18752W        W34936   5.294  16.074  13.462 -0.0765 -0.0758  0.1150
18753W        W34937   0.876  12.196   9.484  0.0775 -0.2875  0.0199
18754W        W34938   4.063   0.554   4.385  0.3216 -0.3867 -0.1762
18755W        W34939  17.653   2.224   3.505  0.3953 -0.1699 -0.0604
18756W        W34940   3.120  13.785  13.185  0.1821 -0.1513 -0.0222
18757W        W34941  12.042   1.700  14.332 -0.2393  0.2149 -0.0146
18758W        W34942  13.745   2.496   3.320 -0.4577  0.2765 -0.1471
18759W        W34943   2.642   2.623   1.715  0.1098 -0.0891  0.6155
18760W        W34944  12.990  14.737  13.356  0.0612  0.1386  0.0283
18761W        W34945   9.506  18.449   3.863  0.1258 -0.0587  0.0942
18762W        W34946   0.858  10.763   0.721  0.1984  0.0390 -0.0522
18763W        W34947  17.339   9.047  14.602  0.2587  0.0558  0.0207
18764W        W34948   2.954   2.449   3.223  0.2019 -0.2477 -0.1319
18765W        W34949  18.241  18.999  12.571  0.1746 -0.1083 -0.1789
18766W        W34950   1.545  14.716  13.616 -0.0799 -0.0739  0.0794
18767W        W34951  10.945   1.204   4.367  0.0089 -0.0682  0.2046
18768W        W34952   6.015   2.328   5.358 -0.1871  0.0932 -0.0968
18769W        W34953  17.524   5.400   0.891  0.0795  0.4564  0.3059
18770W        W34954   1.117   4.210  11.265 -0.2171 -0.2405  0.0215
18771W        W34955   5.903  18.419   5.236  0.3545 -0.1124 -0.1462
18772W        W34956  15.123   6.143   0.488  0.5825  0.1910 -0.0749
18773W        W34957   7.345  10.916   4.492 -0.0020 -0.2097  0.2622
18774W        W34958  13.456  16.546  14.866 -0.2051 -0.2331  0.1805
18775W        W34959   1.750   1.705  11.341 -0.1892 -0.0518 -0.3195
18776W        W34960  18.959  14.601   1.947 -0.0818  0.1395 -0.2371
18777W        W34961   2.343   6.112   0.725 -0.1556 -0.0470 -0.2073
18778W        W34962   6.607   2.781   2.098  0.1784  0.0351 -0.2285
18779W        W34963   7.718  17.881   3.756 -0.0292  0.1142  0.1251
18780W        W34964  14.294   1.804  13.286 -0.0170  0.5411 -0.2087
18781W        W34965  17.352   9.944  11.767  0.3859  0.0576  0.1965
18782W        W34966  13.335   9.697  11.345  0.1254  0.0546 -0.1125
18783W        W34967   0.877   9.713   0.912  0.0236 -0.0143 -0.2714
18784W        W34968  17.840  17.161  12.379 -0.1634  0.5451  0.0133
18785W        W34969   4.505   4.731   3.186 -0.4637  0.1238  0.1291
18786W        W34970   3.373   6.322   3.977  0.1547 -0.0647 -0.0006
18787W        W34971   9.187  18.563  12.210  0.2272  0.0313 -0.3547
18788W        W34972   1.825  16.037  13.722  0.2131  0.2782  0.0912
18789W        W34973   8.118  18.471   4.285  0.0983  0.1054 -0.2127
18790W        W34974   0.810  17.811  12.518 -0.0782 -0.1793 -0.0484
18791W        W34975   4.199   5.188  10.891 -0.0718 -0.1226 -0.3730
18792W        W34976  11.716  16.157   4.749  0.1593 -0.1121 -0.0585
18793W        W34977  10.271   3.149   4.633 -0.0488  0.0217 -0.0919
18794W        W34978   2.671   2.905   5.460 -0.0631  0.1102  0.1846
18795W        W34979  10.672   7.530   3.477  0.2304  0.1332 -0.0798
18796W        W34980   8.990  17.606   2.267 -0.0240 -0.3025  0.2800
18797W        W34981   1.880   7.886   2.245 -0.1361  0.1508 -0.0718
18798W        W34982  12.696   6.537   1.890  0.0001  0.4230 -0.2223
18799W        W34983  13.537  10.984   1.375 -0.0173 -0.0091  0.0760
18800W        W34984   6.757   7.538   0.506  0.1028  0.3545 -0.0072
18801W        W34985   5.012  18.918   0.565 -0.1206  0.5125  0.1390
18802W        W34986  12.073  14.555   1.586  0.0673 -0.1375  0.3604
18803W        W34987  12.862   0.113   1.722  0.0674 -0.0354  0.3555
18804W        W34988  18.664   8.935  13.781 -0.0198 -0.0725  0.0246
18805W        W34989   1.045  10.738   4.322  0.0633  0.4705  0.0642
18806W        W34990   9.521  17.771   3.788  0.2696 -0.1741  0.0560
18807W        W34991  17.078  13.325   2.499  0.2405  0.1464  0.2019
18808W        W34992  17.087   9.976   0.522 -0.1639 -0.0632 -0.0152
18809W        W34993  13.897   6.806   3.599  0.0827 -0.3118  0.2048
18810W        W34994   0.358   7.963  11.852 -0.0894  0.4070 -0.2483
18811W        W34995  13.428   3.208  14.575  0.1372  0.3687  0.1089
18812W        W34996  12.657  16.359   3.708  0.0539  0.2248 -0.0456
18813W        W34997  16.575   6.804  11.489  0.1497  0.1269  0.1276
18814W        W34998   0.491   7.122   4.408  0.0218  0.3710 -0.2159
18815W        W34999  15.332  14.778  11.962  0.2345  0.0796 -0.0587
18816W        W35000   3.956  13.405  12.513  0.2043  0.0589  0.1450
18817W        W35001   1.383  10.172   3.864 -0.0954  0.0823 -0.2775
18818W        W35002  10.729   4.715   4.927 -0.1975  0.2681  0.1082
18819W        W35003  11.841  10.319   0.106 -0.1379  0.0523 -0.1860
18820W        W35004  10.732   7.825  14.850 -0.2598  0.1113  0.2333
18821W        W35005  13.695   6.328   3.407 -0.0641  0.0237 -0.0645
18822W        W35006  11.667  15.006  13.014 -0.0638 -0.0626  0.2778
18823W        W35007   2.192   6.894  13.943  0.0951 -0.1678 -0.2106
18824W        W35008  17.227  10.449  14.464  0.2769  0.0122  0.0913
18825W        W35009   5.981   8.803  13.235  0.0026 -0.3230  0.3049
18826W        W35010  14.835   3.613   0.237 -0.1851  0.0206  0.0312
18827W        W35011   2.325  15.423  11.317 -0.0344  0.1385  0.0218
18828W        W35012   5.715   2.060   5.042 -0.3606 -0.2688  0.1538
18829W        W35013   5.197  12.766  12.458  0.3776 -0.0749 -0.1127
18830W        W35014  17.902   8.032  14.016 -0.0571 -0.4105 -0.0829
18831W        W35015   3.834   6.817   9.698 -0.0597 -0.0196 -0.1373
18832W        W35016   3.272   9.774  13.768  0.0719 -0.1917  0.3257
18833W        W35017   0.995   7.942   0.099  0.2443 -0.0221  0.2628
18834W        W35018   9.292  11.083   3.894 -0.4854 -0.1019  0.3799
18835W        W35019  17.032  17.086   4.324 -0.0853  0.1873 -0.1629
18836W        W35020   7.893  10.082   1.637  0.2938 -0.1110  0.1021
18837W        W35021   1.378   4.332   4.701 -0.0952 -0.0696  0.1185
18838W        W35022   7.409  12.933   3.649 -0.2539  0.1033 -0.3807
18839W        W35023   9.664  18.897   1.098 -0.2669  0.0486 -0.0587
18840W        W35024  15.944  12.055  12.719  0.0632 -0.2055  0.3308
18841W        W35025  18.491   6.494  13.740 -0.0641  0.2313 -0.0841
18842W        W35026   4.612   6.461   2.772 -0.0530  0.0009  0.0066
18843W        W35027   2.718   8.599   2.190 -0.3429  0.1088  0.0941
18844W        W35028  14.683  13.029  12.148  0.1969  0.2855 -0.2056
18845W        W35029   4.043   0.781   1.920 -0.0123  0.2533 -0.0795
18846W        W35030   1.047  15.274   0.698 -0.1147 -0.1995  0.0776
18847W        W35031   1.495   9.431  13.461  0.0464 -0.2082 -0.0700
18848W        W35032  15.982   7.784   0.788  0.2664 -0.3549 -0.0355
18849W        W35033  15.916   9.611   4.049  0.0271 -0.0234  0.3924
18850W        W35034   3.983  17.419   1.981 -0.0849  0.0275  0.2508
18851W        W35035  10.921   2.512   2.129 -0.2733 -0.1123  0.3745
18852W        W35036   3.367  12.795  14.748 -0.1035 -0.2348 -0.0101
18853W        W35037  15.289   3.165   4.607  0.3398  0.1327 -0.1027
18854W        W35038   4.249   0.760  10.891  0.2083  0.2171  0.0550
18855W        W35039   6.673  15.942   5.650 -0.0822 -0.2574 -0.2375
18856W        W35040   1.826   2.025  14.314  0.0897 -0.0592 -0.1300
18857W        W35041  13.228  18.430   3.036 -0.0058 -0.0414  0.2464
18858W        W35042   2.346  14.207   2.397  0.0607 -0.3166 -0.0523
18859W        W35043   2.870  18.694  15.088 -0.0758  0.0243  0.1687
18860W        W35044  12.841   0.054   4.421  0.0699  0.4262  0.1279
18861W        W35045   2.902   3.147  10.822  0.0713  0.0320 -0.2716
18862W        W35046  15.374  10.893   2.261 -0.0638  0.0609  0.2974
18863W        W35047  12.284   9.819   1.185  0.1119 -0.3126  0.0782
18864W        W35048   6.027   3.957   1.366 -0.0666  0.1726  0.0007
18865W        W35049  18.196   9.057   2.759 -0.2104  0.1245  0.1603
18866W        W35050  17.939  18.085  13.892  0.1980 -0.0551 -0.1210
18867W        W35051   7.622  12.102   2.415 -0.0038 -0.0876 -0.0906
18868W        W35052   8.077   2.439  13.570  0.1371 -0.1921  0.2097
18869W        W35053  18.779  12.346   5.275 -0.3824 -0.2334  0.1547
18870W        W35054  18.813  10.236  10.232 -0.0554  0.4000  0.1553
18871W        W35055   0.678   1.177   0.956  0.0136 -0.2656 -0.0780
18872W        W35056  17.893  10.293  14.122 -0.1035 -0.0127 -0.2241
18873W        W35057  10.659   3.123   4.316 -0.2150  0.2470  0.0727
18874W        W35058   2.823  10.659  13.086  0.1107 -0.1543  0.1978
18875W        W35059  18.661  14.066  11.656  0.5765 -0.0611  0.1816
18876W        W35060  16.183   8.648   4.088  0.0119 -0.0899 -0.2122
18877W        W35061   6.204  11.655   3.516  0.0223  0.0461  0.0437
18878W        W35062  13.341   3.097   1.761  0.1070 -0.1194  0.4051
18879W        W35063   8.177   1.553   0.024  0.0573  0.2926 -0.1456
18880W        W35064  11.062   9.085   1.105 -0.0938 -0.0338  0.1068
18881W        W35065   8.153   1.529   1.528 -0.0253  0.1886 -0.0142
18882W        W35066  16.056   9.349  10.825  0.0996 -0.2029 -0.2539
18883W        W35067   9.171   6.762   5.108 -0.1029 -0.0595 -0.1507
18884W        W35068  14.660  17.147   0.935 -0.3825  0.2904 -0.0432
18885W        W35069  11.853   4.326  10.230  0.4076  0.1694 -0.0362
18886W        W35070   1.488  13.598   1.822 -0.3394  0.0024  0.1458
18887W        W35071   2.725  15.853   3.175 -0.0417 -0.1418  0.0170
18888W        W35072   5.045  10.539   4.308 -0.2130 -0.0075  0.1795
18889W        W35073  18.504  12.690  11.750 -0.2513  0.1813  0.1234
18890W        W35074   2.671   4.027  11.365 -0.1680 -0.1171  0.1263
18891W        W35075  12.226   5.443  14.153  0.2116  0.0212  0.0527
18892W        W35076  16.303   0.479  15.036  0.0202  0.1107 -0.2825
18893W        W35077   0.042  11.235   1.650 -0.3346  0.3921  0.1209
18894W        W35078  18.353   8.900   1.178  0.1871 -0.1348 -0.1209
18895W        W35079  10.888   2.061  14.663 -0.1085 -0.1921  0.0822
18896W        W35080   6.122  11.216  11.595  0.0580  0.1903  0.2621
18897W        W35081   9.535   4.081   2.804  0.0717 -0.0134  0.1285
18898W        W35082  17.409  10.829   2.152  0.0228  0.0092  0.0647
18899W        W35083  15.328   4.597  15.280 -0.0580  0.1954  0.2866
18900W        W35084  14.478  18.702  11.600 -0.1257  0.1097 -0.0818
18901W        W35085   3.675   5.987  14.785 -0.1091  0.0385  0.2623
18902W        W35086  16.787  13.215   1.058  0.0822  0.2084 -0.0142
18903W        W35087  18.695  17.196   2.300  0.1876 -0.3314  0.1444
18904W        W35088   7.959  13.012   2.150  0.2569 -0.3339 -0.0181
18905W        W35089  16.327   8.348  12.565 -0.0595 -0.4819 -0.1692
18906W        W35090  11.706  15.835   1.304 -0.0601  0.1012  0.0391
18907W        W35091   4.927  17.982   2.387  0.1872 -0.2815 -0.2193
18908W        W35092  10.319   1.076   0.671  0.1454 -0.0915 -0.3374
18909W        W35093   2.268   2.055  14.588 -0.1748 -0.2038 -0.1655
18910W        W35094   3.785  15.010   3.703  0.0637  0.1423 -0.1810
18911W        W35095   1.917   0.882   2.583 -0.0470  0.2793  0.1869
18912W        W35096   4.132   6.563   2.110 -0.0323 -0.0998 -0.1575
18913W        W35097   7.824  16.903   3.464  0.0964 -0.2962  0.0914
18914W        W35098   2.939   4.095  13.613  0.0823 -0.0533  0.1399
18915W        W35099  18.284  11.090   5.196  0.1158 -0.1975 -0.0831
18916W        W35100   5.830   8.229   5.799 -0.1364 -0.3801  0.0807
18917W        W35101  18.455  11.528  14.302  0.1413 -0.4389 -0.1046
18918W        W35102   6.581  11.925   3.675 -0.2324  0.1493 -0.0693
18919W        W35103  16.615  16.287  14.749  0.2261 -0.3784  0.1197
18920W        W35104   3.304  13.340   0.352 -0.2336  0.1793 -0.3208
18921W        W35105  18.988  13.449   5.766  0.0252  0.1100 -0.3414
18922W        W35106   4.931  15.749  13.558  0.2333  0.2650 -0.2189
18923W        W35107  17.841   2.609   1.611  0.3140 -0.1011 -0.1344
18924W        W35108  12.772  16.057  13.809 -0.2809 -0.0549 -0.0757
18925W        W35109   8.596   3.957  14.967 -0.0643  0.2017 -0.4470
18926W        W35110   5.958  18.645   1.730  0.0205  0.1309 -0.1258
18927W        W35111  11.339  12.813   0.995 -0.0523  0.0868  0.0144
18928W        W35112   5.706   8.632  12.807 -0.4917 -0.0264 -0.2273
18929W        W35113  10.941   6.403  13.639  0.1426  0.1071  0.1190
18930W        W35114  12.794  13.110  12.611  0.0456  0.0788  0.1430
18931W        W35115   7.069  12.239  15.124  0.1252 -0.0721  0.4125
18932W        W35116   5.058  14.434   4.704 -0.0093  0.2649 -0.0430
18933W        W35117  18.668   5.716  11.903 -0.2058 -0.0860 -0.0221
18934W        W35118   1.080   8.447  10.803 -0.0645  0.2981  0.1159
18935W        W35119  16.260  17.423  13.811 -0.4592  0.0284 -0.2313
18936W        W35120   5.124   0.328  15.171 -0.4179  0.3023  0.0823
18937W        W35121  13.150  16.138  12.719  0.1263 -0.2734 -0.2092
18938W        W35122   7.515  11.140   5.314  0.0702 -0.0542  0.6464
18939W        W35123  13.177   3.158   5.311 -0.2536  0.1094  0.2289
18940W        W35124  11.466   8.783   4.725 -0.4611 -0.1583  0.0584
18941W        W35125   3.937   9.999  14.086  0.2298 -0.1567 -0.2695
18942W        W35126   9.024  16.779   1.372  0.2044 -0.0632 -0.2125
18943W        W35127  12.875  16.665   1.562  0.0864 -0.0044  0.2227
18944W        W35128   9.588   0.671   0.064 -0.0046 -0.0059 -0.0771
18945W        W35129  13.628   2.680  12.549 -0.1085  0.1806 -0.0479
18946W        W35130   8.539   7.087  12.962 -0.0835  0.0416 -0.0107
18947W        W35131  16.548   5.059  11.971 -0.1695  0.1328 -0.0301
18948W        W35132  14.933  16.237   4.330  0.0093  0.1447  0.3523
18949W        W35133  16.975   1.619   5.222 -0.4424  0.1566 -0.3334
18950W        W35134   1.702  14.648  15.006 -0.2452 -0.0753 -0.1963
18951W        W35135  13.999  18.524  11.155  0.2270 -0.0568 -0.1028
18952W        W35136  15.487  17.434  14.522  0.0862 -0.2141 -0.0367
18953W        W35137   0.113  14.827  11.870 -0.1193  0.0358 -0.1287
18954W        W35138  15.873   5.148  14.379 -0.3140 -0.6293 -0.0020
18955W        W35139  11.242   8.268   3.717 -0.1257  0.3082  0.0082
18956W        W35140  13.375   2.182   4.119  0.1123 -0.0911  0.3114
18957W        W35141   5.700   9.979   4.621  0.2275 -0.0070 -0.1723
18958W        W35142  12.633  17.857   0.775 -0.1590 -0.2118 -0.2202
18959W        W35143  18.281  10.980   4.391 -0.1112  0.3683 -0.1160
18960W        W35144  15.590   5.310   0.237  0.0533 -0.2310  0.0374
18961W        W35145  16.463  14.259  15.119  0.0569 -0.0599 -0.5543
18962W        W35146  11.524  11.061  11.514 -0.0563  0.0674 -0.0280
18963W        W35147   7.161  10.673   1.738 -0.0346 -0.1113 -0.1109
18964W        W35148   3.831  12.842   1.384 -0.2257  0.1906 -0.3005
18965W        W35149   4.516  13.971  14.426 -0.0404 -0.0376  0.2147
18966W        W35150   8.996  15.479   5.031 -0.1201 -0.2016 -0.1849
18967W        W35151   7.181  13.394  10.293  0.2012 -0.2965  0.1312
18968W        W35152   9.189   7.644   0.339 -0.1743  0.0582  0.2107
18969W        W35153   2.628  16.082  12.611 -0.0951 -0.1269  0.2790
18970W        W35154   4.057   0.210   1.826 -0.1373 -0.1388  0.2895
18971W        W35155   0.152  15.000   0.262 -0.0182 -0.0400 -0.2996
18972W        W35156   3.202   5.850   2.796  0.0500 -0.2536  0.0642
18973W        W35157  13.725  15.221  13.437 -0.2509  0.1011 -0.0431
18974W        W35158  11.212  18.216   4.481  0.1706 -0.0352  0.1518
18975W        W35159  18.327  10.769   3.024  0.3118  0.1337  0.1332
18976W        W35160  11.475  11.421   1.334  0.2768 -0.1228 -0.0392
18977W        W35161  12.908  18.364   4.441  0.0423  0.0487 -0.4213
18978W        W35162   4.305   8.358   3.243  0.0824 -0.2366 -0.2742
18979W        W35163   6.385   2.277  14.317 -0.2913  0.2029 -0.1129
18980W        W35164  18.866  12.556  13.999  0.1922 -0.2005 -0.0836
18981W        W35165  12.317   4.801   3.627 -0.1818 -0.0134 -0.0784
18982W        W35166   0.739  10.939   4.661 -0.0783  0.1101 -0.0883
18983W        W35167   4.556  14.937   0.231  0.4408 -0.1292 -0.4032
18984W        W35168   4.811  11.848  14.749  0.2366 -0.1111 -0.0396
18985W        W35169   3.059   3.803   2.245  0.0884 -0.0336 -0.0232
18986W        W35170   3.560  16.596  13.469  0.0182 -0.0876 -0.2545
18987W        W35171   5.546   4.061  14.973  0.3243 -0.1631 -0.2545
18988W        W35172   6.169   6.023   2.034  0.1877 -0.1205 -0.2184
18989W        W35173   7.252  14.107  11.975 -0.2026 -0.5717 -0.1251
18990W        W35174  18.524   3.311   3.350 -0.0548 -0.1409  0.0590
18991W        W35175  15.361   9.638   3.859 -0.1570  0.0245  0.0119
18992W        W35176  13.962  18.548  14.523  0.0019  0.1555 -0.1020
18993W        W35177   5.158  10.043  11.917  0.2431  0.3103 -0.2397
18994W        W35178   0.294  13.998  12.338  0.1930 -0.0769  0.0464
18995W        W35179   8.192  10.530  11.365  0.2598 -0.1999 -0.2205
18996W        W35180   9.235  16.908  13.040  0.1062 -0.0087 -0.2073
18997W        W35181   5.132  16.180  11.160  0.1473  0.2144 -0.2085
18998W        W35182   8.103  15.861  11.550  0.2573  0.1938  0.0785
18999W        W35183  17.500   3.855  11.168 -0.0302  0.0513 -0.0190
19000W        W35184   5.490   4.322  14.391 -0.0671  0.2125 -0.4483
19001W        W35185   8.105   0.642   3.524 -0.1278  0.1716 -0.0495
19002W        W35186   2.981   8.562  12.434 -0.2551  0.0821  0.0391
19003W        W35187  14.432  16.522   4.867  0.1276  0.1708  0.4157
19004W        W35188  18.217  11.883  12.127  0.0929 -0.0829 -0.2821
19005W        W35189  10.712   8.278   3.490  0.2910 -0.2573 -0.1817
19006W        W35190  16.685  16.472  13.140  0.3926 -0.0249 -0.1104
19007W        W35191  18.181  14.441  13.056 -0.0324 -0.0326  0.0141
19008W        W35192  12.239  14.967  10.817 -0.0032 -0.1612  0.1111
19009W        W35193   4.328  17.032   0.113 -0.0324  0.1237 -0.0624
19010W        W35194   8.403  13.223  12.122 -0.0324 -0.0319  0.0443
19011W        W35195  16.381  12.902  13.431 -0.3397 -0.0424  0.1474
19012W        W35196  14.925   8.342   2.497  0.2621  0.1592 -0.2445
19013W        W35197   9.063   0.964   2.981 -0.2421 -0.2025  0.0283
19014W        W35198  17.221  17.873   4.156 -0.2137 -0.1536  0.2376
19015W        W35199   8.117   7.438  15.358 -0.1825  0.2114 -0.1032
19016W        W35200  10.387  15.669   4.453  0.0542  0.2142  0.1872
19017W        W35201   1.999  11.573   4.706  0.0437 -0.2155 -0.1025
19018W        W35202   8.626  18.530  11.019  0.4844  0.1275 -0.1513
19019W        W35203  16.552   0.052  12.472 -0.0260 -0.1503 -0.1599
19020W        W35204  10.820   3.905   3.257  0.1772 -0.0737  0.0491
19021W        W35205  12.960  14.178   3.328 -0.0785  0.0300 -0.2267
19022W        W35206  14.701   5.382  11.634 -0.0940 -0.0966  0.0585
19023W        W35207   3.926   8.684   3.211 -0.0457 -0.0614  0.1478
19024W        W35208  15.609   5.269   1.519 -0.4404  0.1869  0.1120
19025W        W35209  12.287  13.554   0.358 -0.0410 -0.2485  0.0588
19026W        W35210   1.623  12.370  13.973 -0.2806  0.3174  0.0894
19027W        W35211   6.822   0.608   4.289  0.1656  0.0543  0.0147
19028W        W35212   1.896  11.646   3.570  0.4509  0.0199 -0.2049
19029W        W35213   0.674   7.541  14.014  0.0383  0.0837  0.1794
19030W        W35214  10.791  17.813   0.146  0.0143  0.0886  0.1442
19031W        W35215  11.130   5.307   2.960  0.0583  0.0330 -0.2601
19032W        W35216  18.588  18.271  11.407  0.1003 -0.2052 -0.1095
19033W        W35217  15.912  12.804   5.959  0.1257 -0.2369  0.1774
19034W        W35218   6.919   6.785   0.605  0.2908 -0.2543 -0.2287
19035W        W35219  14.108   5.660  14.526  0.0995 -0.0581 -0.3399
19036W        W35220   7.629   0.808  12.899 -0.1354  0.0240 -0.0853
19037W        W35221  11.596  15.221   0.637 -0.2368 -0.0648 -0.2615
19038W        W35222   0.362   3.702   1.829  0.0143  0.0043 -0.1317
19039W        W35223   8.554  15.456   4.140 -0.0367 -0.2540  0.1335
19040W        W35224  11.157   3.907  11.401  0.3255  0.1704  0.0327
19041W        W35225  12.492  11.637  10.823  0.2595 -0.1703 -0.1617
19042W        W35226   6.421  16.389   1.121 -0.1905  0.2217 -0.3978
19043W        W35227   8.121   7.622   2.093  0.2340  0.0293  0.0840
19044W        W35228  15.943   4.983   3.140  0.1704 -0.1181  0.0497
19045W        W35229  13.382  16.167   3.685 -0.1012 -0.1618  0.0845
19046W        W35230   7.895   2.721   0.594 -0.1892 -0.1914 -0.0384
19047W        W35231  18.758   0.572   2.162 -0.3353 -0.1636 -0.1182
19048W        W35232  13.232  18.698  11.763 -0.0035 -0.0119 -0.1606
19049W        W35233   6.826   4.135  13.412  0.2517  0.3676 -0.1038
19050W        W35234  11.006   3.979   4.305 -0.2443  0.0302 -0.0665
19051W        W35235   9.971   2.140  14.827  0.2313 -0.2549 -0.0549
19052W        W35236   1.402  11.627   1.689 -0.0587 -0.2393 -0.3064
19053W        W35237   5.955  12.594  11.103 -0.1390  0.3761 -0.3222
19054W        W35238   4.577   0.943  11.698  0.1013  0.0089  0.0332
19055W        W35239   5.617  12.356   9.867 -0.0792  0.1731 -0.2880
19056W        W35240  17.557   7.052  12.160 -0.1270  0.2355  0.3491
19057W        W35241   0.585   9.656  11.134  0.0962  0.1844  0.0687
19058W        W35242  16.021  16.841  12.980  0.0261  0.0976 -0.3438
19059W        W35243  12.545   3.619   3.306 -0.1795  0.1529 -0.1100
19060W        W35244  15.370  10.422   4.965 -0.1064  0.0992 -0.0303
19061W        W35245   2.903  16.438  12.416  0.5925 -0.0395  0.2185
19062W        W35246   1.135   9.742   0.207 -0.3090 -0.1531  0.0799
19063W        W35247   5.861  12.339   2.310 -0.1365  0.0910 -0.1466
19064W        W35248  10.734  15.440  13.554 -0.0908 -0.0582 -0.1002
19065W        W35249  17.377   5.966   4.071  0.1339  0.2664  0.0814
19066W        W35250   1.516   5.798  14.347 -0.1204  0.1254  0.3273
19067W        W35251  16.630  17.210  14.768  0.1148 -0.2819  0.1546
19068W        W35252  17.624   3.762   1.415 -0.0555  0.1139 -0.1362
19069W        W35253   7.446   3.079   3.498 -0.0490 -0.1362  0.2575
19070W        W35254   8.774  13.342  14.741  0.4705 -0.0778  0.0353
19071W        W35255  15.685  15.394   3.529 -0.3293 -0.0538  0.0953
19072W        W35256  18.601   5.506  13.573 -0.2034  0.1446  0.1893
19073W        W35257  17.487  12.104   0.505 -0.0005 -0.0014 -0.2559
19074W        W35258  11.579  15.412   1.614 -0.1430 -0.3291  0.0595
19075W        W35259  10.250   0.457  12.028  0.0171  0.3364  0.1279
19076W        W35260   9.003   7.964  10.420 -0.0167  0.0169 -0.0173
19077W        W35261   5.948   9.346  14.828  0.2037  0.0922 -0.0046
19078W        W35262  10.965  15.441  15.206 -0.2159 -0.0748 -0.1210
19079W        W35263  14.371  13.961  10.819  0.1673 -0.1339  0.1223
19080W        W35264   2.111  14.885   0.831 -0.1521 -0.0591 -0.1600
19081W        W35265  17.677   1.332   4.227 -0.1145 -0.1108  0.2769
19082W        W35266  18.013  13.790  12.592 -0.0646 -0.2353 -0.2734
19083W        W35267  18.698   5.594  11.454 -0.1972 -0.0491  0.0657
19084W        W35268  15.577   5.399  14.722  0.0930  0.0026 -0.1595
19085W        W35269   6.290   9.472   4.328 -0.1482  0.0471  0.2139
19086W        W35270   2.053   7.167  14.409  0.3776  0.2531 -0.0086
19087W        W35271  12.367  15.479  13.751 -0.0753  0.0158 -0.0735
19088W        W35272   4.435   4.542  11.675 -0.1053  0.2699  0.1945
19089W        W35273   1.674   9.136  14.194  0.2246  0.1803 -0.1643
19090W        W35274  16.457   0.648   2.731 -0.1096  0.1761  0.1865
19091W        W35275  16.039   7.561   1.342  0.0450 -0.0951 -0.0362
19092W        W35276  11.369  13.347  12.041 -0.3027 -0.1451 -0.2090
19093W        W35277   9.467   5.066   0.778  0.1390  0.0501  0.1187
19094W        W35278   0.102  13.563   0.480 -0.0671 -0.2005 -0.1345
19095W        W35279   2.069   7.904   3.504  0.0663  0.4572 -0.2511
19096W        W35280   6.893  11.714   1.168 -0.0243  0.4109 -0.3402
19097W        W35281  16.909   3.406   2.097  0.2538  0.1329  0.0316
19098W        W35282   7.232   8.843   1.694  0.0053 -0.0852 -0.0140
19099W        W35283  10.227  17.844  11.866 -0.0126  0.2210 -0.2187
19100W        W35284   6.964   7.027  13.309  0.0281 -0.1194 -0.1536
19101W        W35285  11.995   5.254  14.668  0.1552 -0.0168  0.5624
19102W        W35286   1.751   2.709  13.550  0.3860  0.0246  0.1346
19103W        W35287   0.519   7.523  11.556  0.1083  0.0866  0.3280
19104W        W35288  18.910  15.617  11.609  0.0723 -0.0240  0.1546
19105W        W35289  17.375  17.045  12.562  0.1725 -0.0383 -0.2115
19106W        W35290  15.722  17.339  14.920  0.2242 -0.0687 -0.3704
19107W        W35291   7.369   8.472  10.949  0.2437 -0.1612 -0.0818
19108W        W35292   5.616   3.599  14.705 -0.1782 -0.1185 -0.1730
19109W        W35293  13.032  18.828   3.255  0.0695  0.1579 -0.1762
19110W        W35294   8.599   2.144  11.070 -0.1054  0.4280 -0.2988
19111W        W35295  17.596  12.931   5.292 -0.1087 -0.0644  0.0899
19112W        W35296  11.244   7.683   4.332  0.1017 -0.3774  0.1155
19113W        W35297   5.200  12.903  14.828 -0.0247  0.0608  0.0126
19114W        W35298  17.031  10.018   4.706 -0.3271 -0.2093  0.0398
19115W        W35299   0.055  14.121   0.271  0.1312 -0.0156  0.1584
19116W        W35300  15.375   4.185  13.575 -0.0061  0.0303  0.0300
19117W        W35301  13.584   2.187   1.684  0.0599 -0.2346 -0.0506
19118W        W35302   6.431  18.004  12.775 -0.1415 -0.2042 -0.0553
19119W        W35303   5.367   4.412   3.432  0.0405  0.0832 -0.0873
19120W        W35304   5.744   6.733  12.880  0.1230 -0.1084  0.0225
19121W        W35305   4.870  10.138  15.034  0.0578 -0.0790  0.1119
19122W        W35306  13.814   9.134  14.233 -0.0277  0.0096 -0.0943
19123W        W35307  13.215   5.485   0.323 -0.2427  0.2411  0.0164
19124W        W35308   2.593  15.768   4.187  0.2955 -0.2778 -0.1020
19125W        W35309   4.771  10.514   0.088  0.4134 -0.0553 -0.1454
19126W        W35310   3.125   5.654   1.388 -0.1445 -0.1153 -0.1940
19127W        W35311  13.067   0.954  14.745  0.2156 -0.2187  0.1601
19128W        W35312  10.918  13.031   2.844 -0.1286  0.3642 -0.3233
19129W        W35313  18.592   8.147   1.820 -0.1374 -0.0914 -0.6127
19130W        W35314   6.104   6.274  14.678  0.1362 -0.2125 -0.0860
19131W        W35315  10.209   9.850  12.405  0.2077 -0.2563 -0.1809
19132W        W35316   4.483  14.472   1.046  0.0974  0.0567  0.1067
19133W        W35317   4.479   4.105   0.067 -0.0812 -0.0040 -0.0209
19134W        W35318  14.465  13.372  14.376  0.1970 -0.4425 -0.1293
19135W        W35319   5.950   3.830   0.245 -0.1259  0.0495  0.0342
19136W        W35320  11.490   8.589  12.542 -0.4024  0.0150 -0.1770
19137W        W35321   9.019   5.038  11.488 -0.1378 -0.0527  0.0494
19138W        W35322   2.850   4.716  12.774 -0.0198  0.0446  0.0259
19139W        W35323   3.419   8.188  14.729 -0.1286 -0.0093  0.1537
19140W        W35324  12.698   1.859   3.954  0.0044 -0.1061  0.5352
19141W        W35325  11.027   7.501  13.061  0.0574  0.2287  0.0697
19142W        W35326   9.873   5.771  13.167 -0.0369  0.2559  0.1392
19143W        W35327  16.070   1.631  12.505 -0.0900  0.0103  0.3420
19144W        W35328  18.587   0.923   4.422 -0.0427 -0.1761  0.2303
19145W        W35329  18.590   9.267  12.127 -0.0502 -0.0812  0.0467
19146W        W35330  13.577   8.163   0.087  0.1728 -0.1224 -0.2325
19147W        W35331   5.419  12.320  11.276  0.1405  0.2449  0.0084
19148W        W35332  14.149   2.882  14.691  0.1071 -0.2422  0.0200
19149W        W35333   0.596   7.591   0.564 -0.0530 -0.0045 -0.2634
19150W        W35334   9.481   7.316   5.671  0.0734  0.0336 -0.0744
19151W        W35335   5.651   2.427  10.988  0.0227 -0.0084 -0.0157
19152W        W35336   8.295  11.439  11.050 -0.0853 -0.5182 -0.2122
19153W        W35337   4.545   8.301  11.671 -0.2030 -0.1192  0.1958
19154W        W35338  17.229   9.789  14.896  0.2384 -0.3406 -0.1208
19155W        W35339  10.917   4.402  13.779 -0.0640 -0.2346  0.0803
19156W        W35340   6.004  10.143   4.249 -0.0441 -0.0407 -0.2729
19157W        W35341   6.696  17.937   3.635 -0.1284 -0.0472 -0.0433
19158W        W35342  10.069  10.844  12.288  0.3483 -0.0415 -0.0144
19159W        W35343  16.435  10.896  15.169  0.0223 -0.0950 -0.0249
19160W        W35344  17.362  14.506   4.224  0.0544  0.3367 -0.3381
19161W        W35345   0.205  16.621   0.226 -0.0278  0.3014 -0.0441
19162W        W35346  16.739  13.804   2.457 -0.4127  0.1682 -0.0368
19163W        W35347   9.125  11.764   0.938 -0.0369 -0.0889  0.1949
19164W        W35348   1.741   9.253   4.779  0.2462  0.0662 -0.2371
19165W        W35349   6.332  17.003  12.271  0.3234 -0.0642 -0.1302
19166W        W35350  10.346   5.665  11.235 -0.1685  0.0653  0.0297
19167W        W35351  12.470   0.153   2.325 -0.3050 -0.1223  0.2587
19168W        W35352  15.192  13.822  14.106  0.1839  0.2066  0.0437
19169W        W35353  11.816  15.700  11.847 -0.0015 -0.0203 -0.1863
19170W        W35354  14.526  10.857   2.201 -0.3161  0.2861  0.1307
19171W        W35355   4.991   4.822   4.036 -0.0123  0.2585  0.0184
19172W        W35356  11.941  10.953  12.802  0.2372 -0.0504  0.2746
19173W        W35357  10.674  12.043   5.112 -0.1538  0.4160  0.1421
19174W        W35358  18.158  14.879   3.145  0.2545  0.2770  0.1906
19175W        W35359   6.680   8.594  11.512  0.3749 -0.3233  0.2320
19176W        W35360   6.602  11.760   3.188 -0.1907 -0.1100  0.1073
19177W        W35361   0.041   1.430   0.272 -0.1819 -0.0174  0.2515
19178W        W35362   4.379   4.699   4.752  0.0040  0.1255  0.0091
19179W        W35363   0.988  11.748  12.899  0.0233 -0.0989 -0.0176
19180W        W35364  14.711  15.204   2.637 -0.0048 -0.1628 -0.1794
19181W        W35365   6.131   4.657   0.033  0.4986  0.0539  0.0398
19182W        W35366  14.364  12.627  10.694  0.1633  0.0362 -0.0844
19183W        W35367  14.534   3.924   2.814 -0.0489 -0.2293  0.1820
19184W        W35368   0.925   8.966   4.198  0.0818 -0.1001 -0.2539
19185W        W35369   6.935  15.946  11.036  0.3121  0.0795 -0.1739
19186W        W35370  11.081  10.109  14.909 -0.1567  0.1433 -0.3246
19187W        W35371  10.600   2.815   3.895  0.1433  0.0456 -0.2358
19188W        W35372  13.304   7.230   3.631  0.0421  0.0650  0.1626
19189W        W35373   0.551   2.044  13.853  0.1752  0.2205 -0.4843
19190W        W35374   4.829   1.944  13.768 -0.1126 -0.0224  0.1848
19191W        W35375   8.532   4.674  10.670  0.1178  0.0884  0.0092
19192W        W35376   1.092   8.089   3.701  0.2636 -0.0970  0.0152
19193W        W35377   4.675  14.148   3.904  0.1519 -0.2995  0.0619
19194W        W35378  12.093   4.689  12.112 -0.1582 -0.1502 -0.0482
19195W        W35379   6.204  11.608  11.236 -0.2525 -0.3288 -0.0786
19196W        W35380   5.893  13.762   0.836 -0.1437  0.2031  0.0812
19197W        W35381  10.700  18.067  10.231  0.0278  0.2274 -0.3102
19198W        W35382  18.454   8.217   2.295  0.2290 -0.2190  0.0399
19199W        W35383  11.421  15.743  12.602 -0.1612 -0.4347 -0.1088
19200W        W35384  16.322  10.925  11.616 -0.0666  0.2251 -0.3778
19201W        W35385  13.663   0.666   1.010  0.1062 -0.1174  0.2684
19202W        W35386   1.837  10.551   2.751  0.0951 -0.0433  0.1586
19203W        W35387  13.382   7.969  13.196  0.1632  0.1224  0.1042
19204W        W35388   0.953   5.320   0.984  0.0106  0.3812  0.1101
19205W        W35389   3.280   9.306   4.853 -0.0953 -0.0743 -0.1164
19206W        W35390   0.369   3.128  15.148  0.3231 -0.0636 -0.1518
19207W        W35391  10.015  11.531  14.955 -0.2401  0.0647  0.0503
19208W        W35392   0.993   2.682   5.236  0.0989  0.2231 -0.4066
19209W        W35393   8.666   7.179  10.735  0.3217  0.1038 -0.3162
19210W        W35394   1.792   8.351   0.468  0.1383 -0.1168 -0.0273
19211W        W35395  16.331   6.521   3.798  0.1657 -0.2153 -0.0597
19212W        W35396   5.477   9.106   4.713  0.0229 -0.3039  0.3003
19213W        W35397  16.945   3.615   3.125 -0.0127  0.2021 -0.2498
19214W        W35398  15.296   4.883  13.075  0.1250 -0.0914 -0.0072
19215W        W35399  18.652   3.148  11.943  0.2311 -0.0509  0.1687
19216W        W35400   9.030   3.475  13.982  0.0829 -0.0902 -0.1028
19217W        W35401  11.515  10.702  11.179 -0.2330 -0.0988  0.1844
19218W        W35402   6.686  14.964   3.195 -0.1010 -0.1488 -0.0250
19219W        W35403  15.858   8.562  10.767  0.0705 -0.1121  0.0918
19220W        W35404   3.351  11.939  12.740  0.0419  0.1248 -0.1583
19221W        W35405   3.650  17.356  15.298  0.2082 -0.2896 -0.2322
19222W        W35406  13.792   9.984  12.330  0.1158  0.0620 -0.0319
19223W        W35407  17.491   5.225   4.627  0.2399  0.3418  0.0309
19224W        W35408  18.034  18.888   1.941 -0.1403  0.1183  0.1158
19225W        W35409  17.813  16.652  12.157 -0.0096 -0.0190  0.3126
19226W        W35410  11.409  14.957   3.354 -0.2346  0.2387  0.0055
19227W        W35411   0.709   3.294   1.754  0.1688  0.3283 -0.2045
19228W        W35412  12.799   0.034  14.205 -0.1605  0.0626 -0.0708
19229W        W35413   6.147   2.306  12.271 -0.1197 -0.1087 -0.1056
19230W        W35414  13.834   8.682  14.436 -0.2158 -0.2271 -0.1944
19231W        W35415  10.347   6.603  11.195 -0.2279 -0.0284 -0.2526
19232W        W35416  18.797  16.671   0.475 -0.3690  0.0086 -0.1457
19233W        W35417  11.744  14.049   5.224 -0.1187 -0.0575  0.1003
19234W        W35418  10.317   1.546   0.932  0.2967 -0.2084  0.1850
19235W        W35419   9.082   1.204  10.606 -0.1159  0.2741 -0.0596
19236W        W35420   0.321  18.755   2.277  0.5189  0.0584  0.2097
19237W        W35421  11.467  16.221   3.304 -0.1744 -0.0028 -0.1766
19238W        W35422   1.094  16.246   0.823  0.2650  0.0933 -0.0960
19239W        W35423  14.012   4.926   0.190  0.0079 -0.0051  0.0508
19240W        W35424   8.805   9.040   5.896  0.2317 -0.0460  0.1162
19241W        W35425  10.300  17.307   2.179  0.0973 -0.1586 -0.2307
19242W        W35426  15.926   8.717   5.122 -0.0507 -0.0079  0.3064
19243W        W35427   9.942  10.953  10.555  0.2537  0.1018  0.0278
19244W        W35428  15.178   4.760   3.886  0.3227 -0.1245 -0.1060
19245W        W35429  15.370   2.445  12.844  0.0793  0.0522  0.1687
19246W        W35430  16.499   1.715   1.483  0.0623  0.3274 -0.1112
19247W        W35431  12.414   5.367   0.716 -0.0377  0.0197 -0.2012
19248W        W35432  18.425   5.548   3.736 -0.0497  0.1722  0.1336
19249W        W35433  12.411   5.820  13.855 -0.0655 -0.0889 -0.1511
19250W        W35434   4.809   5.151   3.339  0.1270  0.1090 -0.2625
19251W        W35435   5.872  17.224  12.524  0.2632  0.1367 -0.0471
19252W        W35436   0.925  10.900   2.050  0.0763 -0.0821  0.0551
19253W        W35437   5.991   5.589   1.628  0.1126 -0.0240  0.0850
19254W        W35438  17.160  14.617  10.611  0.2977  0.0204  0.1800
19255W        W35439  13.219   7.025  11.972  0.1906  0.1027 -0.3233
19256W        W35440   8.435   9.270   5.088 -0.0609  0.0924 -0.1062
19257W        W35441   5.268   4.414   5.665 -0.0722  0.1777 -0.3569
19258W        W35442  17.180   7.628  11.887  0.3267 -0.0959  0.2177
19259W        W35443   6.077   8.442   4.812 -0.2657 -0.1351  0.1491
19260W        W35444   4.026  17.318   0.368  0.1750 -0.2826  0.2880
19261W        W35445   8.125  10.398  10.868 -0.0014 -0.2897 -0.0272
19262W        W35446  14.890  17.890   0.416 -0.2599 -0.1403  0.0874
19263W        W35447   5.024  14.306   4.247  0.1362 -0.0276  0.0480
19264W        W35448  13.637  18.610   4.071  0.1860 -0.0633 -0.2000
19265W        W35449   5.062   7.393   1.231 -0.1000 -0.2014  0.0103
19266W        W35450  10.221  16.146  14.177 -0.2229 -0.0851  0.2375
19267W        W35451  11.708   3.640  14.221 -0.1394 -0.3250 -0.2176
19268W        W35452  17.559  13.586   0.750 -0.4208  0.1362  0.1447
19269W        W35453   4.462   3.510   3.315  0.1143 -0.3037 -0.1784
19270W        W35454   8.442   5.460   2.123 -0.2215 -0.2017  0.0450
19271W        W35455   2.092   0.242  14.506  0.0227  0.2710  0.3047
19272W        W35456  15.554   1.466   1.408  0.1637 -0.1102 -0.1431
19273W        W35457   7.256   1.085  14.329 -0.0097 -0.0143 -0.3511
19274W        W35458   9.894  10.276  14.492  0.1303  0.2431  0.1184
19275W        W35459   1.965   0.845   4.462 -0.1065  0.2117  0.1895
19276W        W35460  13.346   4.171  12.103 -0.0389  0.0861 -0.0372
19277W        W35461  11.830   9.287  11.494 -0.0731  0.0757  0.3068
19278W        W35462   0.199   1.649  13.867  0.1325  0.0059  0.0437
19279W        W35463  15.035  15.186   2.268  0.1974 -0.0888  0.1762
19280W        W35464   6.141   2.462   1.729  0.1427 -0.0222 -0.3770
19281W        W35465  16.287  18.693   4.667 -0.3173  0.0917  0.0170
19282W        W35466  12.390  15.570   3.486 -0.0119  0.1032 -0.1058
19283W        W35467   3.517  15.521   2.789  0.0453 -0.0167  0.1915
19284W        W35468  16.826   1.832   3.718  0.2685  0.0129  0.1057
19285W        W35469  13.966   3.409  14.626 -0.1059 -0.2053 -0.0469
19286W        W35470  14.005  16.795  12.218 -0.1218  0.0800 -0.0413
19287W        W35471   7.970  18.812   5.161 -0.0781  0.1342 -0.1709
19288W        W35472   0.917   3.077  13.474  0.0268  0.0906  0.0510
19289W        W35473  11.529   4.532   2.132 -0.4351 -0.2174  0.1429
19290W        W35474  18.613  15.501   2.760  0.2021 -0.3142 -0.3141
19291W        W35475   2.304  14.322  13.513 -0.2984 -0.0553  0.2228
19292W        W35476  10.466   2.512   2.484 -0.2152 -0.1719 -0.0980
19293W        W35477   1.479   4.674  11.441  0.0761  0.0100  0.1722
19294W        W35478  15.947   7.732   3.953 -0.0900  0.1051  0.1469
19295W        W35479   6.524  14.099  11.406 -0.2361  0.0342 -0.3259
19296W        W35480   6.169  13.804  11.207 -0.2035 -0.0596 -0.1947
19297W        W35481  17.553   0.052  11.853 -0.0143  0.2346 -0.3964
19298W        W35482  18.828   5.763   4.760 -0.0739  0.1636 -0.0708
19299W        W35483   6.221   3.545  13.097 -0.1397  0.1519 -0.3809
19300W        W35484  17.196   1.360  11.876  0.1057  0.3315 -0.4983
19301W        W35485  16.076   2.560  11.610 -0.1156  0.2346  0.0016
19302W        W35486  18.018  16.789  11.022  0.0499 -0.1482 -0.0748
19303W        W35487   1.431   7.781   0.919  0.0274  0.1092 -0.1008
19304W        W35488   2.033  10.144  14.841  0.1380  0.0005  0.1021
19305W        W35489  15.706  14.161  14.615 -0.0276 -0.1232 -0.1183
19306W        W35490  18.806   1.537  12.311 -0.0965  0.1988  0.0015
19307W        W35491   6.267   8.447  13.047 -0.1449  0.0217 -0.0471
19308W        W35492   8.921  12.662  12.117 -0.0165 -0.0146  0.0332
19309W        W35493  14.338  10.500   1.860 -0.0341  0.1945  0.0587
19310W        W35494   0.213  12.167   3.489 -0.0243 -0.1818  0.1119
19311W        W35495   3.349   0.807   0.541  0.0301 -0.1750 -0.1258
19312W        W35496  14.019   4.193  14.762 -0.0731  0.4295 -0.4149
19313W        W35497  10.119  12.744  12.940  0.0384 -0.0573  0.1004
19314W        W35498   4.703   0.327   3.641 -0.0941 -0.0322 -0.1430
19315W        W35499  18.231   2.214  13.255  0.1432  0.0076  0.0121
19316W        W35500   5.248   9.341   0.773 -0.0686 -0.1609  0.1032
19317W        W35501  17.394  12.262  12.503  0.1807  0.1300  0.0375
19318W        W35502   5.830   6.330  12.043  0.0690  0.0141  0.0045
19319W        W35503   9.689  16.418   4.745 -0.1531 -0.1756  0.1676
19320W        W35504   1.138   3.212   2.943  0.0968 -0.2764  0.0160
19321W        W35505  13.420   2.355  13.628 -0.2028  0.0703  0.2980
19322W        W35506   1.361   7.597   4.451  0.0194 -0.2096 -0.1291
19323W        W35507   7.063   3.090  15.338 -0.1166  0.0734 -0.4261
19324W        W35508   7.989   4.238  13.982  0.1606 -0.2300 -0.0625
19325W        W35509  11.475   1.021   2.873 -0.2738 -0.0365  0.1013
19326W        W35510  15.666   9.296  13.549  0.0475 -0.0351 -0.0305
19327W        W35511   0.458   6.907  14.067  0.0529  0.0503 -0.0671
19328W        W35512  15.267  17.550   2.537 -0.1706 -0.0652 -0.0336
19329W        W35513  14.009  14.707   1.132  0.5084 -0.2484  0.0590
19330W        W35514  13.435   6.947   4.308  0.0887  0.1343  0.1714
19331W        W35515  11.596   8.294   1.557 -0.0125  0.0476 -0.0152
19332W        W35516  15.903  15.503  11.214  0.0535 -0.2152  0.1643
19333W        W35517  15.524   3.518  11.686  0.1669 -0.2034 -0.0162
19334W        W35518   6.806  15.535  14.879 -0.0351 -0.1362  0.0271
19335W        W35519  16.023   9.136   9.688 -0.1097 -0.1739 -0.1487
19336W        W35520   0.481  12.452   1.472  0.2145 -0.0284  0.1147
19337W        W35521  18.800   1.315   2.453  0.2061  0.0579 -0.0255
19338W        W35522  10.346  16.288   5.352  0.0833 -0.2764 -0.4204
19339W        W35523  11.894  16.445  13.722  0.1334  0.0725  0.0902
19340W        W35524   8.590  16.763  14.973 -0.3451  0.4339 -0.1257
19341W        W35525   5.398  18.072   3.851 -0.1956 -0.0067  0.0090
19342W        W35526  15.929  17.582   3.402 -0.3142  0.1493  0.1036
19343W        W35527  13.757   5.956   2.309  0.1844  0.0131 -0.0332
19344W        W35528   5.791   6.386   1.606 -0.2945 -0.1296 -0.1706
19345W        W35529  12.532   0.183  11.095  0.2075 -0.2460  0.1929
19346W        W35530   8.243   9.423   1.191  0.1535 -0.1267  0.1185
19347W        W35531  15.525   8.010   3.712 -0.1185  0.1730  0.0734
19348W        W35532   8.982  16.430  10.714  0.1109  0.3249 -0.1727
19349W        W35533   4.747   2.318   1.612  0.4363 -0.2141  0.2654
19350W        W35534   9.464  18.720  12.722 -0.0916 -0.1078  0.0214
19351W        W35535   1.111   4.509  12.258  0.0051 -0.5098 -0.0946
19352W        W35536   9.481   1.976   4.797  0.2294 -0.3209  0.1263
19353W        W35537  13.868   3.051  14.295  0.0481  0.1142 -0.0652
19354W        W35538   5.203  13.532   2.606  0.1494  0.4298 -0.0591
19355W        W35539   3.325  10.491  13.399  0.0575  0.3426 -0.0039
19356W        W35540  16.410  15.218   1.861 -0.0387  0.1067 -0.3489
19357W        W35541  18.353  16.784  14.380 -0.0754 -0.2333  0.0554
19358W        W35542   8.559  12.315   0.555  0.2355  0.0587  0.4652
19359W        W35543  14.755   1.743  10.398 -0.1633 -0.1884 -0.4161
19360W        W35544  13.193   2.460   1.294 -0.1503 -0.0611 -0.0743
19361W        W35545  10.088  10.565   2.376 -0.1087 -0.2114 -0.2296
19362W        W35546   8.667   2.463  14.282 -0.1500  0.0017 -0.1314
19363W        W35547  16.905   1.504   1.919  0.1656 -0.1750 -0.1663
19364W        W35548   9.412   1.129   0.323  0.2767  0.0909 -0.1783
19365W        W35549   5.453  15.426   2.247  0.1276 -0.1266  0.1816
19366W        W35550   9.096  12.688   1.189 -0.2774  0.1091 -0.1486
19367W        W35551   2.542   7.782   0.339 -0.1506  0.1449  0.1545
19368W        W35552  10.080   9.778  14.806  0.4126  0.0809 -0.0283
19369W        W35553  12.796   8.272  11.037  0.2043 -0.1411 -0.2072
19370W        W35554  17.076   9.966  14.428  0.1728  0.3310 -0.4149
19371W        W35555  17.308   7.324  14.525 -0.1479 -0.0235  0.0323
19372W        W35556  11.290   6.866  15.191 -0.0035 -0.1269 -0.1932
19373W        W35557  15.327  13.758  12.192 -0.1122 -0.0861 -0.0059
19374W        W35558   9.760  18.949  14.270  0.3535 -0.0639  0.0923
19375W        W35559   7.937   5.505   5.397  0.0691 -0.0191 -0.1195
19376W        W35560  11.893   7.362   0.746  0.1833 -0.3878 -0.1610
19377W        W35561  18.147  10.904  10.609  0.0076  0.1610  0.1450
19378W        W35562   6.872  15.291   1.083  0.0653 -0.0994  0.2744
19379W        W35563   0.018  18.967   0.099  0.1489  0.1540 -0.2511
19380W        W35564  16.244  12.255   3.006 -0.2362  0.1043 -0.1394
19381W        W35565   2.670   9.703   0.087 -0.5321  0.2912  0.0970
19382W        W35566  10.475   9.931  13.144  0.1490 -0.4735 -0.1852
19383W        W35567  10.819   1.659   4.471 -0.3085 -0.1913  0.5370
19384W        W35568   3.161  18.705  14.705 -0.0733  0.1738  0.1140
19385W        W35569   6.834   8.220   3.572  0.0657  0.0326  0.1728
19386W        W35570  16.882   3.420  14.145  0.2562 -0.4613  0.5667
19387W        W35571  11.722   8.397  13.948 -0.1815  0.0471  0.0846
19388W        W35572   0.601  18.404   1.384 -0.0262  0.0859  0.0705
19389W        W35573  14.098   2.205   3.090  0.1588  0.1718 -0.0774
19390W        W35574   7.238  17.648   5.189  0.2692  0.3161 -0.1005
19391W        W35575  16.250   5.922  14.939  0.1582  0.0708  0.0770
19392W        W35576   0.546   9.948  13.793 -0.1613  0.1696 -0.1387
19393W        W35577   7.603   4.103  13.677  0.0297 -0.1407 -0.0168
19394W        W35578   6.404   8.993   0.516  0.0187 -0.1796 -0.1115
19395W        W35579  15.691  13.758  14.274 -0.0228  0.0278 -0.2031
19396W        W35580  17.581   3.372  15.378  0.1425  0.2364  0.0630
19397W        W35581  18.376   8.828   0.627  0.0520 -0.3905  0.1860
19398W        W35582  13.860  17.812  13.707  0.0721  0.1788  0.0401
19399W        W35583   4.883   9.006  14.348  0.2401 -0.2600 -0.0862
19400W        W35584   4.137  14.850  11.010  0.2171  0.1690 -0.1343
19401W        W35585   6.771  15.868   1.076  0.0820  0.4237 -0.0953
19402W        W35586   9.435  14.742  13.609 -0.4349 -0.2192 -0.1354
19403W        W35587  16.981   1.797  13.934  0.1138 -0.1420  0.4328
19404W        W35588   1.309  18.210  14.294 -0.3353  0.1980 -0.0748
19405W        W35589  11.354  17.401  12.819 -0.2997  0.1622 -0.1367
19406W        W35590  16.104   1.302  14.821  0.0948  0.1663  0.1588
19407W        W35591   2.736   3.768  12.605 -0.0288 -0.1255 -0.1029
19408W        W35592   0.428  10.480   0.945  0.1044  0.0772 -0.0736
19409W        W35593   6.454  11.597   4.483 -0.1130 -0.1527  0.3262
19410W        W35594  13.233   9.795  13.167 -0.2467 -0.1877  0.0694
19411W        W35595   5.314  11.055   5.228  0.1810  0.2075 -0.1425
19412W        W35596  15.745  18.568   3.833  0.0235  0.2929 -0.1202
19413W        W35597  11.468  14.328  12.827  0.1021  0.1498 -0.1872
19414W        W35598  18.526  12.094   1.516  0.0823 -0.0564 -0.0648
19415W        W35599   9.263  15.286   1.487 -0.2289  0.1536 -0.1019
19416W        W35600   1.925  18.754  14.274  0.0675  0.0961 -0.1400
19417W        W35601  17.498   1.710   3.024  0.2762 -0.0843  0.0882
19418W        W35602  12.739  14.410   1.512 -0.2702 -0.0722 -0.0446
19419W        W35603  13.334   5.968  11.175  0.0267  0.1048 -0.1253
19420W        W35604   5.868  16.453   1.296 -0.2158 -0.0889 -0.1978
19421W        W35605  17.348   0.378  11.469  0.1013 -0.0840  0.1439
19422W        W35606   2.098  12.504   0.848 -0.0628  0.1929 -0.1314
19423W        W35607   7.174   2.678  10.870  0.0585  0.1167  0.0968
19424W        W35608   5.571   4.306   1.415 -0.1336  0.2891  0.0032
19425W        W35609   4.649  11.069   2.099  0.2425  0.2020  0.0113
19426W        W35610   3.038   0.020  13.911 -0.1167 -0.2894  0.0142
19427W        W35611   2.466  14.184   5.258  0.1348  0.3317 -0.0647
19428W        W35612  11.387   4.557  13.790  0.0742  0.2097 -0.3775
19429W        W35613  16.201  17.398  12.430 -0.0461  0.1728  0.3210
19430W        W35614   4.531  11.691   0.635 -0.0251  0.0134 -0.0412
19431W        W35615   3.980   9.565  12.338 -0.0298 -0.2066 -0.3298
19432W        W35616   0.994  14.921  12.941 -0.3151 -0.3340 -0.1958
19433W        W35617  12.287   1.623   4.161 -0.0855  0.0802  0.0170
19434W        W35618  15.620   1.756   0.979  0.0950  0.0257 -0.1376
19435W        W35619  12.007   2.055  13.363 -0.2413  0.1744  0.2477
19436W        W35620  15.016  13.719   0.176 -0.0725  0.0723  0.2636
19437W        W35621   9.900   7.414   2.018  0.0583  0.1197 -0.0046
19438W        W35622   4.894  17.585   5.666  0.1952 -0.2711  0.0261
19439W        W35623  18.031  14.849  11.346  0.0513 -0.0734 -0.1583
19440W        W35624  17.084  10.713   5.023  0.1855  0.2540  0.0292
19441W        W35625  15.734   4.778   0.184 -0.1828 -0.1158 -0.3819
19442W        W35626  16.587  11.936  15.198  0.2098 -0.1516  0.0788
19443W        W35627  11.871  12.787  14.816  0.1305  0.0270 -0.3565
19444W        W35628  14.241   3.832   3.338 -0.2290 -0.0975  0.2126
19445W        W35629  17.235   3.999   3.449 -0.0872  0.1517 -0.0145
19446W        W35630   8.289  10.923  15.189  0.1144 -0.2821 -0.0576
19447W        W35631  15.732   8.061   2.996  0.1272 -0.2167  0.3939
19448W        W35632   8.663   9.752  11.755 -0.1775 -0.1087  0.0152
19449W        W35633   6.490  10.357  11.590 -0.0245  0.3260  0.0814
19450W        W35634  13.221  14.409  14.200  0.4466 -0.0202 -0.1379
19451W        W35635   5.564   4.191  11.398 -0.1147  0.0393 -0.4672
19452W        W35636   1.779   6.172  12.328  0.2413 -0.2081  0.1965
19453W        W35637  16.180  12.332   4.444 -0.0380  0.3412  0.0368
19454W        W35638   7.993  13.278   2.640 -0.3593  0.1231  0.1302
19455W        W35639   7.223  10.249   1.389 -0.1254 -0.3604  0.0079
19456W        W35640  18.730   9.052   0.077  0.0839  0.2173 -0.0217
19457W        W35641   2.514   9.345   5.486  0.4289 -0.2153  0.0779
19458W        W35642  15.880  11.363   4.543 -0.2266  0.2733 -0.4873
19459W        W35643  14.716   4.974  14.654 -0.0344  0.0111  0.2231
19460W        W35644   5.638  14.467   3.297  0.2516 -0.0380 -0.2220
19461W        W35645   6.959  16.780  12.123  0.1299  0.2649 -0.0985
19462W        W35646  12.281   8.435  14.300  0.0619  0.0843 -0.1510
19463W        W35647   3.138   7.801   2.631 -0.2767 -0.0991  0.1396
19464W        W35648  11.894  12.651  12.091 -0.2418 -0.1037 -0.3027
19465W        W35649   9.706  13.580   2.380 -0.3012 -0.1746 -0.0687
19466W        W35650   0.719  15.046   2.961  0.1220  0.0538 -0.1663
19467W        W35651   4.822   9.755   4.439  0.3125  0.3343  0.3212
19468W        W35652   0.900  17.913   3.272 -0.0987  0.1896 -0.0382
19469W        W35653   2.372   7.851   3.918 -0.0257  0.2124 -0.2299
19470W        W35654   5.854   1.382   5.581 -0.2128 -0.3127  0.1068
19471W        W35655   4.770  12.831   4.540  0.1000 -0.0505 -0.2981
19472W        W35656   2.011  11.770  15.366 -0.2821 -0.2695 -0.0064
19473W        W35657   8.030  17.908   5.016 -0.3193 -0.0957 -0.0014
19474W        W35658  10.316   5.226   3.455 -0.0902 -0.1187  0.3348
19475W        W35659   0.363  10.853  11.430 -0.0565  0.0833 -0.2602
19476W        W35660  13.054   6.499   4.821  0.0237 -0.0683  0.0603
19477W        W35661  14.849   7.324   0.844 -0.2591  0.3041 -0.2229
19478W        W35662   0.285   1.586   1.127 -0.1679 -0.3839 -0.0540
19479W        W35663   5.200   8.168   1.432  0.1835  0.1061 -0.0330
19480W        W35664  11.478  13.160   4.811  0.0104 -0.1241  0.2315
19481W        W35665  12.987  18.493   2.550  0.0331 -0.0239  0.1928
19482W        W35666   5.028   1.303   0.011  0.0772  0.1403 -0.1986
19483W        W35667  12.590   0.022  10.648  0.3661  0.4884 -0.0863
19484W        W35668   2.641   9.488  12.627  0.1768  0.0630 -0.0582
19485W        W35669   6.382   9.064  11.847  0.0746 -0.0772 -0.0921
19486W        W35670  12.672   7.247   3.574  0.1780 -0.0893  0.1475
19487W        W35671  15.807  15.157   0.028  0.1520 -0.0287 -0.2883
19488W        W35672  14.536  15.844   5.809  0.0830  0.0547  0.2823
19489W        W35673   7.016  16.805  10.877  0.1537  0.0757  0.3206
19490W        W35674   7.253   7.941   4.382  0.1141 -0.0548 -0.3294
19491W        W35675   8.543  16.628  10.955  0.1605  0.1318 -0.0434
19492W        W35676  11.855  14.734  11.534 -0.1097  0.0273  0.1615
19493W        W35677   6.127   8.456  14.506 -0.3740  0.4226 -0.2036
19494W        W35678  12.019   0.114   2.548  0.1962 -0.1736 -0.0519
19495W        W35679   5.340   8.887   2.616 -0.0561 -0.2575 -0.1487
19496W        W35680  18.867   8.123  14.892 -0.1150 -0.2769  0.0943
19497W        W35681   7.517  14.797  10.614  0.0425  0.0882 -0.3661
19498W        W35682  10.303  12.121   0.440  0.2056  0.0019 -0.1066
19499W        W35683   1.254  10.013  12.843  0.3398  0.1856  0.0672
19500W        W35684   0.092   3.455  10.916 -0.2662 -0.1605 -0.3361
19501W        W35685  13.838  16.959   1.704  0.1654 -0.0749  0.1790
19502W        W35686   0.195   2.296  10.774  0.0704 -0.2314  0.2348
19503W        W35687   4.414   8.273  14.663 -0.1032  0.0318  0.2293
19504W        W35688  13.049   8.976  11.757 -0.0588  0.0760 -0.0362
19505W        W35689   7.959   2.931   4.189 -0.4811  0.1402 -0.0224
19506W        W35690   6.405   9.412   1.775  0.0400  0.0255 -0.3483
19507W        W35691   3.573   9.180  14.478  0.1715  0.2841  0.0133
19508W        W35692   1.085   3.927   4.735 -0.2925  0.0743  0.1078
19509W        W35693   0.625  13.637   1.382  0.1707  0.4384 -0.1056
19510W        W35694   7.542  16.118   4.036  0.0518 -0.0199 -0.2751
19511W        W35695   9.355  13.803   2.065 -0.1240  0.4982  0.0326
19512W        W35696   2.598   4.795   5.479  0.0674 -0.2364 -0.2445
19513W        W35697   3.855  18.484  11.601  0.0058  0.0745  0.0523
19514W        W35698  10.269   4.840  15.003  0.0870  0.2631 -0.1206
19515W        W35699   2.393   7.596  11.197  0.1244 -0.0935  0.0091
19516W        W35700  17.237  15.516  14.523  0.1514  0.2130  0.0689
19517W        W35701  18.764   8.588  11.400  0.4477 -0.2911 -0.1020
19518W        W35702  10.162  16.129   4.523  0.2005 -0.1398  0.0333
19519W        W35703   8.722   9.575  13.510  0.1987 -0.0157  0.1865
19520W        W35704  12.827  15.208   4.387  0.0522  0.0219 -0.0459
19521W        W35705   4.775   5.436   2.910 -0.3432 -0.1392 -0.1805
19522W        W35706  16.714   8.886  13.601  0.1147 -0.2860  0.0114
19523W        W35707  12.900   7.798   4.393  0.4004 -0.0985  0.1691
19524W        W35708  13.833  15.985   5.163  0.0340  0.1034  0.2016
19525W        W35709   0.584   8.300   1.029  0.0542  0.1551  0.1584
19526W        W35710   7.649   5.202   3.089  0.0713  0.0375 -0.1939
19527W        W35711   4.909  12.329  13.928 -0.1186 -0.3035 -0.1332
19528W        W35712  16.231   4.520  13.127  0.1465  0.1843  0.1473
19529W        W35713  15.403  11.557  10.970 -0.1049  0.1642 -0.0659
19530W        W35714   7.686   0.039  10.064  0.1084  0.0618  0.0912
19531W        W35715   9.520   4.073   1.874  0.1698  0.0602  0.0921
19532W        W35716   7.658  11.771   4.545  0.0938  0.3080 -0.0170
19533W        W35717   8.439   4.416  11.718 -0.0521 -0.0287 -0.1324
19534W        W35718  18.308  15.420  12.676  0.4542 -0.0316 -0.0547
19535W        W35719   1.791   9.525  13.937 -0.0426 -0.2813 -0.1700
19536W        W35720  11.110   1.249  10.546  0.1563  0.1880 -0.0038
19537W        W35721  11.423   2.977  13.307  0.0438  0.2142 -0.0191
19538W        W35722  14.948   6.184  14.247 -0.0223 -0.0624  0.2327
19539W        W35723   2.386   3.240  11.819  0.2837 -0.1858  0.1135
19540W        W35724  16.416   0.748   1.821  0.0535 -0.1051  0.0977
19541W        W35725   8.862  11.939   0.557  0.1914  0.0315 -0.2521
19542W        W35726  17.896   4.745  14.576  0.0827 -0.3819  0.0961
19543W        W35727   3.394  17.374  11.727 -0.0774 -0.0090 -0.0627
19544W        W35728  15.569  14.924   0.843  0.0110 -0.0440 -0.2828
19545W        W35729  18.146   5.547  11.762 -0.0829  0.0689 -0.0122
19546W        W35730  16.861  18.199  10.084  0.0487 -0.3396  0.2317
19547W        W35731   1.499  16.672  12.262 -0.2302  0.0608 -0.1529
19548W        W35732  12.289   9.959  13.520 -0.3656 -0.3516  0.1463
19549W        W35733  16.388   1.245   1.834 -0.0433 -0.0313 -0.1657
19550W        W35734   2.291   6.195  11.746 -0.0170 -0.0412 -0.0240
19551W        W35735   9.778  14.578  15.159 -0.1853  0.0979  0.1356
19552W        W35736   1.332   4.197  13.876  0.2922 -0.1177 -0.0526
19553W        W35737  12.816   7.331  12.101  0.0878  0.1772  0.1590
19554W        W35738  11.722   2.461  11.152 -0.2158 -0.1087  0.0741
19555W        W35739  15.666   2.998  10.790 -0.0624  0.0133 -0.1345
19556W        W35740   9.826   1.785  12.592 -0.0739 -0.1051 -0.1411
19557W        W35741  12.512  17.913   5.342 -0.0743  0.0799  0.0260
19558W        W35742   0.513   5.659   0.566 -0.5002 -0.1252  0.1372
19559W        W35743   5.050  10.514  12.288  0.1069  0.0193  0.2202
19560W        W35744   5.648  18.485   3.800  0.0104 -0.0162  0.2444
19561W        W35745   0.502  16.119  13.285  0.0109 -0.0183  0.3780
19562W        W35746   1.074  13.785  10.602 -0.3513  0.1390 -0.3150
19563W        W35747  11.410  14.930  11.895 -0.0443 -0.3602 -0.1048
19564W        W35748   4.152  17.102   0.916 -0.4763 -0.1239 -0.1960
19565W        W35749  11.693   8.152   5.354  0.3213  0.0585  0.0086
19566W        W35750  17.744  12.283  13.167 -0.0692  0.1929  0.1199
19567W        W35751  11.877   1.964   0.158 -0.2104 -0.0449 -0.0001
19568W        W35752  11.674   8.815  11.556  0.1860 -0.0604 -0.0903
19569W        W35753   3.515  16.327  14.301 -0.0596  0.2526  0.1704
19570W        W35754  14.092   6.570  13.440  0.0323  0.4701 -0.4543
19571W        W35755   9.888   3.314   2.801  0.0144  0.1776  0.2121
19572W        W35756  12.028   7.033  10.868  0.1089 -0.0263 -0.0208
19573W        W35757  15.447   3.128   1.005  0.0618  0.0392 -0.0019
19574W        W35758  17.920   0.867   1.011 -0.1306  0.2108 -0.3002
19575W        W35759   4.503   4.515  14.670  0.1555 -0.3414 -0.4206
19576W        W35760   2.975  12.251  14.276  0.1019  0.1627 -0.3595
19577W        W35761   9.049   1.846   2.041 -0.2143  0.2368  0.0510
19578W        W35762  10.235  13.640  15.032 -0.0405 -0.2175 -0.3639
19579W        W35763   5.657  14.131   2.895 -0.4506  0.2080  0.0640
19580W        W35764  11.652  16.678   4.643 -0.3531 -0.1706  0.2089
19581W        W35765  15.348   2.015   0.166  0.4235 -0.0702  0.2531
19582W        W35766  16.215  14.939  14.231 -0.0078 -0.0298 -0.1653
19583W        W35767   9.016   3.654  11.106 -0.0719  0.0954 -0.0902
19584W        W35768  15.623  11.331  13.638 -0.1297  0.0224  0.1287
19585W        W35769  15.494  14.455   4.503  0.3524  0.0129  0.0980
19586W        W35770   7.105  10.728   0.204 -0.3730 -0.2071 -0.2148
19587W        W35771   2.919  13.872   3.446  0.3073  0.3001  0.0003
19588W        W35772  14.722   8.043   3.083 -0.3334 -0.0861 -0.2534
19589W        W35773  15.058  15.831  14.762  0.3414 -0.2568 -0.5261
19590W        W35774  14.553  13.245   1.809 -0.0410 -0.1807  0.0649
19591W        W35775   9.268  14.173   3.669 -0.1673 -0.2953 -0.1509
19592W        W35776  10.498  17.914   9.391  0.0213  0.1363  0.1431
19593W        W35777  15.809   4.515  12.277  0.0498 -0.0053 -0.1889
19594W        W35778   5.013   1.615  10.229 -0.0037  0.0249 -0.0123
19595W        W35779   9.420   9.876  11.829 -0.0063 -0.0250 -0.0600
19596W        W35780  12.477   5.949   2.053 -0.1080 -0.3174  0.3366
19597W        W35781   5.517  12.473   1.011  0.2843 -0.1079 -0.0480
19598W        W35782  15.952  15.633   4.258  0.4801  0.2683  0.1169
19599W        W35783  11.611   9.769  11.163 -0.0822 -0.0251 -0.3413
19600W        W35784   9.012  18.001   0.516  0.2291  0.0564 -0.0716
19601W        W35785   4.064  13.847   3.976  0.0635 -0.2684  0.0317
19602W        W35786   9.233   8.304  14.413  0.0913  0.0257 -0.2817
19603W        W35787   1.844  17.808   5.526 -0.0401 -0.0650 -0.0174
19604W        W35788  11.288   1.185   0.819 -0.3943 -0.2405  0.1729
19605W        W35789   8.340   0.165   0.303  0.0089 -0.0268  0.3256
19606W        W35790   3.809   3.748   5.151 -0.0863 -0.2453  0.2674
19607W        W35791   6.413   9.715   5.132 -0.1628 -0.3035  0.0244
19608W        W35792  14.019  18.603  13.664  0.1041 -0.0064  0.0382
19609W        W35793   1.791   1.759  13.892  0.0337  0.1103 -0.0910
19610W        W35794  16.338   8.938   0.649 -0.2069  0.3200 -0.2762
19611W        W35795  17.682   0.328   0.419  0.1632  0.1638  0.2819
19612W        W35796   9.244  13.953   3.214  0.1202 -0.0212 -0.0134
19613W        W35797  14.702   1.565  14.991 -0.1032 -0.2930  0.1512
19614W        W35798   1.636  16.540   0.928  0.0016 -0.0569  0.0450
19615W        W35799  12.579  13.064   1.398  0.1454 -0.0702  0.2254
19616W        W35800   4.629   9.983  13.538 -0.0692  0.3941  0.0958
19617W        W35801   3.142   5.670  12.406 -0.3104  0.0844 -0.0220
19618W        W35802   2.059   5.197  14.252 -0.0620 -0.1798  0.0224
19619W        W35803   8.906  16.526  14.696  0.1179  0.4625  0.0442
19620W        W35804  10.035   9.064  13.694 -0.0070 -0.2108 -0.1481
19621W        W35805  15.845  17.512  13.487 -0.1681  0.1318 -0.0434
19622W        W35806  14.504  13.507  14.877  0.0653 -0.0010  0.0145
19623W        W35807   3.415   0.366   0.706  0.0033 -0.2030 -0.1158
19624W        W35808   0.383  16.487  13.605 -0.0801  0.0899  0.1436
19625W        W35809  11.468  13.304  13.571  0.2956 -0.3356  0.1733
19626W        W35810  15.090   3.753   3.132 -0.0453 -0.2539  0.0032
19627W        W35811  17.534   2.849  11.043 -0.1291  0.0886  0.0685
19628W        W35812   3.702  11.983   2.981 -0.0018 -0.0654  0.1184
19629W        W35813  12.508  15.451  10.701 -0.1312  0.2213 -0.1091
19630W        W35814  11.296   3.757   0.747  0.2231 -0.2767 -0.2401
19631W        W35815   1.876   4.698  14.495 -0.1675  0.0550  0.0722
19632W        W35816  15.656  17.331   3.822 -0.2501 -0.1120  0.3437
19633W        W35817  13.631  17.549  14.720  0.0305 -0.1031 -0.1040
19634W        W35818  13.705   1.653  11.225  0.1629  0.0905 -0.3226
19635W        W35819   7.465   3.191   2.008 -0.1276  0.0112  0.1902
19636W        W35820   6.562   2.026   2.558  0.2753  0.1061 -0.0330
19637W        W35821   9.302  18.638  14.011 -0.1954  0.3764 -0.0385
19638W        W35822   2.433   7.593   4.513 -0.0061  0.3718 -0.5056
19639W        W35823   7.584  10.471  14.151 -0.0226 -0.0809  0.0024
19640W        W35824   0.732  14.213  12.461 -0.1356  0.0671  0.1828
19641W        W35825   9.043  16.483  12.100  0.1600 -0.2036 -0.3797
19642W        W35826   0.772   5.058  11.077 -0.1928  0.0632 -0.1939
19643W        W35827   2.966   6.013   2.323 -0.2289 -0.0180 -0.0809
19644W        W35828  12.649  13.744  14.128  0.0703  0.0804 -0.2341
19645W        W35829   9.464  14.881   1.290  0.1542  0.4192  0.1149
19646W        W35830   3.632  11.385  12.823  0.0877 -0.3539 -0.0970
19647W        W35831   1.765  14.497   1.619  0.2699 -0.1450  0.0984
19648W        W35832  13.213   4.904  12.948 -0.1633  0.2343  0.0142
19649W        W35833   4.737  11.712   4.846  0.0678  0.2523  0.1836
19650W        W35834  17.271   0.956   0.037 -0.0861  0.2149 -0.1556
19651W        W35835   3.362   0.439   4.716  0.2079  0.2659  0.0685
19652W        W35836   5.357  18.488  10.955 -0.2673  0.0549 -0.1781
19653W        W35837   6.865   1.340  11.013  0.3114 -0.1193  0.2353
19654W        W35838   1.257   5.677   2.792  0.1506 -0.1292 -0.1931
19655W        W35839   7.374  13.098   5.425  0.0608  0.1057 -0.1077
19656W        W35840  18.670   7.286  13.903  0.1377  0.0216 -0.0285
19657W        W35841  12.078   1.088  12.300 -0.0551  0.1595  0.0395
19658W        W35842   5.267   5.614  11.820 -0.1847  0.2519  0.3405
19659W        W35843   3.135   4.102   4.902 -0.2972  0.2380 -0.2372
19660W        W35844   4.198   0.951   4.086 -0.1680 -0.4389 -0.0898
19661W        W35845   4.695  16.304   2.843  0.0241  0.0420 -0.0488
19662W        W35846   8.252   6.860  11.452  0.1462  0.0524 -0.3001
19663W        W35847  17.743   5.880   2.886 -0.1941 -0.0059  0.0501
19664W        W35848   5.645  18.918  12.243 -0.0356 -0.1582  0.2882
19665W        W35849  14.278  18.304   2.150 -0.1352 -0.0368 -0.0011
19666W        W35850  15.774   9.366  11.243  0.2193 -0.0341 -0.0045
19667W        W35851   1.190   7.496  15.039  0.0465  0.1072 -0.0869
19668W        W35852   9.426   3.906   0.198 -0.0127  0.4029  0.0003
19669W        W35853   2.139  11.960   0.562  0.1482  0.1620 -0.2611
19670W        W35854   9.055   6.994  12.872  0.1803  0.2439 -0.1147
19671W        W35855  10.063   0.717  12.675 -0.1519 -0.0950 -0.1447
19672W        W35856  16.696  18.209  13.432  0.0440  0.1172  0.0512
19673W        W35857   9.392   0.491   1.416 -0.0286  0.2285  0.2524
19674W        W35858   9.448  18.781   4.750  0.1222 -0.1811  0.3357
19675W        W35859   3.048   5.025   5.781 -0.0376  0.0452  0.0184
19676W        W35860  16.429   1.006   3.633 -0.0874  0.4292  0.2490
19677W        W35861  12.038  11.187  12.290  0.1820 -0.1267 -0.0151
19678W        W35862   6.785  12.771  14.199 -0.0486 -0.0819  0.1929
19679W        W35863  17.596  14.516   1.398 -0.0428 -0.2809 -0.0043
19680W        W35864  11.202  18.248   3.484 -0.0565  0.0873 -0.2157
19681W        W35865  16.919   9.020  12.766 -0.0154  0.2110 -0.0328
19682W        W35866   0.771   6.571   1.437  0.1359 -0.1760  0.2429
19683W        W35867  15.230   6.561  14.810 -0.1554 -0.1282  0.0726
19684W        W35868  18.073   1.431  14.620  0.0287  0.3478  0.1055
19685W        W35869   7.496  17.467   0.906 -0.1980  0.0480  0.0551
19686W        W35870  11.185   9.218   3.450 -0.1851 -0.2681  0.3190
19687W        W35871   8.166   0.581  13.014 -0.3845  0.1831  0.2896
19688W        W35872   3.162   6.473  11.401 -0.3176  0.0387  0.0844
19689W        W35873  12.103   1.256   5.050 -0.1773 -0.0208  0.0576
19690W        W35874  12.779  10.832   5.909  0.2461  0.4457  0.4150
19691W        W35875   5.822  11.778  14.402 -0.1355  0.2652  0.0006
19692W        W35876  10.779  15.859   1.262  0.1288  0.2232  0.1881
19693W        W35877   3.079  13.079  11.589  0.0167 -0.0935 -0.1552
19694W        W35878   8.022   2.193   3.287  0.0682  0.1679  0.0612
19695W        W35879  18.859   8.018   4.710 -0.0895  0.0760 -0.2682
19696W        W35880   9.975   1.843  11.402 -0.2708  0.1302 -0.2976
19697W        W35881  17.367   7.952   1.536 -0.2450  0.0250  0.2586
19698W        W35882  13.800   5.804  13.197 -0.1038  0.3710 -0.3952
19699W        W35883   0.550  14.074   2.503  0.0143  0.1028  0.3301
19700W        W35884  15.601   9.878   0.971  0.1752  0.0126 -0.0120
19701W        W35885  18.875   8.790   1.072  0.0331 -0.0822 -0.3039
19702W        W35886   6.779   4.721  13.790  0.1480 -0.3135 -0.0807
19703W        W35887   7.726  18.636   4.679  0.0600  0.0904 -0.2962
19704W        W35888   0.112  13.349   1.354 -0.3174 -0.0808  0.0189
19705W        W35889  13.969   0.825  13.565 -0.2378 -0.3335 -0.1131
19706W        W35890  12.468  10.190   5.378  0.1500 -0.2827 -0.2653
19707W        W35891   1.066   7.446   1.256  0.0512  0.1127  0.3485
19708W        W35892  10.523   8.606   5.313 -0.1351 -0.0479 -0.0068
19709W        W35893   0.206  15.399   5.092 -0.1541  0.1847 -0.1471
19710W        W35894  15.091  12.516   3.841  0.3220 -0.0714  0.0623
19711W        W35895   4.166  13.095  10.918 -0.0227 -0.2189  0.0214
19712W        W35896   7.686   9.016  15.318  0.0130  0.0084 -0.2089
19713W        W35897  17.105  10.099   1.935 -0.0706  0.2742 -0.2482
19714W        W35898   7.026  13.892   2.432 -0.1074 -0.2255 -0.2752
19715W        W35899  14.506   7.100  13.741 -0.0720  0.3588 -0.0049
19716W        W35900  13.378  17.930   4.833  0.0116  0.2252 -0.0776
19717W        W35901  11.230  11.896  15.123 -0.3709 -0.2032  0.1290
19718W        W35902   3.159  18.460   3.724 -0.0975 -0.1438  0.0472
19719W        W35903  10.847   3.607  11.171 -0.1575  0.0416 -0.2572
19720W        W35904   5.591  11.458  14.848  0.2503  0.0468  0.1004
19721W        W35905   3.540   6.255   0.250  0.1736  0.0048 -0.0828
19722W        W35906  14.017  16.518   4.568 -0.4597 -0.0063  0.0181
19723W        W35907   1.110  18.501   9.823  0.4426 -0.1481  0.0745
19724W        W35908  10.046   0.012   0.782 -0.2301 -0.2720  0.1731
19725W        W35909   8.403  13.383   4.360 -0.4253  0.0844  0.1745
19726W        W35910  11.655  17.567   0.122 -0.1070 -0.1879 -0.0010
19727W        W35911  10.888   8.298   2.257 -0.1075  0.0958 -0.0921
19728W        W35912   8.591   9.471  12.903 -0.0550  0.2130  0.0358
19729W        W35913   6.376  14.574  10.611 -0.0327  0.3098 -0.2773
19730W        W35914   2.451  10.309  11.339  0.2129 -0.3865  0.1632
19731W        W35915  16.923  12.669   3.174  0.0217  0.0944  0.1639
19732W        W35916   7.526  18.568   0.761 -0.0161  0.3612 -0.0584
19733W        W35917  18.366   5.137   2.828  0.0679 -0.2199  0.0006
19734W        W35918   1.094   0.834   2.863 -0.0287  0.0486  0.0446
19735W        W35919  17.108   8.627   1.374 -0.0494  0.1093  0.0094
19736W        W35920  12.500   6.581   0.214  0.1498 -0.1075 -0.0279
19737W        W35921   3.430   0.110   5.139 -0.0847  0.0477  0.0613
19738W        W35922  13.546   4.411   0.098  0.0675 -0.1069 -0.0519
19739W        W35923   8.744   9.936  12.887 -0.0222 -0.0626 -0.0250
19740W        W35924  15.388  10.491  12.570  0.0927 -0.4918  0.0707
19741W        W35925  12.570   2.419  11.522  0.1431 -0.3902  0.0632
19742W        W35926   0.941   7.879   0.928  0.1835  0.0720  0.1274
19743W        W35927  10.089  18.888  15.102 -0.1058  0.1140  0.1898
19744W        W35928   7.778   0.226  12.278 -0.1726  0.0355  0.2074
19745W        W35929  14.509   7.006   1.964  0.3351 -0.1319 -0.2735
19746W        W35930  10.647   0.527   2.908  0.0325  0.2343 -0.3141
19747W        W35931   5.763   4.980  12.102 -0.1174  0.3274 -0.0978
19748W        W35932   8.380   8.526  13.902 -0.3079  0.2234 -0.0593
19749W        W35933   1.286  11.216  15.041 -0.0593 -0.1002 -0.4947
19750W        W35934  15.824  17.049  14.494  0.1524 -0.2252  0.1210
19751W        W35935  10.603  17.718   5.073 -0.0033  0.0869 -0.0403
19752W        W35936   0.995   6.946   4.863  0.0307 -0.2202 -0.1962
19753W        W35937  18.608   4.158   1.438 -0.0499 -0.1698  0.1235
19754W        W35938   6.119   3.600  13.570 -0.1285  0.2545 -0.3077
19755W        W35939   5.432   9.295   0.247  0.0626 -0.2038  0.1171
19756W        W35940   6.799  17.933   5.171 -0.0612  0.1408 -0.1742
19757W        W35941   0.793   6.500  14.034 -0.0529 -0.1449 -0.1275
19758W        W35942  10.508   3.332   0.781  0.1588  0.3588  0.1070
19759W        W35943   0.073   3.188   5.097 -0.0721  0.2117  0.0995
19760W        W35944  12.490   5.442  12.568 -0.0539 -0.3130 -0.2777
19761W        W35945   7.724  16.208  10.569 -0.0393  0.1897  0.0331
19762W        W35946   5.984   2.267  11.342  0.2173  0.0373 -0.0381
19763W        W35947  15.131  14.815   3.227 -0.2070 -0.0084  0.0233
19764W        W35948  14.008   9.284  10.633 -0.1144  0.1460  0.1646
19765W        W35949  10.051   2.766   2.490  0.1720 -0.4139 -0.5278
19766W        W35950  13.700   3.291  11.220 -0.3151 -0.2819  0.1733
19767W        W35951   1.725   3.866   0.194  0.3267 -0.0099  0.1183
19768W        W35952  12.444  12.900   0.823 -0.0536 -0.0589  0.1263
19769W        W35953   6.113   6.136  12.443 -0.1490  0.2882  0.0542
19770W        W35954   0.246   6.189   5.435 -0.0382 -0.3304  0.2181
19771W        W35955  16.955  12.478   1.570 -0.4941  0.1005  0.0017
19772W        W35956   6.684  16.387   3.952 -0.1973 -0.4353 -0.2795
19773W        W35957   0.509   2.788   1.213  0.1709 -0.0462  0.0100
19774W        W35958   0.942   6.040  10.789  0.1211  0.1942 -0.1600
19775W        W35959   0.490  16.354   3.303  0.0539 -0.1439 -0.1530
19776W        W35960   7.017  15.704  14.134 -0.3923 -0.4697 -0.1677
19777W        W35961  10.380   8.715   0.562  0.0226 -0.0186 -0.0874
19778W        W35962  11.476  13.789  15.173 -0.2517 -0.1654 -0.1582
19779W        W35963  15.600   7.655   1.217 -0.1663  0.3958  0.2263
19780W        W35964  10.694  12.126   4.122  0.1019  0.0302  0.1808
19781W        W35965  11.913   0.508   2.963 -0.1867 -0.0605 -0.0027
19782W        W35966   6.345  17.361  14.418  0.1435 -0.1346  0.1963
19783W        W35967   2.177   1.576   0.908 -0.2775 -0.3602  0.0910
19784W        W35968   3.398   1.191   3.029  0.0297 -0.2214  0.0712
19785W        W35969   4.222  17.617  11.249  0.0201 -0.0765  0.0681
19786W        W35970  16.727  10.262  14.632  0.1030  0.2417  0.3172
19787W        W35971   5.095  18.026   0.417  0.2391  0.1729 -0.0976
19788W        W35972  16.163   5.535  14.595  0.2571 -0.2375  0.2296
19789W        W35973  10.159  11.589  10.944 -0.2084 -0.0838 -0.0596
19790W        W35974   5.975  14.468   2.779  0.2186 -0.0906  0.2644
19791W        W35975   3.561  17.799  11.901  0.3323  0.0459 -0.0334
19792W        W35976   9.352  16.078  10.755 -0.2256 -0.1148  0.0266
19793W        W35977  15.016   9.772  12.964  0.1918  0.0123  0.3549
19794W        W35978  16.471  12.551  12.808 -0.0228 -0.1910  0.0210
19795W        W35979   9.179  18.155  12.715  0.0104  0.2642 -0.0781
19796W        W35980   2.986   7.151  12.884  0.0751 -0.0702  0.2129
19797W        W35981   8.327  12.239  10.426 -0.0492  0.2843  0.1811
19798W        W35982  15.248  18.836  10.999 -0.3935  0.2859 -0.2271
19799W        W35983  15.354   1.051  13.732 -0.1613 -0.2600  0.3108
19800W        W35984   6.757  12.594  13.195 -0.3227 -0.2180 -0.0114
19801W        W35985  17.796   4.632  10.854  0.0335  0.2499  0.3761
19802W        W35986  10.598  15.325  14.849  0.1951 -0.2271  0.4379
19803W        W35987   3.537   2.406   5.891  0.0062 -0.3576 -0.0092
19804W        W35988  17.114  11.884   2.776 -0.0403  0.0725  0.0941
19805W        W35989  11.696   7.185  11.312  0.2107  0.3822 -0.1774
19806W        W35990  12.062   1.741   3.134 -0.0460  0.2278  0.2205
19807W        W35991   9.580   7.911   0.439 -0.1750  0.0885  0.2086
19808W        W35992  11.398  11.860  14.652  0.0509  0.1809  0.3693
19809W        W35993  17.259  11.204   1.786  0.1272 -0.2282 -0.0088
19810W        W35994  11.672   5.672  10.843 -0.0932 -0.0141 -0.2125
19811W        W35995  12.016   0.585   4.626  0.1642  0.0754 -0.2757
19812W        W35996   9.101  13.694  13.467  0.1829 -0.0444 -0.3311
19813W        W35997   7.451  18.938  11.060 -0.0481 -0.2301 -0.1714
19814W        W35998   4.736  10.301   5.566 -0.1043 -0.0857  0.0087
19815W        W35999  10.247  15.355   2.562 -0.1660 -0.0063 -0.0017
19816W        W36000   9.966   9.158  13.034  0.0334  0.1401  0.1095
19817W        W36001  12.451  13.907  11.419 -0.0399  0.1295 -0.5467
19818W        W36002  10.720  14.093   1.427  0.0946  0.0924 -0.2986
19819W        W36003  17.591  17.446  11.549  0.2481 -0.1636  0.0359
19820W        W36004  10.998  15.454   1.642 -0.0027 -0.3581  0.4396
19821W        W36005  18.565   3.288  13.812  0.0332  0.0042 -0.0879
19822W        W36006  15.163   7.196   2.638 -0.0186  0.0018 -0.2815
19823W        W36007   8.613  17.323   5.304 -0.1234 -0.0799 -0.0947
19824W        W36008   5.878  14.949  12.154  0.4364  0.4293  0.1732
19825W        W36009  16.056   1.843  14.071 -0.0083 -0.2700 -0.0704
19826W        W36010   6.711  13.732   4.278 -0.0915  0.0650 -0.1172
19827W        W36011  16.819  14.235   0.279  0.0884  0.1125  0.1226
19828W        W36012   0.778   6.739  12.409 -0.2702  0.0770  0.2693
19829W        W36013   3.358  16.349   3.828  0.2103  0.1215 -0.0111
19830W        W36014   7.227   4.514   5.221  0.2607  0.0132 -0.2972
19831W        W36015  13.709  18.961   1.319  0.0446  0.2212  0.1587
19832W        W36016  18.184  15.070   0.618  0.4051 -0.1250  0.1154
19833W        W36017   5.597  14.503   1.821  0.3810 -0.1907 -0.0771
19834W        W36018  16.497  11.050  12.064 -0.0497  0.1291 -0.0360
19835W        W36019   3.683   7.192   2.808  0.0366  0.0003  0.1828
19836W        W36020   2.015   8.709   0.142  0.0424 -0.0954 -0.1628
19837W        W36021   9.363   2.272   0.400  0.1582  0.4273 -0.2093
19838W        W36022  14.109   2.321  14.698  0.4177 -0.0483  0.0530
19839W        W36023   2.129   3.069   2.038 -0.0003 -0.2404  0.0261
19840W        W36024   4.463   8.772   2.260 -0.2348 -0.0112 -0.2193
19841W        W36025   5.481   0.026   3.864  0.1277 -0.2951  0.1784
19842W        W36026   9.933  17.135  14.537  0.0380  0.0664 -0.2072
19843W        W36027   3.364   0.085  12.927  0.0947  0.1215 -0.3082
19844W        W36028   1.546  18.439   2.595 -0.3601  0.3648 -0.1842
19845W        W36029  14.292  16.936   5.205 -0.0371 -0.0289 -0.0107
19846W        W36030   3.513   1.509  13.738  0.3498  0.3575 -0.0147
19847W        W36031   6.749   5.432   0.670 -0.3093 -0.0039  0.0540
19848W        W36032   9.734  15.538   2.677 -0.0050 -0.0175 -0.0270
19849W        W36033  12.136   0.892   3.756 -0.0978  0.2286  0.2924
19850W        W36034   8.422   8.722   5.106  0.1495 -0.0034 -0.0455
19851W        W36035  17.945   3.831   0.089 -0.1915  0.0359 -0.0182
19852W        W36036  16.262  10.480  14.766 -0.2273  0.1926 -0.1406
19853W        W36037   3.344  17.201   0.428 -0.3614 -0.1449  0.1817
19854W        W36038   0.051   7.260  12.649 -0.0881  0.2103 -0.0485
19855W        W36039  14.372   8.149  14.986 -0.2547 -0.2038  0.1932
19856W        W36040   0.749  14.431   2.162 -0.0425  0.1068 -0.1418
19857W        W36041  11.973   4.463   4.390  0.3245 -0.1400 -0.0274
19858W        W36042  12.692  14.387   4.663 -0.5055  0.0458  0.1305
19859W        W36043  17.205  11.659   2.345 -0.1393  0.1082 -0.4287
19860W        W36044  16.852  11.335   4.201 -0.2081  0.2127 -0.0792
19861W        W36045   8.129   7.482   1.611 -0.1861 -0.1024 -0.0768
19862W        W36046   8.830  16.965  12.205 -0.0158 -0.0854 -0.2962
19863W        W36047   1.318  11.486   0.147 -0.0660 -0.1080 -0.1351
19864W        W36048   5.802  11.935   0.222 -0.2037 -0.1833  0.0716
19865W        W36049   9.180  10.547  12.945 -0.2700  0.1696 -0.2510
19866W        W36050  10.704  15.318  10.465  0.1500 -0.0139 -0.1965
19867W        W36051   3.287  13.943  13.775 -0.1927  0.0528  0.1254
19868W        W36052   6.658  16.392   2.768  0.3350  0.0628  0.1333
19869W        W36053   9.247  10.540  14.313 -0.2351  0.1568 -0.2809
19870W        W36054  14.119  15.487  13.222 -0.4052  0.2726  0.0449
19871W        W36055   7.669   0.657   4.707  0.1820  0.3696 -0.1163
19872W        W36056  16.106   5.372  13.020 -0.0774 -0.0059 -0.0396
19873W        W36057   2.466   5.395   4.512 -0.1004  0.1832 -0.0349
19874W        W36058   9.843   5.593   1.017  0.2370  0.2105  0.0799
19875W        W36059  10.864   7.248  11.186  0.0208  0.1816  0.2762
19876W        W36060  16.444   6.040   2.184 -0.0433 -0.0319  0.3267
19877W        W36061  11.357   0.125  15.264 -0.4757 -0.0386 -0.0972
19878W        W36062  10.100   5.678   4.234 -0.2376  0.0817  0.2043
19879W        W36063  18.000   2.799  10.838  0.3144  0.2135 -0.1442
19880W        W36064   8.479   0.746  10.684 -0.1021  0.2142  0.4769
19881W        W36065   0.688   7.326  15.195  0.2620 -0.0762  0.1271
19882W        W36066   3.040   4.435   5.338  0.2103 -0.1126 -0.0912
19883W        W36067  11.419   9.809   4.506 -0.0248 -0.0168  0.1219
19884W        W36068   4.088   3.009   0.736  0.0313 -0.0744 -0.0636
19885W        W36069   3.973   6.691   3.547  0.0835 -0.0861 -0.0213
19886W        W36070   4.098  15.891  13.354  0.0659 -0.0171 -0.0608
19887W        W36071   1.750   6.851  14.989 -0.0264  0.1739  0.0666
19888W        W36072   6.800   5.839   3.384 -0.1454  0.2492  0.4052
19889W        W36073   5.494  17.564  11.807 -0.1209  0.1470  0.0942
19890W        W36074   9.565   9.536   1.142 -0.1148 -0.2417 -0.0687
19891W        W36075  10.946   9.873  13.104 -0.0050 -0.0457  0.1905
19892W        W36076   0.976   8.320   5.350  0.2198 -0.0749  0.0001
19893W        W36077   5.887   0.276   0.973 -0.1850 -0.0954 -0.0551
19894W        W36078   8.338   1.798   2.364 -0.3644 -0.3312  0.0704
19895W        W36079   5.137   6.713   5.467 -0.1723  0.3099 -0.0982
19896W        W36080   3.853  13.953  15.244 -0.0227  0.0563 -0.0103
19897W        W36081  12.377  14.843   0.609  0.1630  0.0504 -0.1552
19898W        W36082  11.560  17.220  14.841  0.0261  0.0997 -0.0110
19899W        W36083  17.264  11.302   5.061 -0.0075  0.0436  0.0518
19900W        W36084  13.129   0.988  14.228 -0.3979  0.2583  0.0326
19901W        W36085   6.180   2.965   1.806 -0.3257  0.3793  0.1171
19902W        W36086  16.206   6.955   3.478  0.3546 -0.0485 -0.1321
19903W        W36087  12.306   0.875   4.317 -0.1419  0.0537  0.1979
19904W        W36088  12.655   2.893   0.404  0.1715 -0.2613 -0.0593
19905W        W36089  16.594  16.220   0.018  0.1239 -0.0012  0.2452
19906W        W36090   3.768  17.177  14.227  0.2485 -0.1566  0.1472
19907W        W36091   7.133  16.134   2.479  0.0830 -0.1559 -0.4783
19908W        W36092   5.888  17.178  14.597 -0.3364  0.1082  0.2383
19909W        W36093  11.953  11.591  10.791  0.0450  0.3636 -0.2179
19910W        W36094   1.487  10.047   0.754 -0.2621  0.1158 -0.1294
19911W        W36095  13.627  12.447   0.971 -0.0706  0.2864 -0.2165
19912W        W36096  14.705   2.962  14.565 -0.3023 -0.1142 -0.1777
19913W        W36097   8.168  16.692   3.130  0.0510  0.4466 -0.3963
19914W        W36098   4.142  18.249   0.204  0.0469 -0.0342  0.1126
19915W        W36099   2.837   8.318   3.902  0.0276 -0.1292  0.2008
19916W        W36100  13.819   7.284   3.443 -0.0306 -0.0020 -0.2149
19917W        W36101   6.091  15.773   5.530  0.0610 -0.0433  0.4573
19918W        W36102   0.637  11.245  11.135  0.4479 -0.1075 -0.0571
19919W        W36103   0.097  17.923  11.348  0.3093  0.2050 -0.0023
19920W        W36104   8.980   3.907   4.663  0.0517  0.0489 -0.1512
19921W        W36105   5.782  11.153  10.652 -0.1103  0.0353  0.1671
19922W        W36106   3.754   5.025   1.941  0.0820 -0.0124 -0.0483
19923W        W36107   1.522  12.467   0.016 -0.1536 -0.2555  0.2025
19924W        W36108   8.056  14.950   1.884  0.0275  0.2082 -0.0153
19925W        W36109   2.857  17.718   1.167  0.2117  0.1977  0.2825
19926W        W36110   2.022  13.503   0.797  0.1656 -0.1341 -0.1648
19927W        W36111   5.614  14.984   1.943  0.3595  0.1737 -0.1833
19928W        W36112   5.477   2.248   2.650 -0.1416  0.2595  0.3446
19929W        W36113  16.602   7.670   3.336  0.1581  0.0322  0.1538
19930W        W36114   9.307  11.439  13.960  0.0680  0.3435 -0.0466
19931W        W36115   3.342  10.762   1.624  0.0473  0.0411 -0.3088
19932W        W36116   5.153   8.530  14.515 -0.2087 -0.0172 -0.0622
19933W        W36117   3.011   8.052   0.376  0.0359  0.0278  0.3164
19934W        W36118  11.035   7.176   2.729  0.0209  0.1734 -0.0419
19935W        W36119  12.334   9.130  12.273 -0.1758  0.0543 -0.0172
19936W        W36120   2.458  13.684   3.303  0.2132 -0.0565  0.0860
19937W        W36121  14.294  17.110   4.030  0.1713  0.0764  0.2473
19938W        W36122  15.112   0.127   3.666 -0.0698 -0.0077  0.3486
19939W        W36123  15.783   2.369  13.259 -0.0695  0.2320 -0.0764
19940W        W36124  18.748   2.702   0.803 -0.0789  0.1339 -0.1066
19941W        W36125  17.512   3.597   2.777  0.0190 -0.0391  0.1168
19942W        W36126   7.630   3.331   2.922  0.0449 -0.0493  0.0742
19943W        W36127  11.718   1.340  14.861  0.2530 -0.1957 -0.0222
19944W        W36128  12.637  15.415   4.925  0.0886  0.3819  0.4094
19945W        W36129   3.758  14.325  11.407  0.2117 -0.0095  0.2456
19946W        W36130   0.673  14.507   4.772 -0.2777 -0.0587 -0.0114
19947W        W36131   0.610  18.710   2.839 -0.1529  0.1882  0.2935
19948W        W36132   6.934  10.714   2.286  0.3911  0.1151 -0.0500
19949W        W36133   7.364  12.924  11.354 -0.1424 -0.0900  0.2364
19950W        W36134   2.402  11.391  14.253 -0.2438  0.0866  0.0061
19951W        W36135   8.376   9.990  14.836  0.2233  0.4324  0.1841
19952W        W36136   1.968   1.109  12.649 -0.1308  0.1605  0.1526
19953W        W36137   1.851   2.285  13.815 -0.0965 -0.3038 -0.2039
19954W        W36138  12.990  14.244   2.848  0.0627  0.0986 -0.0933
19955W        W36139  11.140   9.124   4.539  0.0425 -0.0604  0.1716
19956W        W36140  18.388   5.841  15.018  0.3525  0.2720 -0.4256
19957W        W36141  15.833  17.043  10.796  0.1145  0.2036  0.0690
19958W        W36142   0.728  13.666  12.337  0.4114  0.3981  0.1040
19959W        W36143   8.518  17.721   2.065  0.1134  0.3633  0.3029
19960W        W36144   1.135   0.557   6.006 -0.0176 -0.0736  0.1124
19961W        W36145  10.143   6.851  15.303 -0.0830 -0.0787  0.1037
19962W        W36146  15.135   5.588   0.328 -0.0574  0.2826  0.1702
19963W        W36147   9.862  15.353  13.512  0.3085  0.0681  0.0532
19964W        W36148   7.429  15.184  11.334  0.3371  0.1404 -0.5031
19965W        W36149   2.519   2.587   0.861  0.0063 -0.2815  0.0950
19966W        W36150   9.759  12.846   1.789 -0.0333  0.2197  0.1818
19967W        W36151  11.186   3.705   1.557  0.0453 -0.0668  0.3264
19968W        W36152   9.750  15.195   3.344 -0.2485 -0.2324 -0.4766
19969W        W36153  16.992   1.511   2.438  0.0048  0.1880  0.0839
19970W        W36154   4.188  17.239   3.337  0.0130 -0.1855 -0.1975
19971W        W36155   9.520  14.524  13.030 -0.0822  0.0582 -0.0287
19972W        W36156  15.025   2.216   4.351  0.2021 -0.0526 -0.1242
19973W        W36157  16.178  13.669   4.593  0.0502  0.2109 -0.0093
19974W        W36158   2.365  10.433  15.104 -0.0799 -0.0481  0.1137
19975W        W36159   1.433  17.056  12.998  0.3137 -0.0563  0.2538
19976W        W36160  18.099  17.650   3.181  0.2676 -0.2436 -0.0756
19977W        W36161   8.210  10.317   5.420 -0.0580  0.0064  0.2212
19978W        W36162   2.426   7.738   1.316  0.0151 -0.1569 -0.0929
19979W        W36163   0.538   3.761   3.574 -0.1046  0.1050  0.1713
19980W        W36164   6.203   3.959  12.289  0.1952 -0.3366  0.0204
19981W        W36165  14.549  14.668   0.125  0.1497 -0.1573 -0.1914
19982W        W36166  16.329  10.953  14.672 -0.0691  0.1974  0.0218
19983W        W36167  18.658  18.842   3.083 -0.0983  0.1629 -0.1607
19984W        W36168   9.722   2.056  13.015  0.2500  0.1531 -0.3676
19985W        W36169  16.324  13.538   9.791 -0.1100 -0.1275 -0.0221
19986W        W36170  18.149   7.018  12.431 -0.2990 -0.1756  0.0553
19987W        W36171  17.725   7.764  10.982 -0.2972 -0.1055 -0.1299
19988W        W36172  16.765  16.196  11.794  0.1089  0.1434  0.0139
19989W        W36173   1.922   3.198   0.708 -0.0393 -0.3464  0.0224
19990W        W36174  12.375   1.260   0.676  0.1228  0.3305  0.0200
19991W        W36175  15.158  14.512   3.646  0.1948 -0.1647 -0.1304
19992W        W36176   9.138  17.964   2.668  0.1156  0.1904  0.2709
19993W        W36177   2.010  12.513  13.560  0.3445  0.4314  0.0877
19994W        W36178   8.591  16.734  12.563 -0.0438  0.1743  0.1465
19995W        W36179  13.338  10.736  13.613 -0.3549 -0.0364  0.2571
19996W        W36180  12.962   1.041  11.421 -0.0506  0.1065  0.2911
19997W        W36181   5.234  11.833  11.417  0.5131 -0.0276  0.3142
19998W        W36182  14.951   1.045  10.415 -0.0214 -0.1186  0.0344
19999W        W36183   4.831   5.777   5.571  0.0407  0.1451 -0.3206
20000W        W36184  17.499   6.453  11.172 -0.1014 -0.0004 -0.0792
20001W        W36185  11.703  14.772   3.727 -0.1855 -0.1082  0.0305
20002W        W36186   3.857   0.969   1.328 -0.1679 -0.0183 -0.0384
20003W        W36187   1.614  15.368   3.482 -0.1541  0.0526 -0.1066
20004W        W36188   8.486   9.392   5.542  0.0983 -0.1177  0.1964
20005W        W36189   5.273  17.636   0.913 -0.0066  0.1195 -0.0969
20006W        W36190  13.422   8.232   5.467 -0.1321 -0.2486  0.1645
20007W        W36191   3.485  11.059   4.465  0.0862  0.0772  0.2245
20008W        W36192   2.360   5.889  12.673 -0.1393 -0.1013  0.1409
20009W        W36193  13.892   2.566  13.552 -0.4723  0.0436  0.2961
20010W        W36194   5.260   8.932   3.168 -0.1730 -0.0828 -0.2248
20011W        W36195   5.609  18.992  11.651  0.2164 -0.2717  0.0428
20012W        W36196   1.600  12.587   0.823 -0.1545 -0.0426 -0.0506
20013W        W36197   6.548  13.678  12.218  0.0561  0.1431  0.2066
20014W        W36198  12.167   2.113  15.058  0.2944 -0.3690  0.2101
20015W        W36199   5.398  11.702  12.573  0.1515 -0.2816 -0.1535
20016W        W36200   0.855  14.614  14.891 -0.0019 -0.0519  0.1735
20017W        W36201  17.311   6.731   2.658 -0.0862 -0.2158  0.1031
20018W        W36202  17.930  15.550   0.719 -0.3364  0.1094 -0.2245
20019W        W36203  13.690  17.752   3.839  0.4946 -0.0596 -0.1640
20020W        W36204  14.532  14.187  11.725  0.0477 -0.3057  0.3486
20021W        W36205   7.132  13.542   2.102  0.0533  0.0712  0.2468
20022W        W36206  15.173  15.264   1.746 -0.1819 -0.0266 -0.0818
20023W        W36207  15.862  18.688  12.887  0.1477 -0.0878  0.0900
20024W        W36208   9.812   0.018   1.993  0.3231  0.1400  0.1190
20025W        W36209  17.624  12.646   0.778  0.1806 -0.4559  0.0729
20026W        W36210   2.735   4.572   2.869  0.2695  0.1843 -0.2314
20027W        W36211  18.400  17.278  14.047  0.0174  0.3826  0.0741
20028W        W36212   6.990  15.725   2.774  0.0395  0.1916 -0.1220
20029W        W36213   7.863  18.990  14.572  0.4981 -0.0992  0.1168
20030W        W36214  10.293  16.811   2.008 -0.2571 -0.0739  0.3089
20031W        W36215   5.633  17.409   1.217 -0.2476 -0.1075  0.4098
20032W        W36216  18.360  12.478  11.364  0.0723  0.0524 -0.0512
20033W        W36217   7.732   2.797   2.771 -0.0489  0.2286 -0.1405
20034W        W36218   2.627   5.159  15.102 -0.0450 -0.2449 -0.0448
20035W        W36219  12.326   8.617  12.233 -0.1116  0.0603  0.1277
20036W        W36220   8.662   8.915  13.647 -0.3387  0.0321 -0.0363
20037W        W36221   2.969  13.627  11.633 -0.0802  0.1073 -0.2603
20038W        W36222  16.549   2.390  12.879 -0.0040 -0.0628  0.0220
20039W        W36223  18.597  11.598   2.762  0.0528 -0.0758  0.1550
20040W        W36224  10.632   4.058   5.052 -0.2387 -0.0385  0.0332
20041W        W36225  14.495  18.448  13.950  0.0175 -0.0453 -0.2936
20042W        W36226   0.600  17.328  15.064  0.2667 -0.2277 -0.1419
20043W        W36227   1.413  10.857   1.465 -0.0588 -0.0105 -0.1328
20044W        W36228  18.811  11.734  13.968  0.2647  0.0361  0.1623
20045W        W36229  13.369   0.919   0.043  0.2138  0.0997  0.0123
20046W        W36230  11.611   2.876   1.387  0.0084  0.3195  0.1238
20047W        W36231   7.884  18.656   3.836 -0.5154  0.0705 -0.0320
20048W        W36232  18.563  13.314   1.168 -0.0183  0.1598  0.3421
20049W        W36233   2.666  18.362   3.497  0.0807 -0.2616  0.2406
20050W        W36234  15.595   5.025  12.435 -0.2557  0.2977 -0.2095
20051W        W36235  10.059   0.396   2.235  0.0283 -0.0131  0.1187
20052W        W36236   4.457  17.815   2.136 -0.0661 -0.0656  0.0459
20053W        W36237   1.964  18.717   2.668  0.1493  0.1217  0.1864
20054W        W36238  15.406   3.879   3.523  0.5574  0.2687  0.0005
20055W        W36239  12.446  10.503   1.982 -0.2220  0.2473  0.0012
20056W        W36240  16.209  11.520   3.812 -0.2035  0.2625  0.1726
20057W        W36241  12.494  17.801  10.310 -0.2738  0.0587 -0.1407
20058W        W36242   0.693   6.900  10.602 -0.0317 -0.2004  0.0017
20059W        W36243   8.053  12.261   0.542 -0.3165 -0.1075 -0.2290
20060W        W36244  12.484  15.742   4.483  0.1524  0.1905 -0.1346
20061W        W36245  11.171  14.763  12.879 -0.0452 -0.3360  0.0738
20062W        W36246  16.254   3.031   4.395 -0.1770  0.0020  0.0770
20063W        W36247   5.566  12.447   3.294  0.2750 -0.2122  0.0552
20064W        W36248   4.127  12.359   4.764 -0.0748  0.1068  0.3442
20065W        W36249  12.703  18.109   1.702  0.0295  0.0777  0.1763
20066W        W36250   5.483   2.765  11.840 -0.0260  0.0392 -0.3611
20067W        W36251  10.595   1.532   0.486 -0.0023  0.1304 -0.1629
20068W        W36252  14.562  11.974  13.367 -0.0144 -0.1851  0.1021
20069W        W36253   4.332  14.342  11.817  0.1932 -0.0959 -0.2397
20070W        W36254   5.277   3.268  14.923  0.1217 -0.0352 -0.0194
20071W        W36255   7.989   3.488   0.181  0.1883 -0.0454 -0.1877
20072W        W36256   0.850  16.382   5.004  0.1466  0.1923 -0.0489
20073W        W36257  16.047  16.453   1.850 -0.3175  0.3957  0.1007
20074W        W36258   0.927  18.609  11.027  0.0752 -0.2146 -0.4518
20075W        W36259   8.432   1.516   2.877 -0.2493  0.1724  0.0326
20076W        W36260   9.935   2.131  10.763 -0.1932  0.0886  0.2454
20077W        W36261   4.264  11.760   3.312  0.0290  0.0742 -0.0755
20078W        W36262   1.627   7.091  11.908  0.0374  0.2001 -0.2262
20079W        W36263  10.408  12.925   2.913 -0.1632  0.0312  0.0117
20080W        W36264  17.657   4.905  12.332  0.0286  0.0913 -0.0109
20081W        W36265   4.264  11.897   4.603  0.0774 -0.2193 -0.0326
20082W        W36266   0.133   4.635   2.639 -0.0172 -0.0226 -0.1588
20083W        W36267   6.920   6.769  11.091  0.4560 -0.0723  0.0772
20084W        W36268   3.151   5.681  12.953  0.1039 -0.0337  0.1114
20085W        W36269   5.200   4.969   2.046 -0.1169  0.0830 -0.3614
20086W        W36270   7.247  14.988   3.885  0.0106  0.0942  0.3725
20087W        W36271  18.687  12.481   1.113 -0.0017 -0.1005 -0.0106
20088W        W36272  17.358   0.668   1.709 -0.0950 -0.0731 -0.2242
20089W        W36273  11.199   8.611  13.990 -0.1661  0.0473  0.0486
20090W        W36274   7.699   6.882  13.053  0.2676 -0.1397  0.1619
20091W        W36275   4.093  14.078  10.960  0.2222 -0.0765 -0.0199
20092W        W36276   9.827  17.234  13.677  0.1099 -0.2138  0.1409
20093W        W36277   5.584  11.787   4.722  0.1414  0.1889  0.0877
20094W        W36278   8.327  11.860  14.604 -0.2723 -0.1178 -0.0772
20095W        W36279   6.039   8.498  12.486 -0.0887  0.1855  0.0804
20096W        W36280  17.491   0.932  14.211  0.0675  0.0194 -0.0962
20097W        W36281   6.979  10.848  13.043  0.0578  0.1709  0.2072
20098W        W36282  12.872   6.724  15.233 -0.0630  0.0698 -0.0316
20099W        W36283  11.201  15.634  11.703  0.2326 -0.3226 -0.0686
20100W        W36284  14.935  16.631  12.713 -0.0536  0.0617 -0.2435
20101W        W36285  14.561  18.095   5.666 -0.2438 -0.1429 -0.1093
20102W        W36286  18.233  17.296   3.701 -0.0847  0.2620 -0.0402
20103W        W36287   4.586   8.892   0.620 -0.2893 -0.1281 -0.2307
20104W        W36288   8.660   3.319  14.408  0.2075  0.0403  0.0708
20105W        W36289  16.950   9.915  12.131 -0.2932  0.1098  0.5079
20106W        W36290   8.386   7.378  14.041  0.0504  0.0675 -0.1640
20107W        W36291   7.572   7.163   0.900 -0.1307  0.2642  0.0042
20108W        W36292   6.834  14.347  12.878  0.1444  0.2966 -0.0179
20109W        W36293   5.069  17.319  15.025  0.5417 -0.0078  0.1718
20110W        W36294   1.875  12.918   1.526 -0.2745 -0.0520 -0.0197
20111W        W36295  11.656   0.051  13.806 -0.1906  0.0586  0.2392
20112W        W36296   6.653   5.522   5.053 -0.2651 -0.1339  0.0602
20113W        W36297  11.785  18.522   0.316 -0.1517  0.4547  0.0369
20114W        W36298   5.372  17.382  14.502 -0.1565  0.1859  0.1370
20115W        W36299   1.570   0.024   3.019  0.1479  0.0272  0.1839
20116W        W36300   3.513  18.980  14.939 -0.1388  0.2557 -0.3290
20117W        W36301  17.618  16.309  13.002  0.2274  0.2287  0.1151
20118W        W36302   9.707  17.433  14.139 -0.0773  0.1372  0.1673
20119W        W36303   1.109  15.837   1.533  0.0763 -0.0483  0.0039
20120W        W36304   0.501  16.961   1.917  0.2690  0.1676  0.1284
20121W        W36305  18.582   1.941   9.990 -0.0201 -0.6050 -0.1919
20122W        W36306   5.700  13.001   1.146 -0.0021  0.6194 -0.0186
20123W        W36307   0.858  11.108  13.642 -0.1244  0.2000  0.0430
20124W        W36308   2.134   4.606  10.920  0.0679 -0.2601  0.0435
20125W        W36309  16.592  16.033   4.492  0.0561 -0.0069  0.1969
20126W        W36310   4.377   1.991  13.997 -0.3597 -0.0483  0.1661
20127W        W36311   3.496   4.490  13.600 -0.0253  0.3420  0.2305
20128W        W36312  13.104   4.015   2.686 -0.2469 -0.2086 -0.0455
20129W        W36313   1.035  10.539   4.877  0.0236  0.0412  0.0028
20130W        W36314   9.202   5.075   2.467 -0.0512  0.1648 -0.0430
20131W        W36315   7.892   3.125  12.945  0.1486 -0.0025 -0.3075
20132W        W36316   7.501  16.123  13.559  0.0361  0.1156 -0.3057
20133W        W36317   1.252   7.969  11.522  0.3206  0.1395  0.0274
20134W        W36318  12.404   5.546  14.710  0.0964 -0.3527  0.3207
20135W        W36319  10.033  18.657  12.917 -0.1084  0.0592 -0.0859
20136W        W36320   7.284   6.543  13.661  0.0864 -0.3575  0.2877
20137W        W36321  11.872  18.972   2.028 -0.1719  0.1174  0.1105
20138W        W36322  15.243   1.087  12.791 -0.1962 -0.0082 -0.1200
20139W        W36323  16.434  16.912   2.796 -0.1643  0.2951 -0.3237
20140W        W36324   9.562  10.173  14.078  0.0903  0.4040  0.0610
20141W        W36325  18.002  16.148  13.406 -0.1496 -0.0764  0.0541
20142W        W36326  18.819  17.214   4.572  0.0445  0.0710  0.2577
20143W        W36327  18.979   8.303   3.563  0.0119  0.1883  0.4383
20144W        W36328   5.074   2.030   4.185 -0.3363  0.0478  0.0353
20145W        W36329   9.503   6.297  15.119 -0.0905 -0.5600 -0.1412
20146W        W36330   7.158  16.859   1.496  0.3036  0.0786  0.0082
20147W        W36331   3.848  12.182  13.950 -0.1036 -0.0280  0.1107
20148W        W36332   1.796  15.702   4.460 -0.1297  0.0177 -0.0087
20149W        W36333   2.631   9.290   3.286 -0.2900 -0.0672  0.0876
20150W        W36334   0.529  13.700  10.963  0.2690  0.0436 -0.4724
20151W        W36335  17.423  18.639  12.606  0.0180 -0.1668  0.1288
20152W        W36336  12.840   9.825   1.917  0.2149 -0.1996  0.0028
20153W        W36337   8.264  14.532   2.076  0.1935 -0.1466  0.1516
20154W        W36338  12.096   3.327   1.645 -0.2724  0.0375  0.3490
20155W        W36339   1.071  14.099  14.884 -0.1222  0.0666  0.0945
20156W        W36340  14.798   1.315  12.723  0.1676  0.0494 -0.2910
20157W        W36341   0.827  13.464   4.744  0.3470 -0.2675  0.0557
20158W        W36342   3.246  12.985  13.794 -0.1881  0.0932 -0.0707
20159W        W36343  18.199   3.478   2.206 -0.0662 -0.2976  0.3207
20160W        W36344  14.729  13.376   4.635  0.0719 -0.0514  0.1081
20161W        W36345  10.757  12.252  13.154  0.0284  0.0651 -0.1695
20162W        W36346  11.144   6.503   1.882 -0.1878  0.1573 -0.1423
20163W        W36347  12.381  10.764  12.385 -0.0664  0.0500  0.0323
20164W        W36348  15.153  17.695  13.159 -0.3054  0.1391 -0.1577
20165W        W36349  10.982   0.959   2.682  0.0214  0.2095  0.1101
20166W        W36350   0.163   9.470  12.631 -0.0489 -0.4440 -0.3845
20167W        W36351  15.431   6.274  13.208 -0.3168  0.1025  0.0449
20168W        W36352  17.345   9.199  11.021 -0.0369 -0.0335 -0.2392
20169W        W36353   0.641   9.712  15.269 -0.1893 -0.0518  0.3664
20170W        W36354   6.687   8.107   1.590  0.1460 -0.2210  0.0325
20171W        W36355   5.459  17.045  11.053 -0.0973  0.0550 -0.0580
20172W        W36356   5.344  11.688   3.318  0.2010 -0.1078 -0.2263
20173W        W36357   0.386   4.063   0.195 -0.1721  0.1517  0.2291
20174W        W36358  15.852  18.254   4.206  0.0142  0.2672 -0.2377
20175W        W36359  12.472   3.223  13.737  0.1209 -0.2011  0.2274
20176W        W36360   2.209   1.779   4.688  0.2239  0.0889 -0.2036
20177W        W36361  16.783   9.560   3.201 -0.0402 -0.2956 -0.0627
20178W        W36362   4.391   7.790  14.446 -0.2022  0.3087 -0.3562
20179W        W36363   0.746  16.402   0.069 -0.0378  0.0042 -0.0531
20180W        W36364   8.158  15.448  11.264 -0.2128  0.1617  0.1099
20181W        W36365  16.868  18.533  13.118  0.2376  0.3288  0.1164
20182W        W36366   4.188   8.096  11.444 -0.1636 -0.0707 -0.3419
20183W        W36367  18.970   8.183  11.645 -0.0046 -0.0789 -0.0028
20184W        W36368   2.673  10.695  12.054 -0.0096  0.2738 -0.0540
20185W        W36369  18.453   8.728  12.826  0.0481 -0.3889 -0.0746
20186W        W36370  13.577  17.448  13.211  0.0597  0.0352  0.0441
20187W        W36371   8.197   1.966   1.770  0.0103 -0.1548 -0.0315
20188W        W36372   6.089  16.946  14.127  0.1690 -0.1049  0.1715
20189W        W36373   1.347   9.906   4.306 -0.0399 -0.2776 -0.2163
20190W        W36374   6.106  15.729  13.809 -0.2479 -0.0722 -0.0175
20191W        W36375   7.605   9.280  10.517 -0.0844 -0.3919 -0.0148
20192W        W36376   4.056   2.882   4.794  0.2980  0.4388  0.1004
20193W        W36377   6.398   8.938   5.242  0.1643 -0.2552 -0.0496
20194W        W36378  10.572   8.662   0.055 -0.1601 -0.0036  0.0551
20195W        W36379   8.198   2.551  14.538 -0.1160  0.1084 -0.2588
20196W        W36380  14.743   1.722  13.180 -0.0538  0.1379  0.2841
20197W        W36381  16.940   4.457  12.709 -0.1150 -0.1684 -0.1681
20198W        W36382  12.139  13.497  12.941 -0.2120  0.1042  0.1789
20199W        W36383   0.197   1.903  14.942  0.0968  0.0042  0.4710
20200W        W36384  18.786  10.633   4.580  0.0116 -0.0429  0.4052
20201W        W36385  10.186  16.727   0.629  0.1481 -0.1338 -0.0939
20202W        W36386   2.922   6.364   4.225  0.3083 -0.4038 -0.0203
20203W        W36387  10.183  14.105   2.211 -0.0785 -0.1457  0.2649
20204W        W36388   2.905   6.298   0.107 -0.0147  0.1093 -0.0004
20205W        W36389   2.334  18.167  13.820  0.0860  0.2404  0.3888
20206W        W36390   3.559  11.409  14.968  0.1387 -0.0331 -0.1627
20207W        W36391   7.301   0.563   0.943  0.0399  0.0889  0.3964
20208W        W36392  15.899  12.221   0.871  0.0162 -0.1783  0.1739
20209W        W36393   7.388   0.940   5.698 -0.0509  0.2410  0.0634
20210W        W36394   4.657   7.399   3.110 -0.0259  0.0556 -0.2982
20211W        W36395  11.980  11.259  11.389 -0.2100 -0.0013 -0.0791
20212W        W36396  14.583  14.760  14.399 -0.0195  0.0755 -0.0572
20213W        W36397   4.425  13.495  14.609 -0.0414 -0.0129 -0.0095
20214W        W36398   0.986  10.715   2.614  0.2755 -0.1757 -0.0121
20215W        W36399   7.145   8.307   1.459 -0.1870  0.2312 -0.3493
20216W        W36400  12.681  15.194   0.223  0.0231  0.0153 -0.0505
20217W        W36401   1.612  16.773   3.230 -0.1838  0.1043 -0.4715
20218W        W36402  16.241  16.976   0.981 -0.3777  0.1593  0.0398
20219W        W36403   8.784   3.596   5.135  0.0160 -0.0505  0.0789
20220W        W36404  10.562  11.521  15.101 -0.0249  0.0547  0.0381
20221W        W36405  15.274   9.980  12.566  0.0208  0.2464 -0.2986
20222W        W36406   4.259   6.387   0.566 -0.1462  0.2676  0.0256
20223W        W36407  17.231   1.777   0.823 -0.0535  0.1610  0.0317
20224W        W36408  13.393  16.668  11.173  0.0780 -0.0657  0.0995
20225W        W36409   1.488   7.594  11.769  0.0030  0.0407 -0.1479
20226W        W36410  17.554  11.650  13.010 -0.0363 -0.1884 -0.0803
20227W        W36411  15.981   6.822   1.831  0.0092 -0.0506 -0.0552
20228W        W36412  17.523  13.282   1.148  0.2055  0.1638  0.1562
20229W        W36413  11.426   8.653   4.006 -0.0416 -0.2810  0.0572
20230W        W36414  13.438  15.259   5.664 -0.0096 -0.0224 -0.0901
20231W        W36415   7.078  17.395  11.631  0.1536  0.0224 -0.1609
20232W        W36416   1.371   2.546  11.782  0.1277  0.1883  0.5557
20233W        W36417  18.575  13.855   2.534  0.4767 -0.1692 -0.0551
20234W        W36418  13.974  14.509   2.508 -0.0395 -0.0504  0.0180
20235W        W36419   2.742  11.760  11.457  0.0231  0.1720 -0.2754
20236W        W36420  18.876   8.765  12.434 -0.2223  0.1825 -0.2885
20237W        W36421  12.172  13.511   4.073 -0.2859  0.0308  0.0693
20238W        W36422  14.023  10.872  13.237  0.1282 -0.0331  0.3644
20239W        W36423   9.206   2.530   0.017 -0.1368 -0.1423  0.2485
20240W        W36424  15.752  14.756   0.314 -0.2217  0.0501  0.2579
20241W        W36425   1.067   5.417  11.345 -0.0019  0.0758  0.1325
20242W        W36426   1.495   3.427   3.595  0.0027  0.2219 -0.0594
20243W        W36427   8.075   4.748   4.793 -0.1632  0.4109 -0.1565
20244W        W36428  16.992  14.288   3.696  0.2547 -0.2503 -0.0348
20245W        W36429  13.639  15.603  11.185  0.1448  0.0143  0.0560
20246W        W36430   2.859  13.279  12.032  0.1462  0.0415  0.1158
20247W        W36431   4.220  11.849  14.173  0.1517 -0.3313  0.2506
20248W        W36432  12.521   3.445  10.673  0.0071  0.0169 -0.1407
20249W        W36433  13.131  15.767  12.402  0.0821  0.1769  0.2343
20250W        W36434   5.349  15.715  12.057 -0.0122 -0.0341  0.2329
20251W        W36435   1.089   0.248   1.634 -0.3681  0.1162 -0.2580
20252W        W36436  12.536  11.271  12.204  0.1694 -0.2511 -0.1314
20253W        W36437   3.234   3.566   4.994 -0.1293  0.1884  0.1393
20254W        W36438   8.520   0.624   1.481 -0.0653 -0.0192  0.0819
20255W        W36439  18.878  11.847   4.539 -0.1537 -0.2136 -0.1984
20256W        W36440   8.569   1.343  10.545  0.0529  0.3081  0.0455
20257W        W36441   6.464   3.000   2.543  0.3784 -0.2897 -0.1247
20258W        W36442   6.601   8.292  14.759 -0.1313 -0.1455  0.3339
20259W        W36443   9.059   0.994  13.960 -0.1471  0.2318 -0.0287
20260W        W36444  12.012  15.965  14.871  0.0895 -0.1129 -0.3138
20261W        W36445   8.928   5.973   1.380 -0.1557  0.0856  0.1392
20262W        W36446  12.190   3.211  15.036 -0.0405  0.0048  0.0961
20263W        W36447   5.416   5.265  11.263  0.1950  0.1037 -0.3373
20264W        W36448  11.474   6.194  12.934  0.0182  0.0234 -0.2478
20265W        W36449  18.811  18.287   0.211  0.2940  0.3286 -0.3682
20266W        W36450   0.731   7.750  14.490  0.0206 -0.3067 -0.0855
20267W        W36451  15.486  12.664  13.248  0.0055  0.1831  0.1220
20268W        W36452  15.019  10.620   0.556 -0.1658 -0.0528  0.0926
20269W        W36453   3.629  10.845  12.718 -0.2015 -0.1041 -0.0292
20270W        W36454   6.796  12.320   0.252  0.1850  0.1371 -0.0549
20271W        W36455  18.943   8.694  14.145 -0.0525  0.5756 -0.1717
20272W        W36456  10.945  16.381   3.506 -0.1539 -0.1345  0.1134
20273W        W36457   1.922   1.128  14.393 -0.0098  0.2829 -0.2202
20274W        W36458   6.380   5.319   1.612 -0.0106  0.3588 -0.0304
20275W        W36459  15.445   0.126   3.164  0.0276 -0.0549 -0.2581
20276W        W36460  12.587  17.296   2.308  0.2041  0.1543 -0.1073
20277W        W36461   0.124   2.264  14.114  0.2168 -0.0937  0.1733
20278W        W36462  10.162  16.760  14.858 -0.0622  0.2315  0.6496
20279W        W36463   6.014  12.618   0.204  0.3358 -0.3299 -0.2903
20280W        W36464  12.348  15.095   2.707  0.4231  0.2598  0.0214
20281W        W36465  12.656   7.194  11.293  0.1818 -0.0366 -0.1311
20282W        W36466   8.271  17.305   3.680  0.0096  0.1402  0.1029
20283W        W36467  16.840  11.558   5.099  0.0999  0.0656  0.1393
20284W        W36468  18.886   9.659  13.043 -0.3101  0.0957 -0.1476
20285W        W36469   7.978  18.047   2.858  0.0426  0.7263  0.0437
20286W        W36470   1.215  16.875  13.848 -0.1027 -0.2593  0.3282
20287W        W36471  12.339   3.629   1.958  0.0509 -0.0605  0.2567
20288W        W36472   5.437   3.175   4.850 -0.1518  0.1875  0.0864
20289W        W36473  16.488   2.032  10.884  0.3187 -0.2507 -0.1180
20290W        W36474  11.871  11.186  14.600 -0.1581 -0.0605 -0.1773
20291W        W36475  13.872   1.070  11.802 -0.0458  0.2112 -0.0479
20292W        W36476   7.381   0.235   1.996  0.0894  0.0694 -0.0456
20293W        W36477   0.010  10.561  12.018  0.2687  0.1989  0.1609
20294W        W36478  17.027   0.115   3.800  0.0549 -0.0498  0.1746
20295W        W36479   0.251   8.576   1.333  0.0634  0.0370  0.6468
20296W        W36480   7.684  13.517  15.292 -0.4517  0.0539  0.0796
20297W        W36481   4.916  10.708  11.223 -0.0539 -0.2405 -0.0070
20298W        W36482  16.490  16.760  15.132  0.0240 -0.1067  0.3642
20299W        W36483  17.799   8.654   2.897  0.2016 -0.1402 -0.2938
20300W        W36484  13.100  13.999   4.784 -0.1626 -0.0621 -0.1290
20301W        W36485   8.342  11.277   2.493  0.0089 -0.0809  0.0860
20302W        W36486  18.450   2.977   4.910  0.0726  0.0088 -0.3183
20303W        W36487   4.560  15.622   2.377 -0.2057  0.1044  0.0867
20304W        W36488   6.262  10.865  12.415  0.1654 -0.0302  0.2018
20305W        W36489  17.884   8.122  12.262 -0.2953 -0.2798 -0.1723
20306W        W36490   4.812  13.516  12.115 -0.2228  0.2300 -0.1288
20307W        W36491  10.516   1.898  14.408 -0.1473  0.1463  0.0587
20308W        W36492  17.216   2.019   0.032 -0.0300 -0.0418 -0.1936
20309W        W36493   3.801  14.831   4.761 -0.2000  0.1051 -0.1319
20310W        W36494  10.078  11.296   1.035 -0.0678  0.0208 -0.2141
20311W        W36495   3.788  10.242  15.137  0.0041 -0.2698  0.1274
20312W        W36496   6.052  11.208   5.238  0.0205 -0.0933  0.1091
20313W        W36497   1.593  13.594   3.432  0.0904  0.0870  0.0841
20314W        W36498   0.304  10.848  14.319  0.4007 -0.2202 -0.1136
20315W        W36499  10.837  15.312   1.062  0.2800  0.0474 -0.2918
20316W        W36500   7.659  14.018   1.358  0.0445 -0.0692  0.2392
20317W        W36501  12.642  17.867  11.288 -0.0849 -0.1739  0.0178
20318W        W36502   7.765   8.876  11.221 -0.0090  0.2828 -0.1691
20319W        W36503   1.880  12.760  14.272 -0.1844  0.0953 -0.2744
20320W        W36504  14.991  17.769   5.409 -0.2488 -0.0494  0.0672
20321W        W36505  12.975   0.691   3.238  0.0231 -0.0757  0.0858
20322W        W36506   1.664  18.409  15.083  0.1598  0.3040  0.0010
20323W        W36507  15.581   3.077   3.432 -0.1850 -0.0947  0.1901
20324W        W36508  14.879  11.620   5.969 -0.1150 -0.1797 -0.3621
20325W        W36509  17.127  11.004  13.473  0.1539  0.0716  0.4877
20326W        W36510  11.301  11.141   0.824 -0.1250 -0.1635 -0.2634
20327W        W36511   5.581  15.541   3.918  0.1532  0.4234 -0.1474
20328W        W36512   2.072  13.626   4.680  0.3433 -0.1303  0.1271
20329W        W36513  14.527  10.914  13.190  0.0845  0.0787 -0.0944
20330W        W36514  11.723   6.320   5.233 -0.0150 -0.2499 -0.1205
20331W        W36515   3.654  16.904  11.553 -0.4833 -0.1547 -0.0746
20332W        W36516  11.375   5.263   5.593 -0.1856  0.2059  0.0806
20333W        W36517  11.396  11.074  13.473 -0.1718 -0.1388 -0.2452
20334W        W36518  12.200  13.390   3.593  0.1045  0.1869 -0.1568
20335W        W36519   0.683  18.062   2.850  0.0478 -0.1416  0.1345
20336W        W36520  15.881   4.728  11.368 -0.1013 -0.0599  0.0691
20337W        W36521   7.910  14.563  13.681  0.1129 -0.2759  0.1324
20338W        W36522   0.820   8.437   1.491 -0.1296 -0.1168  0.0075
20339W        W36523  12.038  12.569  14.278 -0.2214 -0.0265 -0.3577
20340W        W36524  13.888  12.684   4.994  0.2721 -0.2221  0.1235
20341W        W36525   6.606  14.188  10.768  0.0029  0.0616 -0.1963
20342W        W36526   5.989  12.954   4.724 -0.3778  0.0959  0.4086
20343W        W36527  12.992  10.317   1.899 -0.2079 -0.2985 -0.3891
20344W        W36528  15.213  18.925   1.952 -0.0115 -0.2215  0.0217
20345W        W36529   4.832  12.074   0.491  0.0934  0.0056 -0.1879
20346W        W36530  16.750   5.131  15.298  0.0879 -0.2250 -0.0586
20347W        W36531   0.083  11.679   3.596 -0.1152  0.3414 -0.0042
20348W        W36532   8.213   8.883   2.429 -0.2007  0.1078 -0.0677
20349W        W36533  15.158  11.546  12.796  0.0415 -0.0698  0.5721
20350W        W36534  16.376  16.850   1.476 -0.2065 -0.2128 -0.0939
20351W        W36535  18.636   4.014  13.214 -0.2574  0.1671  0.0767
20352W        W36536   9.903   6.893  11.235  0.1825  0.0785 -0.0212
20353W        W36537  12.115   0.238  10.574  0.4567  0.2570 -0.1664
20354W        W36538  11.398   0.390   0.292  0.1608 -0.0717  0.0047
20355W        W36539   8.481   9.228   2.753 -0.0738 -0.1144 -0.2807
20356W        W36540   6.199  18.866   0.679  0.3955  0.0642 -0.1429
20357W        W36541  12.103   0.315   3.960  0.2938  0.0132  0.1071
20358W        W36542  16.042   9.364  11.720  0.2827 -0.1280 -0.0959
20359W        W36543   9.241   1.400  14.202 -0.2344 -0.1997 -0.1315
20360W        W36544  12.523  14.021   5.471 -0.0950  0.0363  0.0909
20361W        W36545  11.728   3.346   4.227 -0.0336  0.2119 -0.0454
20362W        W36546  17.086  14.597  13.284 -0.1285 -0.3687  0.1280
20363W        W36547   9.200  16.274   4.284 -0.0766 -0.2715 -0.0895
20364W        W36548   9.784   0.224   1.457 -0.0435 -0.3467 -0.2288
20365W        W36549   2.804   3.014  14.576 -0.4323 -0.0963 -0.2384
20366W        W36550   9.304  15.647   4.397  0.1077  0.0447  0.0754
20367W        W36551   9.352   0.525  11.220  0.4061 -0.1905 -0.1291
20368W        W36552   5.891  16.743   3.122 -0.1448 -0.4271 -0.0294
20369W        W36553   3.070   8.316   2.467 -0.0717  0.2749  0.3143
20370W        W36554  10.292  13.982  11.389  0.2054  0.1155 -0.1162
20371W        W36555  13.890   6.159   1.647  0.4828  0.1213 -0.1121
20372W        W36556  13.124  15.347   3.906 -0.0772  0.2129 -0.0713
20373W        W36557  15.029   8.941  10.846  0.2792 -0.0251  0.1931
20374W        W36558  15.497   4.835   2.946 -0.0711 -0.2079  0.2877
20375W        W36559  14.867  12.227   1.772  0.1521  0.0856 -0.0577
20376W        W36560   2.039   6.874   1.097  0.1134 -0.0939  0.1236
20377W        W36561   1.854  13.105  15.086 -0.1127  0.1763  0.0521
20378W        W36562  16.572   7.191   3.770 -0.0927  0.0625 -0.1627
20379W        W36563   5.398  10.566  14.556 -0.2923 -0.0644 -0.0978
20380W        W36564  11.095   5.539  13.656 -0.3707 -0.0708  0.1401
20381W        W36565   1.557  16.343  11.823  0.2231  0.0216  0.1954
20382W        W36566  16.120  12.591   1.142  0.0147  0.1997 -0.0988
20383W        W36567   4.600  18.583   2.996 -0.0271 -0.1400  0.3267
20384W        W36568  11.777  10.653  14.596 -0.2370 -0.0901  0.2906
20385W        W36569  17.167  12.932   4.985  0.1738 -0.0616  0.1523
20386W        W36570   3.137   6.386   2.920 -0.2487 -0.0117  0.0665
20387W        W36571   3.146   9.329   3.330  0.0988 -0.3285  0.0964
20388W        W36572  18.282   4.369   2.320  0.1347 -0.0330 -0.0370
20389W        W36573   5.254   6.278  11.663 -0.2122 -0.0334 -0.4388
20390W        W36574   2.019  10.613  14.078 -0.0531 -0.0035  0.3212
20391W        W36575  16.251  13.794  13.692  0.2399  0.0121  0.2303
20392W        W36576   0.084   9.271  13.646 -0.1696 -0.0698 -0.1889
20393W        W36577   1.188  11.073   4.920  0.2067 -0.1900 -0.1716
20394W        W36578  14.677  14.503  13.192  0.1082 -0.0846  0.2302
20395W        W36579   8.836  10.542   2.809  0.3934  0.4340  0.4694
20396W        W36580   3.325   5.535  11.053 -0.1941  0.3911 -0.0762
20397W        W36581   6.370  17.951  10.910  0.1124 -0.0237 -0.0382
20398W        W36582   7.080   2.207   3.369  0.1422 -0.0430 -0.0443
20399W        W36583  17.728   1.764   4.456  0.2140  0.4100 -0.2490
20400W        W36584   8.176   2.190  14.080  0.1606  0.0420  0.1672
20401W        W36585   0.310   1.155  12.219  0.4922 -0.0470 -0.0877
20402W        W36586  13.133   0.548   4.445 -0.2584 -0.3211  0.0118
20403W        W36587   8.886  14.567  12.264 -0.2804 -0.1314  0.0306
20404W        W36588  11.857   3.573   3.794  0.0077  0.0348 -0.0351
20405W        W36589   8.241  12.771   4.652 -0.1667 -0.2938 -0.1175
20406W        W36590  13.189   7.863   0.354  0.0849  0.2261 -0.1204
20407W        W36591  14.409   5.262   9.810 -0.1463 -0.2336 -0.1092
20408W        W36592   2.721   5.939   4.192  0.1458  0.0992  0.1770
20409W        W36593   3.997   9.502  14.134  0.1734  0.0847 -0.1470
20410W        W36594   3.760  17.919   4.730  0.0648  0.0493 -0.0184
20411W        W36595   8.657  11.894   3.848  0.0648 -0.4209  0.0377
20412W        W36596   3.358  10.280   2.454  0.0545 -0.1284 -0.0221
20413W        W36597   9.690  15.080   0.703 -0.1516 -0.3038 -0.0038
20414W        W36598  11.683  15.257  14.415  0.1146 -0.3355 -0.4845
20415W        W36599   4.711  12.100  13.503  0.3663  0.3287  0.0399
20416W        W36600   0.653   8.729  10.457  0.1847  0.1180  0.1134
20417W        W36601   3.194   6.238   1.516  0.5408  0.2078 -0.1609
20418W        W36602   7.822  11.841  14.747  0.0917 -0.0538  0.1340
20419W        W36603  12.454  14.636   9.685  0.0114 -0.3455  0.2158
20420W        W36604   5.525   7.452   3.622  0.2215 -0.0489  0.0433
20421W        W36605  10.624   9.614   3.165 -0.0156 -0.1746  0.1746
20422W        W36606   3.819   3.322  12.636  0.0715 -0.0769  0.0421
20423W        W36607   3.053   6.237  12.379  0.2667  0.2597 -0.0800
20424W        W36608  11.395  17.944   1.449 -0.1681 -0.2014  0.3622
20425W        W36609  16.078  14.828   2.000 -0.0033  0.0460  0.2127
20426W        W36610   4.206  13.952  13.870  0.1491 -0.0737  0.3747
20427W        W36611  13.105   0.876  12.340 -0.3806 -0.0735  0.0458
20428W        W36612   4.925  16.376   3.289  0.2247 -0.2942  0.0764
20429W        W36613  10.398  18.087   1.637 -0.1057 -0.2711 -0.2733
20430W        W36614   1.303  14.615  14.673 -0.1013  0.2016  0.0979
20431W        W36615   2.928  18.250   2.413 -0.1247  0.2957  0.0968
20432W        W36616  14.845   6.601   1.799 -0.2945 -0.1157 -0.2647
20433W        W36617   9.622   9.215   0.299 -0.2162  0.1208 -0.1317
20434W        W36618  15.489   2.071  14.008  0.1444  0.4939 -0.5120
20435W        W36619  15.795   5.075   2.466 -0.1536  0.1331  0.0532
20436W        W36620  14.204  12.712   0.179  0.3043  0.1537  0.1713
20437W        W36621   6.835   2.495   4.536 -0.0972  0.0184 -0.1252
20438W        W36622  12.602  16.550   4.208 -0.2852 -0.1626 -0.4328
20439W        W36623   9.841   9.802  13.834 -0.2257 -0.0497  0.1267
20440W        W36624  10.012  16.880   1.429  0.2147 -0.0158  0.2981
20441W        W36625   0.552  10.620  11.840 -0.2024  0.0660  0.2536
20442W        W36626  18.542  12.457  12.748 -0.1348  0.0568  0.4693
20443W        W36627   3.321  13.337   2.613  0.1024 -0.0801 -0.1111
20444W        W36628  15.852   7.691  10.658 -0.1213 -0.1362  0.5835
20445W        W36629  12.373  10.684   0.353  0.1476  0.2212 -0.2446
20446W        W36630  10.391  17.727  10.985 -0.1352 -0.0566 -0.0534
20447W        W36631  13.916  15.404  11.668  0.0603  0.0136 -0.0222
20448W        W36632   6.044  10.674  12.869  0.0675  0.1850 -0.0668
20449W        W36633   2.699   2.005  11.481  0.1618 -0.4996 -0.1233
20450W        W36634   5.823  16.571   5.247  0.1150  0.0182  0.0048
20451W        W36635  16.278   1.978   0.124  0.0927 -0.1667 -0.0732
20452W        W36636   2.197   5.473   3.160 -0.0467 -0.1081  0.3243
20453W        W36637   1.831   2.906  11.201 -0.2296 -0.0137 -0.0893
20454W        W36638   1.406  18.973   2.517 -0.0825 -0.1401 -0.0159
20455W        W36639  15.274  10.550  10.156  0.3637 -0.2011 -0.2255
20456W        W36640  11.468  13.341   2.807  0.0876 -0.1050  0.0675
20457W        W36641   4.224   8.987  15.238 -0.0203 -0.0738  0.1053
20458W        W36642   2.492   4.042  12.129 -0.1412  0.3096 -0.1420
20459W        W36643  14.247  14.642  11.128 -0.2747  0.1645  0.0715
20460W        W36644   0.504   8.221  10.559 -0.5379  0.2056  0.1846
20461W        W36645   1.547   2.272   1.870  0.1707 -0.3418  0.1311
20462W        W36646  10.244   4.455  15.367  0.1462  0.1242  0.0083
20463W        W36647   5.423   6.775  12.475  0.2514  0.1233  0.0052
20464W        W36648   8.562  18.860   2.285  0.2730  0.3292  0.0028
20465W        W36649  13.180   1.480   1.009  0.0467  0.0830  0.2715
20466W        W36650  10.063   9.258   4.000 -0.0949  0.3455  0.0407
20467W        W36651  17.032   2.586  15.285 -0.0954  0.0692  0.3394
20468W        W36652  13.011  18.093   2.077 -0.0860  0.0498  0.1810
20469W        W36653  11.860  14.588   5.460  0.0398 -0.0029  0.0752
20470W        W36654  18.006  18.948   5.253  0.0122  0.0757  0.1899
20471W        W36655   0.734  18.605   0.534  0.1963  0.2990  0.5809
20472W        W36656   3.910  12.889  12.530 -0.2800 -0.1864  0.3635
20473W        W36657  18.357   6.759   2.487  0.1030  0.1187 -0.0908
20474W        W36658  17.814  15.885   5.242  0.0446  0.0757 -0.0076
20475W        W36659   5.017   1.190  11.517  0.1285 -0.0388 -0.0995
20476W        W36660  15.769  17.764  12.477 -0.1699 -0.0251  0.4521
20477W        W36661   5.050  14.771   4.001  0.0261 -0.2795 -0.2397
20478W        W36662   1.848  16.191   4.156  0.1893  0.1755 -0.2280
20479W        W36663   3.731   2.709   5.475  0.1308 -0.0409  0.2587
20480W        W36664  10.290   0.331  10.027  0.3415 -0.0501  0.0226
20481W        W36665   5.732  17.971  11.510  0.1643 -0.0048 -0.1284
20482W        W36666  15.194  12.169   2.383 -0.0716 -0.0397  0.3347
20483W        W36667   4.609  15.034  12.537 -0.2065  0.0245 -0.2320
20484W        W36668  15.898   7.606  11.316 -0.0175  0.0520  0.1331
20485W        W36669   9.203  15.814   1.360 -0.1078 -0.0737  0.1619
20486W        W36670  12.866   4.358  11.953 -0.1165 -0.3249  0.0105
20487W        W36671   8.946   4.091   5.128 -0.3531  0.1100  0.0605
20488W        W36672  16.182  11.707   3.182 -0.0629 -0.4414 -0.0546
20489W        W36673   6.973  18.371  13.612 -0.1460 -0.0124  0.1500
20490W        W36674  13.114   2.537  14.640  0.2529  0.1255  0.1843
20491W        W36675  12.425   5.938  12.569 -0.0010  0.4229  0.1064
20492W        W36676  11.342   2.104   0.478 -0.0011 -0.1227  0.1383
20493W        W36677   6.746  18.709   2.990  0.1546 -0.2686 -0.0506
20494W        W36678   5.747   0.442  14.604 -0.0330  0.2067  0.0579
20495W        W36679   5.268  10.229   3.641  0.2328 -0.0654 -0.0920
20496W        W36680   8.908  12.157  13.953 -0.1941  0.1740  0.3820
20497W        W36681   2.712  11.757  13.493  0.3152 -0.1871 -0.0477
20498W        W36682  11.218   2.028  12.360  0.1576 -0.0055 -0.3114
20499W        W36683   6.467  13.735  14.102  0.1148  0.0494 -0.1405
20500W        W36684   3.841   6.457   4.715  0.1387  0.2483 -0.3316
20501W        W36685  18.613   7.679  11.277 -0.1519  0.0196  0.0105
20502W        W36686   3.901   0.338   0.778 -0.1389  0.1384 -0.0630
20503W        W36687   1.909  11.701   2.639  0.0245  0.0196  0.2419
20504W        W36688   4.937  13.970   4.672  0.0879  0.3730  0.0104
20505W        W36689  15.292  16.384  11.962  0.4264 -0.3771  0.0058
20506W        W36690  11.384   6.481  11.538 -0.2553  0.2058  0.1199
20507W        W36691  13.861  10.498  12.370  0.0060 -0.1167  0.0477
20508W        W36692  16.272   6.925   0.510 -0.2194  0.0091 -0.2364
20509W        W36693  17.175   5.492  14.256 -0.0346  0.1267  0.1302
20510W        W36694   7.052   6.420   5.385 -0.0352 -0.3237  0.2434
20511W        W36695  17.673  14.692  14.498  0.0013 -0.1647  0.2467
20512W        W36696   6.079  18.844  11.356  0.0609  0.0022  0.0891
20513W        W36697   8.357  17.068  11.983 -0.0985  0.0244 -0.0921
20514W        W36698  10.924   9.567  14.968 -0.0061  0.3377 -0.2983
20515W        W36699  16.121   6.455   0.684  0.1019  0.0098  0.2764
20516W        W36700   8.972  13.490  12.898  0.1911  0.0686  0.0203
20517W        W36701   5.923  13.275  12.904  0.1173  0.4270  0.0072
20518W        W36702   7.910  18.510   2.941 -0.2293 -0.0973  0.1722
20519W        W36703   2.327   7.735  12.347 -0.4136  0.1028 -0.1830
20520W        W36704  18.319   7.746   2.511  0.0871  0.1722 -0.0496
20521W        W36705   9.981   1.103  11.726  0.0434 -0.0886 -0.0447
20522W        W36706  12.463   2.056  13.389 -0.1585 -0.0906 -0.0337
20523W        W36707  15.335  17.996   5.076 -0.1181  0.1787  0.2261
20524W        W36708  17.394   3.425   4.327  0.2905  0.2446 -0.3732
20525W        W36709  18.144   7.497  10.920 -0.1091  0.0319  0.0167
20526W        W36710   1.339  13.834  13.538  0.2169  0.1487  0.1810
20527W        W36711   7.503   5.251   5.294  0.1456 -0.3754 -0.1931
20528W        W36712  12.000  16.418  14.744 -0.0691 -0.0097  0.0608
20529W        W36713  11.830   0.474  12.014  0.1812  0.0889  0.1633
20530W        W36714  14.639  12.577  14.267 -0.1115  0.0043 -0.1302
20531W        W36715  14.113  16.854   1.194 -0.0800 -0.1533  0.1969
20532W        W36716   6.182  10.385   5.289 -0.0839 -0.1892 -0.0134
20533W        W36717   2.550   0.132  11.646 -0.2696 -0.0218 -0.2052
20534W        W36718   0.066   9.754   2.219 -0.3799  0.2194 -0.2596
20535W        W36719  14.471  10.517   2.693  0.0837 -0.0393 -0.0373
20536W        W36720  12.462   7.702  14.898  0.1287  0.2148 -0.0286
20537W        W36721   1.861   5.177  12.510  0.0256  0.1053  0.1031
20538W        W36722  16.324  18.189   4.484  0.0369 -0.3494  0.1742
20539W        W36723   1.340   5.163  10.972  0.1592 -0.1092  0.1921
20540W        W36724   1.558   6.694  10.628  0.1136  0.1038  0.2591
20541W        W36725  12.600   7.671   2.295 -0.1635 -0.0279  0.0166
20542W        W36726   8.678  16.286   4.473  0.0790  0.2848 -0.1964
20543W        W36727  17.343  18.799   0.282  0.0581  0.0802  0.0830
20544W        W36728   0.155  15.063   1.026 -0.3129  0.1179  0.1230
20545W        W36729   8.587  10.113   0.535 -0.0601  0.0597 -0.1952
20546W        W36730   7.513  17.520  12.535  0.0278  0.1026  0.3676
20547W        W36731   3.507  17.066  11.017 -0.1533  0.0819 -0.2768
20548W        W36732   2.709  10.313   0.118 -0.4091  0.2385 -0.1977
20549W        W36733   8.356  12.054   5.454 -0.0577  0.2279 -0.1745
20550W        W36734   8.533  14.788   3.934 -0.0455 -0.1350 -0.0290
20551W        W36735  10.241  14.111   5.186  0.2619  0.1281  0.1967
20552W        W36736  13.640  12.904   2.175 -0.0722 -0.3283 -0.2600
20553W        W36737   9.211   6.241  10.882 -0.1279  0.1329  0.1614
20554W        W36738   5.515  13.719  13.672 -0.2850 -0.3905 -0.0948
20555W        W36739  12.226   8.238   0.441 -0.1957 -0.3027  0.0110
20556W        W36740   1.288  13.146   4.945  0.4291  0.0283 -0.1141
20557W        W36741  12.143  10.639   1.302 -0.0648 -0.1525 -0.3512
20558W        W36742   1.292   7.087   0.453  0.0169  0.1984 -0.0849
20559W        W36743  16.679  15.162  14.111  0.1299 -0.0317  0.1447
20560W        W36744  16.798   9.984  15.170  0.0287  0.0675  0.0347
20561W        W36745  17.001  13.631   2.888 -0.0221  0.3564  0.1096
20562W        W36746   2.391   1.425  12.927  0.0612 -0.0806 -0.2632
20563W        W36747  13.095  15.020  11.217  0.2629  0.0056  0.4383
20564W        W36748  12.202   5.585   0.158  0.0758 -0.0247  0.0863
20565W        W36749  12.091   0.749  11.643  0.0735 -0.0554  0.3071
20566W        W36750  15.504  12.872   1.982  0.2460 -0.1796  0.1365
20567W        W36751  14.915   7.757   1.946 -0.1760 -0.0819  0.2606
20568W        W36752  14.262  15.194   1.122  0.3197 -0.0094 -0.4736
20569W        W36753   7.552   1.301  12.593 -0.1745  0.1483 -0.4486
20570W        W36754  15.485  15.295   0.373  0.0981 -0.3525 -0.1243
20571W        W36755  12.752  16.853   3.765 -0.0446 -0.1788 -0.0185
20572W        W36756   1.848  15.317  12.633 -0.1468 -0.1797  0.1194
20573W        W36757  10.429   0.785   2.502  0.0807 -0.1159  0.1948
20574W        W36758  16.489  13.967   0.619 -0.0505  0.3727 -0.1923
20575W        W36759   4.013   5.596  11.220  0.4283  0.2584 -0.2826
20576W        W36760   8.833  10.971   3.657  0.0668 -0.1281 -0.0291
20577W        W36761  11.355  18.020   2.027  0.3881 -0.0249  0.1661
20578W        W36762   1.264   9.976   1.225  0.0257 -0.0911  0.1780
20579W        W36763   5.288   1.467  12.621 -0.2988  0.2015 -0.1562
20580W        W36764   6.194   9.436   1.294 -0.2352  0.2694 -0.0756
20581W        W36765   1.796  15.098   4.496  0.1097  0.3088  0.0499
20582W        W36766  15.419  13.330   1.266  0.0772 -0.1551 -0.0811
20583W        W36767   3.335   4.716  12.926  0.2794  0.1714  0.2047
20584W        W36768   5.789   5.277   3.671 -0.1406  0.0546 -0.0819
20585W        W36769  18.557  15.888  14.527 -0.0572  0.0011  0.2207
20586W        W36770   0.785   2.100  13.421 -0.1686  0.0503  0.2166
20587W        W36771   6.249  12.920  14.484 -0.2170  0.0039 -0.0008
20588W        W36772  16.477   1.361  13.298  0.2341 -0.0458  0.4985
20589W        W36773  11.918  11.447   3.350 -0.1840  0.1222  0.3360
20590W        W36774  13.435  15.388   2.829  0.0225 -0.3365 -0.1507
20591W        W36775  16.208  18.733  11.951  0.2551 -0.1124 -0.0970
20592W        W36776   3.262   0.682   3.066  0.0326  0.0410  0.1662
20593W        W36777  12.453   7.450  14.408  0.2314  0.1509 -0.2665
20594W        W36778  14.765  18.061   9.317  0.0711 -0.0135  0.5012
20595W        W36779   0.107   3.907   0.702  0.1898  0.1185 -0.0958
20596W        W36780   7.879   3.877   4.961 -0.2418  0.2262  0.2358
20597W        W36781  11.564   3.876  13.141 -0.2114 -0.0407 -0.2540
20598W        W36782  16.830   4.638  13.158  0.0451  0.1233 -0.3283
20599W        W36783  15.890   5.588  15.100 -0.1971  0.2000  0.2553
20600W        W36784  13.313  11.732  11.788 -0.0044 -0.3346  0.0427
20601W        W36785  18.826  11.112  14.268  0.5543  0.0691 -0.0219
20602W        W36786   1.120  13.714   2.205  0.0774  0.2124 -0.1001
20603W        W36787  16.469  11.069  13.898 -0.2242 -0.0662  0.1346
20604W        W36788  18.859   6.242   5.145 -0.1632  0.3015  0.0861
20605W        W36789  18.373  15.470   5.905 -0.2461  0.0401  0.0134
20606W        W36790  17.061   2.198  13.000 -0.3614 -0.1025 -0.0965
20607W        W36791   5.943  13.895  13.971 -0.0239  0.1652 -0.0905
20608W        W36792   1.517   6.230  10.869  0.1096  0.0026 -0.1955
20609W        W36793  13.837  18.147  12.453 -0.1397  0.1372  0.1353
20610W        W36794  12.762  17.746  13.040  0.3154  0.0554  0.2402
20611W        W36795  13.121  10.034   2.312  0.0497  0.2012 -0.0640
20612W        W36796  10.491  13.179   4.846  0.2871  0.1544  0.3815
20613W        W36797   4.786   1.705   2.124 -0.1248  0.2202  0.2041
20614W        W36798   8.376   3.056   3.693  0.3393 -0.1858 -0.3879
20615W        W36799   5.336  13.178  12.739 -0.4046 -0.2825  0.3168
20616W        W36800  16.354  10.343  13.801 -0.1962  0.0083  0.0268
20617W        W36801   3.599   7.017   1.712  0.1778 -0.1697  0.2701
20618W        W36802  17.430   5.276   1.652  0.1185  0.2396  0.0413
20619W        W36803   7.619  12.595  11.795 -0.0014 -0.2430 -0.3612
20620W        W36804  13.389   3.061   0.102  0.0396 -0.0783  0.1308
20621W        W36805   6.488  18.147  13.582 -0.1123 -0.0326  0.0096
20622W        W36806  18.673  16.820   3.136  0.1050  0.0550  0.1567
20623W        W36807   6.885  16.204   0.777  0.1279 -0.0877 -0.1315
20624W        W36808  14.411  13.872   3.921 -0.2744  0.0039 -0.0335
20625W        W36809  17.880  14.923  14.123 -0.0405  0.1919  0.2609
20626W        W36810  14.600   9.218  11.930  0.2538 -0.1026  0.2180
20627W        W36811   7.793   3.857  11.105  0.0374  0.1717 -0.0081
20628W        W36812  12.271  15.988  13.815  0.2750  0.2793  0.1051
20629W        W36813   5.933   6.175   4.319 -0.0295 -0.0047  0.0013
20630W        W36814  12.574   9.922   0.732  0.1473 -0.0564 -0.1163
20631W        W36815  14.029   7.114  14.575  0.1948 -0.0650  0.2107
20632W        W36816   7.359  11.773   1.030 -0.2227  0.1296 -0.0804
20633W        W36817   0.272   7.274   0.264  0.2743  0.4014 -0.0836
20634W        W36818   6.100   3.556  12.644 -0.0625  0.3527 -0.1929
20635W        W36819  16.710  15.128   3.856  0.0271 -0.2482  0.1364
20636W        W36820  16.200  17.752   0.990 -0.0266 -0.0311  0.3035
20637W        W36821  16.865   2.351   4.156 -0.0521  0.0610 -0.1962
20638W        W36822  10.363  10.457  13.170  0.3125  0.1055  0.2083
20639W        W36823   2.937  16.650   3.590 -0.0432  0.1634  0.2069
20640W        W36824   1.160  12.381  13.699  0.3938  0.2117  0.2308
20641W        W36825   8.510   5.784  11.166  0.2663 -0.2631 -0.0376
20642W        W36826   9.384   5.765  14.069  0.2371 -0.0660 -0.0439
20643W        W36827   1.350   9.543   4.741  0.0858 -0.0354 -0.2484
20644W        W36828   1.274   5.124   2.749 -0.2001 -0.0398 -0.0404
20645W        W36829   4.896   6.320   1.130 -0.1844 -0.2003 -0.1846
20646W        W36830   5.030  17.093  13.440 -0.1305  0.4025  0.1975
20647W        W36831  18.849   1.449  14.172 -0.0148  0.2350 -0.2471
20648W        W36832   9.348   6.881  11.387  0.1033 -0.0272 -0.1023
20649W        W36833   8.983   4.970   0.938  0.1841 -0.1020  0.3908
20650W        W36834   5.574   9.951   3.343  0.0718  0.0087 -0.1214
20651W        W36835   0.622  17.202  10.996  0.1780 -0.0264 -0.1391
20652W        W36836   7.787   1.245  12.177  0.1913 -0.1526 -0.0548
20653W        W36837   8.799  10.115  12.069 -0.0591  0.0589 -0.1339
20654W        W36838   0.671   9.290  11.448 -0.3205  0.0329 -0.0326
20655W        W36839   7.269  17.576  13.106  0.1799 -0.1243  0.1473
20656W        W36840   5.384  16.375  13.938  0.1236 -0.1842 -0.2360
20657W        W36841   5.891   1.832   2.786 -0.4799  0.0977 -0.6027
20658W        W36842  17.674  17.396   3.912 -0.0048 -0.1714 -0.4951
20659W        W36843   5.853  14.824  10.418  0.2400 -0.1473  0.0851
20660W        W36844   8.798  10.953   5.456  0.1566  0.0745  0.0281
20661W        W36845  14.939  12.901  12.649  0.1747 -0.1251 -0.1433
20662W        W36846   2.734   4.627   1.516 -0.1113  0.2747  0.2942
20663W        W36847  13.525  18.731   2.533  0.0305  0.0225 -0.1843
20664W        W36848  10.216   5.019  10.446  0.3786  0.2493  0.2287
20665W        W36849   1.081   6.295  13.667 -0.2988  0.1808 -0.1257
20666W        W36850  17.903  10.701   2.138 -0.0435  0.0045 -0.0542
20667W        W36851   8.183   3.480  12.812  0.1472 -0.0182 -0.1945
20668W        W36852  18.410   5.360  12.178 -0.0682  0.0321  0.0590
20669W        W36853   8.912   3.036  12.677  0.0169  0.1795 -0.0742
20670W        W36854  11.037  13.733   2.087 -0.0944 -0.1988 -0.1842
20671W        W36855   7.947   5.863  14.761 -0.1621 -0.0484  0.3012
20672W        W36856  14.453   3.808   4.819  0.1415 -0.1573 -0.4234
20673W        W36857   4.082   8.083   2.455  0.0176 -0.1499  0.1373
20674W        W36858  18.342   7.647   1.524  0.2518  0.0857  0.0265
20675W        W36859   8.191  16.606   3.639 -0.4515 -0.0436 -0.0295
20676W        W36860   3.573   4.149   3.054 -0.1028  0.1583 -0.2110
20677W        W36861  14.645  16.208  13.982  0.1532 -0.2128  0.3447
20678W        W36862  14.527   9.348   0.433  0.2600 -0.0682  0.1765
20679W        W36863  17.231   6.774  13.667  0.1452 -0.0389 -0.5685
20680W        W36864  13.037   8.520  11.460  0.2662 -0.4767 -0.1889
20681W        W36865   1.519  10.830  11.038  0.0522  0.2592  0.0555
20682W        W36866   4.482   8.490   0.316  0.0727 -0.2009 -0.1491
20683W        W36867   8.256   6.192  11.398  0.1837  0.2269  0.2078
20684W        W36868  11.162  14.734  13.697 -0.3245 -0.1531 -0.2166
20685W        W36869  13.581   9.763  13.767  0.1559  0.0421  0.1458
20686W        W36870   1.830  18.307  11.686 -0.3512  0.2586 -0.4089
20687W        W36871   2.990  16.743   2.192 -0.2949  0.3033  0.0621
20688W        W36872  17.806   3.008   0.652 -0.3221 -0.2046 -0.2528
20689W        W36873   3.276   5.062   4.836  0.2323  0.0418  0.0966
20690W        W36874  16.592  10.482  12.779  0.0213  0.2170 -0.2449
20691W        W36875  14.945   2.162   2.075  0.3131 -0.1554  0.1918
20692W        W36876   7.461  15.118   2.901 -0.1628  0.1682  0.0461
20693W        W36877   3.021   7.813  14.974 -0.1855 -0.0886 -0.1900
20694W        W36878   7.889   8.316   3.093  0.2220  0.4828  0.2538
20695W        W36879   4.089  15.861   3.363  0.2212  0.0951 -0.0553
20696W        W36880  10.589   8.688  13.785 -0.1454  0.0374 -0.1016
20697W        W36881   1.226  12.628  14.105  0.2568  0.0820  0.0170
20698W        W36882  10.120   0.476   4.774 -0.3046 -0.2202 -0.3079
20699W        W36883  17.795  18.393   2.064 -0.1672 -0.0440 -0.0301
20700W        W36884  16.526  10.591  13.237  0.4366 -0.1297 -0.0362
20701W        W36885   8.832  15.902   4.097  0.0188  0.0989 -0.2950
20702W        W36886  16.760  13.012   1.556 -0.2098  0.1054  0.2333
20703W        W36887   9.321  11.654   3.801  0.1672  0.0594 -0.3739
20704W        W36888  14.732  10.499   3.115 -0.2080 -0.0546  0.0120
20705W        W36889   2.390  15.576  14.747  0.0949 -0.1465  0.1341
20706W        W36890  12.176  18.073   5.038 -0.1794  0.0765  0.3950
20707W        W36891  11.847  12.724  10.197  0.1775  0.1648  0.1080
20708W        W36892   1.740  10.061   1.226  0.0111 -0.2255  0.1845
20709W        W36893   4.580   1.437  11.416  0.0824  0.2003 -0.1877
20710W        W36894  17.911  10.435  13.180  0.0548 -0.1669 -0.0548
20711W        W36895  17.133   2.638  12.083  0.0455  0.1857  0.2538
20712W        W36896   5.171   9.085  13.675 -0.2581 -0.5374 -0.0126
20713W        W36897  16.111   8.811   1.701  0.1374  0.0043  0.0893
20714W        W36898  18.640   7.288   3.289  0.3061 -0.0878 -0.0285
20715W        W36899  17.895   5.507   3.758  0.1319 -0.0175  0.0185
20716W        W36900  13.130   6.474   1.115 -0.1003 -0.0756 -0.1334
20717W        W36901  18.913   2.938  13.580  0.0985 -0.0662  0.1802
20718W        W36902   9.235  15.133   0.069  0.3778  0.3202  0.2810
20719W        W36903  11.697   2.952  11.073  0.1608 -0.0694  0.2462
20720W        W36904   9.315  16.591  15.009 -0.5928 -0.4903 -0.0042
20721W        W36905  12.644  12.802  11.390 -0.2895 -0.1000 -0.2134
20722W        W36906   9.332   2.354  11.289  0.0385  0.0480 -0.1202
20723W        W36907   1.784  13.000  11.934  0.1663 -0.1264  0.4002
20724W        W36908  15.377   7.482   1.709  0.0578 -0.2241 -0.2855
20725W        W36909   4.085  14.438   0.091 -0.0956 -0.3393  0.0907
20726W        W36910   9.313  12.781   0.130 -0.1349  0.0303 -0.1553
20727W        W36911  16.144  16.674  13.473 -0.0263 -0.0037 -0.0029
20728W        W36912   7.046  18.428   1.533  0.0282 -0.2264  0.1222
20729W        W36913  13.435  14.270  15.197 -0.0003  0.1759 -0.0788
20730W        W36914  18.351   1.790  13.045 -0.0493 -0.0198 -0.0568
20731W        W36915   5.963   3.563  10.776  0.1612 -0.0947  0.0112
20732W        W36916   5.059   4.398   4.409 -0.1699  0.2248 -0.0335
20733W        W36917  15.857  15.649   1.026  0.1794  0.1269  0.1777
20734W        W36918  17.117   5.548   4.317 -0.0507  0.0486 -0.0874
20735W        W36919  17.832   5.043   0.672 -0.1375 -0.0678 -0.0224
20736W        W36920   2.132   2.223   4.362  0.2821  0.0397 -0.0301
20737W        W36921  13.420   7.572  12.878 -0.1249 -0.1994  0.1669
20738W        W36922   3.331  17.094   2.254 -0.4426  0.1240 -0.1016
20739W        W36923   3.749   1.927   2.200  0.0799  0.1781 -0.2685
20740W        W36924  13.406  18.522   3.576  0.0276  0.3475 -0.0956
20741W        W36925   2.659  18.052   3.029 -0.0039 -0.0867  0.1721
20742W        W36926  11.110  13.969   0.217  0.0127  0.0738  0.0798
20743W        W36927  14.837  15.976   2.132  0.0541  0.0363  0.2591
20744W        W36928  14.447  13.996  13.165  0.2048  0.3261  0.3400
20745W        W36929   7.841  15.844   3.155 -0.3390 -0.1005 -0.1036
20746W        W36930  15.966   2.218   4.122  0.2906  0.1635 -0.0308
20747W        W36931   3.238   3.668   1.270  0.0338  0.0302 -0.1013
20748W        W36932  18.813   6.800  15.144  0.0474 -0.2384 -0.0917
20749W        W36933  15.341  16.949  14.439 -0.0044 -0.0590  0.1251
20750W        W36934   0.223  16.489   4.290  0.0023  0.1426  0.0576
20751W        W36935  14.351   5.714  13.599 -0.1294 -0.0391 -0.0393
20752W        W36936  17.303  11.926  12.043 -0.1535  0.0039  0.2000
20753W        W36937  14.905   9.110   0.826 -0.2292 -0.0740  0.3120
20754W        W36938  18.016  18.144   1.284 -0.1722 -0.0657  0.1396
20755W        W36939  17.823   1.046   5.161  0.0124  0.2297  0.0939
20756W        W36940  13.086   7.413   3.146  0.3134 -0.1471 -0.0784
20757W        W36941  10.573   7.158  12.067 -0.0812  0.0616  0.0827
20758W        W36942   4.950  11.313   1.482 -0.0206  0.1232  0.0953
20759W        W36943   4.681  12.540   0.436  0.1903 -0.2108 -0.2123
20760W        W36944   6.231   4.205  12.750 -0.1977  0.1462 -0.4442
20761W        W36945  14.539  16.817  12.488  0.1511  0.1060  0.1312
20762W        W36946  14.639  10.853   3.506 -0.0601  0.0584  0.3561
20763W        W36947   1.142   2.258  14.875  0.1590 -0.4301  0.0750
20764W        W36948   5.420  14.683  12.119  0.0170  0.2039  0.1503
20765W        W36949   1.878   9.671  10.923  0.4025  0.2185  0.2352
20766W        W36950   7.349  17.079  13.237  0.0711 -0.1358  0.0089
20767W        W36951   8.230  10.254   0.849  0.1517 -0.0183  0.2248
20768W        W36952  13.629   0.692   3.077  0.0187 -0.1764 -0.0948
20769W        W36953  13.949   1.931   0.687 -0.0313 -0.1117 -0.1209
20770W        W36954  18.886  11.047   3.581 -0.4694  0.0489 -0.1099
20771W        W36955  15.151  15.062  14.890  0.0235  0.1873 -0.1929
20772W        W36956   5.721   5.756  12.374 -0.2890  0.0222  0.2777
20773W        W36957   0.012   1.739   2.515  0.0107 -0.3050  0.0232
20774W        W36958   8.011   7.722   0.437 -0.5088  0.0855  0.1532
20775W        W36959   3.328   8.467  12.091  0.2922  0.0093  0.0496
20776W        W36960   4.661   8.704  14.679 -0.0287 -0.0942  0.2518
20777W        W36961  11.936   3.601  12.223  0.4727  0.1279 -0.0229
20778W        W36962  13.485  16.318   4.179  0.0024 -0.0224  0.1807
20779W        W36963  15.596   4.644  10.891 -0.2429  0.0037 -0.0811
20780W        W36964  10.960   4.300  11.577  0.1111 -0.1489  0.0148
20781W        W36965   3.837   2.783  12.322 -0.2058 -0.0932 -0.0735
20782W        W36966  12.545   7.058   3.111 -0.0254 -0.1832 -0.1361
20783W        W36967   7.473   0.313  14.729 -0.2103  0.2055  0.1337
20784W        W36968  11.148  10.716   0.584  0.0374 -0.1484  0.0171
20785W        W36969   9.981  16.718  11.873  0.1321  0.4768  0.3899
20786W        W36970  18.484   0.848  11.256  0.4471 -0.1159  0.1163
20787W        W36971   1.498  13.274   1.464 -0.0114  0.1300 -0.1556
20788W        W36972   4.072   4.607   2.139 -0.2334 -0.2815 -0.0211
20789W        W36973   8.262   7.311   5.331 -0.0791  0.2306  0.3610
20790W        W36974   5.200  14.222  10.947  0.2406  0.1985  0.2572
20791W        W36975  12.207   8.270   0.995 -0.2887  0.0256  0.1814
20792W        W36976   4.528   7.026   4.376 -0.0284 -0.0065 -0.0680
20793W        W36977   7.438  10.948  11.140  0.1690  0.1950 -0.1126
20794W        W36978   1.282   6.606   0.610 -0.1129 -0.0727  0.0413
20795W        W36979  10.549  18.990   4.646  0.1596 -0.0430  0.3026
20796W        W36980   9.575  10.236   3.941 -0.0137 -0.1688 -0.2167
20797W        W36981  14.043  11.903   3.310  0.0276 -0.2547  0.1632
20798W        W36982   0.899  13.236   0.959  0.1451  0.0734 -0.2259
20799W        W36983   3.466   7.677  12.165  0.0373 -0.3588  0.0847
20800W        W36984   3.460   8.546  11.220 -0.1303  0.2903  0.1413
20801W        W36985  14.441  11.788   3.569 -0.2635 -0.0108  0.1468
20802W        W36986  17.953   6.039   1.507  0.2928 -0.2811  0.2121
20803W        W36987  17.292   5.128   4.022 -0.1754 -0.1129  0.3870
20804W        W36988   2.710   9.444  12.156  0.0974  0.2168 -0.1111
20805W        W36989  14.864   7.856  11.342  0.1199  0.1435  0.0066
20806W        W36990   4.105   0.867  12.132  0.1047  0.0602 -0.2903
20807W        W36991   5.746   7.998   4.753  0.1266  0.0359 -0.0739
20808W        W36992  17.915  13.373  13.012  0.2963  0.0281  0.0837
20809W        W36993   9.957  13.049   0.099 -0.0326 -0.0034  0.2489
20810W        W36994   8.720   5.539   3.817  0.0483 -0.2608 -0.3724
20811W        W36995   4.560   3.381   2.459 -0.1239  0.0835 -0.2017
20812W        W36996   1.914   8.151  10.636  0.2140 -0.1007  0.1331
20813W        W36997  11.796  15.894   4.329 -0.3686 -0.0196  0.1744
20814W        W36998   6.575  16.035   0.173  0.1279 -0.1585  0.1760
20815W        W36999  10.419  15.914   3.405  0.0193  0.0024  0.0508
20816W        W37000  11.316   6.869   1.446  0.0880  0.1144  0.1922
20817W        W37001   6.228  10.571   4.188  0.1270 -0.1232 -0.0732
20818W        W37002   3.659  14.811  15.075 -0.1501  0.1683  0.4267
20819W        W37003   6.224   9.066  13.706 -0.1851 -0.0369  0.2130
20820W        W37004  17.897   0.424  13.981 -0.5114 -0.1701 -0.1637
20821W        W37005   3.972   7.363  12.104  0.1556 -0.1240 -0.0354
20822W        W37006   1.388   6.568  11.570  0.0368  0.0036  0.3452
20823W        W37007  18.427  14.651  14.831 -0.0130  0.3359  0.0230
20824W        W37008   5.656  18.137  14.603 -0.0458  0.2259 -0.2473
20825W        W37009  12.658   3.095  13.275  0.1388  0.1139 -0.3257
20826W        W37010  18.366  14.353  10.453 -0.5266 -0.0577 -0.1363
20827W        W37011   3.354  14.461  14.163 -0.2310  0.1831  0.0307
20828W        W37012   3.264  15.138   3.702  0.0043 -0.0583 -0.0204
20829W        W37013  11.334  15.671   0.523  0.0756 -0.1631  0.0225
20830W        W37014   3.777  10.272   4.042  0.1701 -0.2893 -0.1437
20831W        W37015  10.277   7.379   0.617 -0.0864  0.0250  0.0688
20832W        W37016  11.991   3.302  10.863 -0.1193  0.2441 -0.0243
20833W        W37017  17.290   8.770  12.069 -0.3386 -0.1209 -0.0928
20834W        W37018   4.864  14.680   0.556  0.2006 -0.0430 -0.0884
20835W        W37019   0.703  11.780   0.777 -0.0152 -0.1287  0.0658
20836W        W37020  14.017  15.174   3.465 -0.0458  0.0260 -0.2782
20837W        W37021   6.755   0.109   3.380  0.4430  0.0577 -0.1974
20838W        W37022  11.959  10.088   3.761  0.3502 -0.1571  0.3570
20839W        W37023   0.597  18.992  12.249 -0.0838 -0.1835  0.0755
20840W        W37024   2.263   5.985  11.281  0.2788  0.0351 -0.2392
20841W        W37025   9.389  11.505   5.891  0.1029 -0.2629 -0.0571
20842W        W37026  10.522   9.938  15.014 -0.2008 -0.1584 -0.3890
20843W        W37027  11.438  16.134  10.949 -0.1145  0.1612 -0.2641
20844W        W37028  16.616  12.969  11.818 -0.1311  0.0740  0.1053
20845W        W37029   4.737  17.206  13.821 -0.3915 -0.4392 -0.3274
20846W        W37030   9.760   9.820   4.825 -0.0892 -0.0883 -0.0453
20847W        W37031   0.339   0.517   3.587 -0.0598  0.0759  0.1525
20848W        W37032  11.405   9.496  13.022 -0.0623 -0.0642  0.2426
20849W        W37033   8.897   0.400  14.821  0.0923  0.0802  0.0727
20850W        W37034  12.421  10.182   1.603  0.0544  0.1336 -0.5451
20851W        W37035  14.987  11.826   3.269 -0.0253 -0.0848 -0.0707
20852W        W37036   9.457  10.127   0.130  0.0130  0.7443  0.0089
20853W        W37037  10.829   6.706   3.520  0.2925 -0.0185  0.3345
20854W        W37038   9.184   4.346   0.651  0.2152  0.1391  0.0667
20855W        W37039   6.255   5.428   2.068 -0.2706  0.1299 -0.2814
20856W        W37040  11.492   6.798   0.939 -0.0718 -0.1357  0.1678
20857W        W37041  12.202   8.147  10.520 -0.0419 -0.0533  0.2655
20858W        W37042  13.023   3.277  12.141  0.0176 -0.2651 -0.0679
20859W        W37043   5.709   0.882   3.070  0.0416  0.0273 -0.2965
20860W        W37044  18.607   6.274   2.325 -0.2897 -0.0766 -0.4007
20861W        W37045  18.401  14.230   2.028 -0.1282  0.2634 -0.2267
20862W        W37046  11.546   9.459  14.146  0.2237  0.2982  0.0512
20863W        W37047  12.955   7.460   4.748 -0.2296 -0.2492  0.0626
20864W        W37048   1.792   1.557   1.392 -0.0433 -0.2498  0.1028
20865W        W37049   3.905   3.556   3.297 -0.1129  0.1770 -0.0220
20866W        W37050  14.600  15.448   1.431 -0.2000  0.2026 -0.2185
20867W        W37051   8.668   6.343  11.779 -0.0842  0.1244 -0.2396
20868W        W37052   1.130  18.805   0.284 -0.2774 -0.0595  0.1925
20869W        W37053  15.279  11.895   1.959  0.0403  0.0860 -0.1025
20870W        W37054   2.506   8.521   5.765 -0.2640  0.5648  0.1268
20871W        W37055  13.256   8.586   3.229  0.3996 -0.1416  0.0581
20872W        W37056  15.934   8.820  12.625  0.0351  0.0596 -0.0603
20873W        W37057   7.316  11.001  12.678 -0.0276 -0.1417  0.0144
20874W        W37058   6.396   2.996   5.405 -0.0789 -0.0638  0.1721
20875W        W37059  10.662  14.202  12.409  0.4727 -0.3086  0.0539
20876W        W37060  13.231  18.876   1.422  0.1125  0.2435 -0.1110
20877W        W37061   5.073  17.840   3.344 -0.0621  0.1858 -0.0853
20878W        W37062   0.207  17.795  15.225  0.2569  0.1001 -0.1259
20879W        W37063  15.213  18.657   3.069 -0.0574 -0.0918  0.2488
20880W        W37064   1.140  16.785  10.821 -0.0268 -0.3778  0.3915
20881W        W37065   5.989  13.196   2.753 -0.0553 -0.3830 -0.1415
20882W        W37066   3.566   8.244   5.035  0.0225 -0.0884 -0.0261
20883W        W37067   3.198   8.648   4.170 -0.0629  0.0210  0.2931
20884W        W37068  13.688  10.616   2.807  0.2474  0.1913  0.0798
20885W        W37069   4.862  12.581   1.643  0.1077  0.1403  0.0456
20886W        W37070   4.288   1.972   0.043  0.2354  0.2656 -0.0541
20887W        W37071  13.953  17.481   3.103 -0.1439  0.1268  0.1590
20888W        W37072   1.133  15.748   3.367  0.1537  0.2389 -0.2668
20889W        W37073  15.374   3.612   4.817 -0.3581 -0.1185 -0.2591
20890W        W37074   7.592   4.196   3.198  0.0895  0.3110 -0.0031
20891W        W37075   6.964  10.218   2.079 -0.0212 -0.3976  0.0155
20892W        W37076  13.289  15.230   2.358  0.0517  0.1613  0.2543
20893W        W37077   4.869   3.999   3.367 -0.1400  0.3582 -0.0095
20894W        W37078  12.254   7.346   0.464 -0.0132 -0.0920  0.2915
20895W        W37079  14.275   9.714  11.157  0.0872 -0.0175 -0.0340
20896W        W37080  10.523   2.866   0.540  0.1444 -0.0700 -0.1750
20897W        W37081  14.969  15.619   9.918  0.0721 -0.0899  0.2611
20898W        W37082  17.428  16.754   3.664 -0.0734  0.2922  0.1463
20899W        W37083  18.563  14.873   1.733  0.2154  0.1154  0.0906
20900W        W37084  10.925   1.745  12.631  0.0098  0.1999 -0.0487
20901W        W37085  10.499  15.163   0.410 -0.3573 -0.0578 -0.0224
20902W        W37086  13.520   2.599   3.733 -0.1565 -0.1573 -0.0927
20903W        W37087   7.346   9.467   3.200 -0.0928  0.0003 -0.2728
20904W        W37088   5.763  10.877  11.921  0.1752  0.0937  0.0042
20905W        W37089   8.969   9.333  15.073  0.2258  0.0943 -0.1386
20906W        W37090  14.809  16.289  13.032  0.2984 -0.2236  0.0968
20907W        W37091   9.670   0.566   1.849 -0.2037  0.1098  0.1617
20908W        W37092   6.180   2.120   5.819 -0.1211  0.0784 -0.2338
20909W        W37093  13.180  14.734  10.800  0.0775  0.1543 -0.1970
20910W        W37094  18.528  15.576  14.120 -0.2343  0.2463 -0.0128
20911W        W37095   0.261   5.294   5.366 -0.0917 -0.0962  0.1528
20912W        W37096   2.420   0.107   2.272  0.4644 -0.0400  0.1507
20913W        W37097   5.027   9.488  14.679 -0.1160 -0.4462 -0.2363
20914W        W37098   9.339   2.068   2.789 -0.1257 -0.0646 -0.0384
20915W        W37099  16.645   6.546   0.377 -0.3382  0.2291  0.3480
20916W        W37100   5.747   4.884   5.060 -0.5894  0.2191 -0.0181
20917W        W37101   6.273  11.504  14.294 -0.2705  0.0065 -0.0423
20918W        W37102   7.439  14.077  11.328 -0.1084  0.1838 -0.0638
20919W        W37103  15.101  14.742  14.510  0.0626  0.1929  0.1008
20920W        W37104   2.008  15.342   1.539  0.0198 -0.2488  0.0684
20921W        W37105   8.679  14.066   0.775  0.0587 -0.0065 -0.2391
20922W        W37106  12.327  16.150   4.138 -0.2781 -0.0746  0.4520
20923W        W37107  11.113   5.216   1.673 -0.3600  0.0941  0.3356
20924W        W37108   2.435   1.940  12.467  0.0834 -0.0843 -0.0033
20925W        W37109  12.068  14.967   4.059  0.2534  0.0348  0.4203
20926W        W37110   2.272   7.223  12.541  0.0140 -0.1167 -0.2830
20927W        W37111   8.848   3.225   2.144  0.1838 -0.0296 -0.1853
20928W        W37112   5.949  10.032   3.031 -0.1698 -0.0487  0.4331
20929W        W37113   0.528  16.610  12.562 -0.1090  0.1526 -0.2534
20930W        W37114   5.395  14.489  14.438 -0.0709  0.1596 -0.4606
20931W        W37115  12.098   9.481   4.695  0.3850  0.3832  0.2889
20932W        W37116   9.543   5.766  13.590  0.2550  0.2832  0.1728
20933W        W37117  18.635  14.022  15.284 -0.1294  0.0149  0.3032
20934W        W37118  17.477   5.951  14.993  0.0135  0.1230 -0.0342
20935W        W37119  10.308   8.665  10.986 -0.0640  0.0909 -0.3310
20936W        W37120  11.581   7.037  14.389 -0.1322 -0.1375 -0.0983
20937W        W37121   0.606  12.356  12.518  0.1171 -0.3061  0.3375
20938W        W37122   2.918   4.532   5.807  0.2126 -0.2571  0.0614
20939W        W37123  15.333   6.731   0.131  0.1887  0.0102  0.2038
20940W        W37124  11.770  15.107  13.526  0.1725  0.0493 -0.2697
20941W        W37125   3.584   9.091   1.648  0.3610  0.1698  0.0261
20942W        W37126  18.732  15.277   3.618 -0.2162 -0.2272 -0.0510
20943W        W37127  10.704   8.977   2.778 -0.2679  0.2943 -0.0137
20944W        W37128   3.101  15.101   3.150  0.0793  0.0564  0.2373
20945W        W37129  10.064   8.849   5.407 -0.1820  0.2125 -0.0545
20946W        W37130   7.998  12.650   1.664  0.0064 -0.0505 -0.0267
20947W        W37131  15.974   0.202  15.263  0.0904 -0.0801 -0.3365
20948W        W37132  16.695   4.185  14.249 -0.1717  0.2249 -0.0835
20949W        W37133  18.799   2.120   5.250  0.0424 -0.1066 -0.2934
20950W        W37134   5.646   5.555   1.100 -0.0368  0.0100 -0.0522
20951W        W37135  14.402  18.186  14.335  0.0408  0.0185 -0.1711
20952W        W37136   3.428  18.014   2.382  0.0679  0.3297  0.2732
20953W        W37137   9.911   2.089  13.935 -0.1362 -0.0853 -0.0475
20954W        W37138   8.276   5.911   1.757 -0.1494 -0.0415 -0.2279
20955W        W37139   4.706   4.350   2.580  0.1425  0.2221  0.0363
20956W        W37140   3.256  15.846   0.390 -0.0897 -0.1350 -0.0189
20957W        W37141   2.835  18.673  14.306 -0.0282 -0.3709  0.2162
20958W        W37142  12.829   1.079   0.779  0.1485 -0.1855 -0.2133
20959W        W37143  17.852   8.995   2.428 -0.2585 -0.3325 -0.0526
20960W        W37144   8.068   2.241   0.510  0.2066 -0.2807 -0.1825
20961W        W37145  15.168  14.730  10.724 -0.0667 -0.0784 -0.0250
20962W        W37146   1.013   1.062  10.862  0.0085 -0.1064  0.0276
20963W        W37147   7.817   5.245   3.774  0.0960  0.0567 -0.2349
20964W        W37148   1.772  10.902  13.430 -0.0088 -0.1537  0.0054
20965W        W37149  18.852   6.643  12.774 -0.3773  0.0290  0.2596
20966W        W37150   9.198  11.384  10.958 -0.2371 -0.2241  0.0339
20967W        W37151  14.392   7.882  14.369  0.3537 -0.0991  0.1898
20968W        W37152  16.942   7.643   1.742 -0.2389  0.2028 -0.1715
20969W        W37153   6.015  14.134   3.204  0.1096  0.3888 -0.6356
20970W        W37154   1.441  18.462   4.399  0.2201 -0.1667  0.1312
20971W        W37155   5.067   1.007   3.061 -0.0905 -0.0318 -0.2229
20972W        W37156   8.392   2.307   1.419 -0.1648 -0.2052 -0.0027
20973W        W37157   6.333  15.049   0.947  0.3036  0.0916  0.2792
20974W        W37158   4.322  12.942   1.178 -0.2173 -0.1965  0.1641
20975W        W37159   1.246   9.965   3.430 -0.0480 -0.1342 -0.0637
20976W        W37160   6.891  13.036   0.851  0.0242 -0.2208 -0.4446
20977W        W37161   4.722   3.551  14.833 -0.1667  0.0747 -0.1390
20978W        W37162   9.641  14.953   0.251  0.3068  0.0052  0.2046
20979W        W37163   1.913  17.628   3.226 -0.0475  0.4588  0.1170
20980W        W37164  11.156  17.787   3.162 -0.1189 -0.2797 -0.1637
20981W        W37165  14.696   9.561   1.759 -0.1855  0.0387 -0.0439
20982W        W37166  14.132  10.615  12.824  0.0023  0.0174 -0.1428
20983W        W37167  15.581   6.577  10.584  0.0032  0.1257 -0.3043
20984W        W37168   5.890   4.175  14.161  0.0923  0.0136  0.0103
20985W        W37169   4.617  12.466   2.017  0.2947  0.0424  0.1263
20986W        W37170  12.992   7.559   0.765  0.3313  0.0717 -0.1547
20987W        W37171   6.535  16.637   5.643  0.2345  0.0307 -0.0121
20988W        W37172   1.578   8.624   2.816  0.1429  0.0205 -0.1254
20989W        W37173   4.508  16.037  11.514  0.0464 -0.0065  0.1987
20990W        W37174   6.000   6.759   0.156  0.0199 -0.1112  0.2635
20991W        W37175   5.941  11.328   2.020  0.2390  0.0636 -0.2533
20992W        W37176   6.035  17.335  13.807  0.0291 -0.0972  0.2802
20993W        W37177   0.298   9.912   2.768 -0.3390  0.3620 -0.0828
20994W        W37178  17.228  10.150   5.182  0.2163 -0.0859  0.1432
20995W        W37179  10.176  13.350  14.489  0.0642 -0.3008 -0.3390
20996W        W37180   2.172   9.961   3.278 -0.0449  0.0384  0.2346
20997W        W37181  18.165  10.265   2.282  0.1882 -0.0377  0.0612
20998W        W37182  11.514   3.732   4.582  0.1221  0.0575  0.4845
20999W        W37183   9.297  12.928  14.708  0.0491 -0.3066 -0.1554
21000W        W37184  18.082  17.059   0.440 -0.4080  0.0652  0.0779
21001W        W37185   0.819   4.172   0.451  0.1442  0.3711  0.2042
21002W        W37186  16.255   7.306  12.169  0.1598  0.2844  0.0549
21003W        W37187   8.628  12.344   5.796  0.3833  0.0270  0.1529
21004W        W37188   5.707   2.100  12.483  0.2370 -0.0139 -0.0222
21005W        W37189   7.778   9.730  10.820  0.2321  0.3790 -0.2324
21006W        W37190   5.061   5.644  11.136  0.0960 -0.2205 -0.0715
21007W        W37191   0.733   3.275  11.640  0.1839 -0.1198 -0.1353
21008W        W37192   0.986  11.584   1.163  0.1734 -0.1328  0.2367
21009W        W37193  18.691   3.313   4.585 -0.0635 -0.1619 -0.0646
21010W        W37194   3.037  17.269   1.273  0.3614 -0.3050 -0.2760
21011W        W37195   5.607   7.473   1.382  0.1542 -0.0482  0.2179
21012W        W37196   8.723   7.680  11.131 -0.3378  0.0753 -0.0093
21013W        W37197   4.852  16.362   9.536  0.0878 -0.1007 -0.1087
21014W        W37198   9.393  11.391   4.317 -0.1445 -0.3118 -0.2641
21015W        W37199   5.112   6.752  14.160 -0.3570 -0.0522 -0.0111
21016W        W37200   2.440  14.620   3.643 -0.1357  0.2668  0.1773
21017W        W37201  12.524  16.017   2.586 -0.0722  0.1857  0.0636
21018W        W37202  12.656   7.814   4.877 -0.0091 -0.1118 -0.1391
21019W        W37203   9.216   5.669   5.973  0.0980 -0.0175  0.1110
21020W        W37204  16.330  13.285   4.924  0.1938  0.4047  0.0670
21021W        W37205  11.950   4.131  14.530  0.2431  0.0050  0.0302
21022W        W37206   2.502  13.185   1.535  0.4430 -0.3841  0.0964
21023W        W37207   0.384   8.940  13.962 -0.2946  0.1776 -0.0433
21024W        W37208   4.923   4.675   6.048 -0.0949  0.1203  0.5031
21025W        W37209   8.834  12.592  11.558  0.0348  0.1519  0.1408
21026W        W37210  12.533  16.144   0.611 -0.1796  0.0548  0.1604
21027W        W37211  15.236  14.216   5.083 -0.1250 -0.0606  0.3488
21028W        W37212   2.578  18.145   1.123 -0.0707 -0.0951 -0.1700
21029W        W37213  17.404   6.327  14.686 -0.0224  0.4543 -0.2750
21030W        W37214   7.462  14.593  13.389  0.1000  0.3028  0.3533
21031W        W37215   5.424   2.221  12.108  0.0214 -0.0539  0.1295
21032W        W37216   1.008   9.289  13.360  0.2387 -0.1302  0.0476
21033W        W37217   2.223  14.969   3.973 -0.0078 -0.0556 -0.0131
21034W        W37218   7.882  18.955   0.642 -0.0283  0.1078 -0.1009
21035W        W37219  18.669  14.915  12.135 -0.0903 -0.2770  0.4738
21036W        W37220  18.795   9.174   2.791  0.1099 -0.3243 -0.2584
21037W        W37221  11.439  18.416  10.952  0.2071  0.0491  0.1007
21038W        W37222   3.836   9.682  13.714  0.1418 -0.1844 -0.2906
21039W        W37223  11.349   8.616   9.445  0.1377 -0.1452  0.0550
21040W        W37224  15.372   5.589   3.346  0.0803 -0.1419  0.0980
21041W        W37225   1.855  10.066   0.452  0.2067  0.3356 -0.0063
21042W        W37226   4.359  16.271   2.344 -0.3083  0.1925 -0.2385
21043W        W37227  16.331   4.673  10.994  0.0052  0.0771 -0.0127
21044W        W37228   6.746  14.475  10.306 -0.0557 -0.0810  0.2071
21045W        W37229  10.006   2.216  13.422  0.0065 -0.2246  0.1080
21046W        W37230   2.319  16.312  13.671  0.0856 -0.0702  0.0147
21047W        W37231  17.349   6.939  11.286  0.0927 -0.0372 -0.2139
21048W        W37232  12.842  12.164   4.115  0.3255 -0.1727 -0.0098
21049W        W37233   7.957  18.357  13.670 -0.2267  0.1523  0.1877
21050W        W37234  15.059   3.150   3.081 -0.0014  0.3260  0.0890
21051W        W37235   4.755   6.482   0.108  0.0010  0.1223 -0.0551
21052W        W37236   4.238  11.582  11.168 -0.0887  0.2413 -0.0628
21053W        W37237   3.804  10.440   4.511 -0.0334 -0.1290 -0.3296
21054W        W37238   5.601  13.019   1.661 -0.1729  0.2621 -0.1105
21055W        W37239  17.320  14.736   2.700 -0.4158 -0.0206 -0.0163
21056W        W37240   3.119   6.700  14.413 -0.2097  0.2025 -0.3206
21057W        W37241  13.665   7.758   0.442  0.1476 -0.0137 -0.1520
21058W        W37242   7.881   6.044   1.271 -0.0325 -0.1983  0.1673
21059W        W37243   7.288   5.116   1.190  0.1152 -0.1332  0.3747
21060W        W37244   9.064   1.771  14.794  0.3234  0.2333  0.0193
21061W        W37245   3.517   3.025  14.712  0.2355 -0.1543  0.2814
21062W        W37246   5.855  15.799   4.225 -0.0092 -0.0443 -0.2494
21063W        W37247  13.234  17.062   4.784 -0.0104  0.0564  0.0959
21064W        W37248  15.038   8.444  11.943  0.0636  0.1145 -0.0000
21065W        W37249  18.404  11.956   1.970 -0.0127  0.2333 -0.0123
21066W        W37250  12.220   3.697  14.309  0.0114 -0.4764 -0.0645
21067W        W37251   6.084   1.875  14.691  0.0344  0.0170 -0.0196
21068W        W37252  15.090   8.212  12.714 -0.2036  0.0586 -0.0106
21069W        W37253   8.026  16.056  13.503  0.3221 -0.0435 -0.0036
21070W        W37254  17.576   6.944  10.259  0.0272 -0.0718  0.0809
21071W        W37255  15.315   3.253   1.544 -0.0233  0.0388  0.0489
21072W        W37256  11.731  18.950   0.508  0.1698 -0.1043  0.2445
21073W        W37257  14.209   3.594   4.364  0.2608 -0.1400 -0.2224
21074W        W37258   0.105  14.532   4.651  0.1210 -0.1988 -0.1648
21075W        W37259   2.771   8.283   1.770  0.2911 -0.1347 -0.1239
21076W        W37260   6.511   2.121  11.339  0.2537 -0.2845 -0.0245
21077W        W37261  13.316   3.676   3.848 -0.0499 -0.0439 -0.0218
21078W        W37262  17.589   8.497  14.807 -0.0554  0.1333  0.1025
21079W        W37263  17.127  10.324  14.904 -0.2474 -0.3291 -0.0750
21080W        W37264  12.149   8.850  11.469  0.1552 -0.2331  0.0208
21081W        W37265   2.960  12.725  13.352  0.4068  0.3395  0.0365
21082W        W37266  11.606  18.551   3.356 -0.0512  0.1432 -0.2931
21083W        W37267   2.712   1.262   5.796  0.1357 -0.5131 -0.0687
21084W        W37268   9.058   4.283   5.618  0.0314  0.2223  0.0245
21085W        W37269   5.534  10.298  15.232  0.1379  0.1950 -0.0027
21086W        W37270  11.322  14.855   0.449  0.1667 -0.2232 -0.0388
21087W        W37271  18.714  12.022  13.025 -0.0323 -0.0707  0.0470
21088W        W37272   8.498   7.551  12.541  0.2695  0.0069 -0.0875
21089W        W37273   5.858  18.725  10.858 -0.3349  0.1310 -0.2532
21090W        W37274  12.454   1.436   9.475 -0.0184  0.1377  0.2083
21091W        W37275   0.006   2.461   2.780 -0.1185 -0.0914  0.3285
21092W        W37276  14.217   1.033  15.081 -0.1138 -0.1766  0.1316
21093W        W37277   9.698  17.116   2.918 -0.2712  0.0666 -0.1644
21094W        W37278  15.452   0.715   2.376 -0.0756  0.0014 -0.0231
21095W        W37279  15.213   8.035   2.796 -0.1158 -0.1200 -0.1938
21096W        W37280  11.788   9.756  12.696 -0.2455 -0.0821 -0.3358
21097W        W37281   9.898   8.080   4.537 -0.0683 -0.0815 -0.1649
21098W        W37282  17.748  10.842  12.047  0.3565 -0.0431  0.1459
21099W        W37283  17.872   9.609  10.812 -0.3508  0.2245 -0.2702
21100W        W37284   8.699  11.656  13.219 -0.0206 -0.1388  0.5232
21101W        W37285  16.326  16.888  10.698 -0.1409 -0.0094  0.3941
21102W        W37286  18.063  12.686   0.488 -0.0724  0.0569  0.0641
21103W        W37287   1.323  16.630  14.992 -0.1962  0.1539 -0.1580
21104W        W37288  16.098   4.414   1.015 -0.1588 -0.0894 -0.0511
21105W        W37289   8.869   9.183  13.242  0.1254  0.0864  0.0635
21106W        W37290  15.607  17.739  15.306 -0.0742  0.0837 -0.1407
21107W        W37291   9.094   2.084  15.174  0.0179  0.0899  0.0535
21108W        W37292  14.685   4.660  13.718 -0.3312 -0.0720  0.0673
21109W        W37293   9.900   7.123   2.442  0.1716  0.2557  0.0195
21110W        W37294  17.420  18.892   2.350 -0.3195 -0.1491 -0.1408
21111W        W37295  17.615  18.805   5.817  0.2745 -0.0990  0.1129
21112W        W37296  16.898   4.465   3.445 -0.1447  0.1258 -0.1206
21113W        W37297   4.762   4.067  12.583 -0.1228 -0.0050 -0.1403
21114W        W37298  15.576   9.133  12.334 -0.1450 -0.1844 -0.0325
21115W        W37299  13.289  12.503  14.582 -0.0407  0.0119 -0.1528
21116W        W37300   6.983  13.869  11.535 -0.0608  0.0442 -0.1119
21117W        W37301   3.038   2.750  13.456 -0.1604  0.0831  0.0066
21118W        W37302  18.518   0.708   0.287  0.0844 -0.1458 -0.3309
21119W        W37303   1.530   7.140  15.351  0.0279 -0.3559 -0.3001
21120W        W37304  16.996  12.520   4.675  0.1583  0.0712  0.0115
21121W        W37305  11.588  11.671  10.336 -0.2577  0.0516  0.1893
21122W        W37306   8.474  17.429  15.338  0.0691 -0.0771 -0.1739
21123W        W37307  17.744   3.519  13.131  0.0629  0.0321  0.0769
21124W        W37308   2.575   7.601  12.774 -0.1175 -0.0183  0.0348
21125W        W37309   0.676  17.575  14.079  0.1099 -0.1721 -0.0295
21126W        W37310   8.836  17.406  13.793  0.1095 -0.1380  0.1437
21127W        W37311   7.275   4.101   1.508  0.0166 -0.1210 -0.1285
21128W        W37312   4.788   1.563  11.015  0.0403 -0.3220  0.3788
21129W        W37313  11.832   4.950  13.454  0.1270  0.0833  0.0386
21130W        W37314   5.831  12.749   2.596  0.1355  0.0041  0.1559
21131W        W37315   0.368   2.431   1.576 -0.0442 -0.1221  0.3138
21132W        W37316  15.265  16.836   0.399  0.0933  0.0484 -0.1696
21133W        W37317   9.489   2.104   2.136 -0.1118  0.0435 -0.1732
21134W        W37318   7.313  13.836  10.678 -0.2891 -0.0772 -0.0761
21135W        W37319   0.947   5.445   0.171 -0.1817 -0.2504 -0.1161
21136W        W37320   8.976   0.642  12.635  0.0111 -0.1704 -0.1469
21137W        W37321  18.182   3.767  13.012 -0.3386  0.3680  0.1427
21138W        W37322  18.521   2.433  11.328 -0.0731 -0.1803 -0.5063
21139W        W37323  13.442  15.739   4.689 -0.2303 -0.5163 -0.0852
21140W        W37324  17.411   2.119   1.152 -0.0020  0.1416 -0.1019
21141W        W37325   5.603  18.494  13.112  0.1302 -0.1510 -0.0869
21142W        W37326   0.797  16.712  11.169  0.1317 -0.4622  0.2553
21143W        W37327   2.287  14.668   3.088  0.0627 -0.0017 -0.0818
21144W        W37328  11.077  12.697  11.025  0.1523  0.0143  0.2139
21145W        W37329   7.279   2.713   2.172  0.0044 -0.0366 -0.1594
21146W        W37330   4.313  11.427  13.596  0.1800  0.2318 -0.1928
21147W        W37331   3.457  13.945  11.958 -0.0253 -0.1422 -0.1169
21148W        W37332   3.813  16.475  12.478  0.1674 -0.2383  0.1263
21149W        W37333  16.900  17.545   2.447  0.0104 -0.0414 -0.2802
21150W        W37334   8.246   9.938   1.336 -0.1068  0.0755 -0.1636
21151W        W37335  17.505   7.973  13.115  0.1576  0.0697  0.0971
21152W        W37336  16.802   9.176   4.930  0.1327 -0.1623  0.0199
21153W        W37337  10.536   3.503  11.992 -0.1973 -0.1442 -0.2515
21154W        W37338   7.779  14.156  13.383 -0.0821 -0.0299 -0.2272
21155W        W37339   0.907  11.678  11.085 -0.1866  0.1650 -0.0303
21156W        W37340   7.270   5.642  12.774 -0.0894  0.0957  0.1084
21157W        W37341   9.168   9.929  14.268 -0.1306  0.0741  0.2757
21158W        W37342   3.242   5.839   4.019  0.0689 -0.0707  0.2928
21159W        W37343   5.103  15.317   4.040  0.1844  0.0847  0.1493
21160W        W37344  18.652  10.160   1.010  0.0379 -0.3751  0.0951
21161W        W37345  16.265  11.814  11.138  0.1621  0.0301 -0.0509
21162W        W37346  13.295  18.335  13.241 -0.0563 -0.3258 -0.0187
21163W        W37347   3.966   6.915  15.039  0.0904 -0.3368 -0.2828
21164W        W37348   9.752  13.983   3.988  0.1438 -0.1879 -0.0894
21165W        W37349  18.958  14.071   4.559 -0.3753 -0.3310  0.3502
21166W        W37350   2.143  15.295   0.562 -0.0539 -0.1214  0.1101
21167W        W37351  18.472  15.308   3.193  0.1318  0.0572 -0.3484
21168W        W37352  16.876   3.727  11.876  0.1447 -0.1898 -0.3816
21169W        W37353   4.188   0.516  11.679  0.1515  0.0310  0.1674
21170W        W37354  10.147  15.569   4.933  0.2636  0.3672  0.0131
21171W        W37355   1.572   8.589  10.662  0.2464  0.0185 -0.1903
21172W        W37356  17.336  15.593  11.691  0.0337 -0.1012 -0.0097
21173W        W37357   7.377   4.796   2.306  0.0170 -0.0844 -0.2124
21174W        W37358   9.686   3.712  15.056 -0.0969 -0.0626  0.2893
21175W        W37359   5.118   2.105   2.392 -0.0316  0.1409 -0.0935
21176W        W37360   4.185   9.875   6.060 -0.0647  0.3250 -0.0029
21177W        W37361   9.558   3.426   0.473  0.3517  0.2554  0.1891
21178W        W37362  18.311   7.201   4.760  0.0557  0.2008 -0.2175
21179W        W37363   9.668  12.769  13.189  0.2104  0.0580  0.2165
21180W        W37364   5.089  10.351  14.257  0.0048  0.3100 -0.1051
21181W        W37365  10.545   4.644  14.133  0.4069 -0.2019  0.3208
21182W        W37366  14.022  10.658   2.194  0.1133  0.0629 -0.0360
21183W        W37367   2.992  15.598   3.930  0.1379 -0.3123 -0.0896
21184W        W37368  18.730  11.385  11.799  0.1567  0.0454 -0.3134
21185W        W37369  10.996  13.227  10.953  0.0853  0.3625  0.1064
21186W        W37370  14.750   5.255  12.932 -0.1184 -0.1761  0.1445
21187W        W37371   7.429  13.757  13.829  0.1293 -0.0082 -0.0548
21188W        W37372  16.622  16.499  10.880  0.0004 -0.1736  0.0253
21189W        W37373  16.122  16.335   4.523 -0.2025  0.2953  0.2002
21190W        W37374   9.489   4.596   3.077  0.0134  0.5173  0.1002
21191W        W37375  15.659   7.541  14.503  0.0998 -0.2001 -0.3425
21192W        W37376   7.375   1.536   1.459  0.2604 -0.4177  0.2377
21193W        W37377  17.666   4.254   1.331 -0.2584  0.1193  0.2858
21194W        W37378  13.566   5.030  14.722  0.1125  0.0552  0.0368
21195W        W37379   7.964  10.852  11.663  0.1791 -0.0935 -0.1834
21196W        W37380   8.852  17.294  13.202  0.2930  0.1121  0.0846
21197W        W37381   3.334   4.631   0.358  0.1509  0.1408 -0.0341
21198W        W37382  12.775   4.582   4.702  0.1277 -0.2114  0.0033
21199W        W37383  17.067  17.319   2.056 -0.0194 -0.0061  0.2446
21200W        W37384   3.325  10.413  13.934  0.0494 -0.3422 -0.2430
21201W        W37385  18.019   9.942   3.163  0.2499 -0.3712  0.1109
21202W        W37386  12.350   5.778  11.013  0.0789  0.0926  0.1057
21203W        W37387  16.060  15.439  10.716 -0.1687  0.0923 -0.0923
21204W        W37388   7.662  12.547   2.154 -0.3231  0.2081 -0.0307
21205W        W37389   1.484   2.977   1.175  0.0447 -0.0275  0.1366
21206W        W37390  17.338  14.890  12.943 -0.0259  0.1150 -0.0123
21207W        W37391   5.543  16.026  12.903  0.0226  0.0936 -0.0640
21208W        W37392   4.440  15.015   4.674  0.3425  0.0474 -0.0596
21209W        W37393   4.207  14.606   4.926 -0.1432  0.1059  0.1493
21210W        W37394   5.732   9.971   3.798 -0.0702  0.1070 -0.1678
21211W        W37395   4.692   2.353  14.083  0.3452  0.0113 -0.3733
21212W        W37396   9.019   8.288   4.825 -0.0537  0.1097 -0.2270
21213W        W37397  13.976   3.359   2.075 -0.2338  0.0394 -0.0151
21214W        W37398  18.959   5.048   2.864  0.1560  0.2952 -0.1509
21215W        W37399  17.346  10.777  14.804 -0.0328  0.2046  0.0627
21216W        W37400  18.141   2.283   2.864  0.1819 -0.0559 -0.1680
21217W        W37401  14.616  17.645   2.866 -0.0597  0.3483 -0.0674
21218W        W37402  15.161  16.346  14.931 -0.0214  0.3654 -0.2760
21219W        W37403   0.315  13.564  12.586  0.0438 -0.3603  0.2412
21220W        W37404   1.336   1.008   1.023  0.0235  0.0471  0.1952
21221W        W37405   5.042  14.577  12.450 -0.1512 -0.1979 -0.0363
21222W        W37406   4.683   0.618  14.866  0.0294  0.1771  0.1021
21223W        W37407   6.700   3.737   2.650  0.0317  0.3514 -0.1046
21224W        W37408  13.521  14.386  10.523  0.1092 -0.4209  0.1404
21225W        W37409  14.572   0.938   0.320 -0.2981  0.3156  0.0219
21226W        W37410  18.682  13.659   1.536 -0.0595 -0.1882 -0.2414
21227W        W37411  17.680  17.220  10.076 -0.0089  0.4540  0.1928
21228W        W37412  18.771  16.799   5.461 -0.1751 -0.0489 -0.1113
21229W        W37413   2.846   4.494   3.344 -0.1025  0.1813  0.1973
21230W        W37414  18.013   0.373   3.832  0.2999  0.0541 -0.0419
21231W        W37415  15.103  17.775   4.567 -0.2178 -0.1969  0.0433
21232W        W37416   3.850   1.761  15.123  0.3065  0.4451 -0.2039
21233W        W37417   6.678   6.018   3.816 -0.2589  0.0133  0.0415
21234W        W37418   1.910  13.174   3.390 -0.3911 -0.1412  0.2261
21235W        W37419  14.314   2.332  10.718  0.3053 -0.1215 -0.1182
21236W        W37420   3.525   4.581   9.924 -0.2275  0.1192 -0.0708
21237W        W37421  12.346  10.186   2.747  0.1287  0.1878 -0.1298
21238W        W37422  17.157  17.442   2.894  0.0993  0.5557  0.0953
21239W        W37423   2.831   6.817  11.490 -0.0691  0.0743 -0.4403
21240W        W37424  13.514  18.449  12.806 -0.0934 -0.0120  0.0736
21241W        W37425   9.417   8.313  13.604 -0.0171 -0.1589 -0.1179
21242W        W37426   0.036   3.197   3.224  0.2976  0.0004  0.1683
21243W        W37427   0.838  12.362  10.754  0.2425 -0.0161 -0.3768
21244W        W37428  15.530   0.519  15.370 -0.1522  0.2332  0.2019
21245W        W37429  14.595  11.776  12.732  0.0076  0.2725 -0.3014
21246W        W37430  17.172   8.207  13.332 -0.0921 -0.0767 -0.2386
21247W        W37431  13.537   2.714  10.949 -0.0504 -0.3936 -0.3184
21248W        W37432   6.798   1.157   2.128  0.0946  0.2631 -0.1066
21249W        W37433   2.705   0.240  13.692  0.2714  0.1672 -0.3649
21250W        W37434  11.048  12.821   4.122  0.2799  0.4630  0.0782
21251W        W37435   8.677  17.078   1.507 -0.0899  0.4119  0.1577
21252W        W37436  15.574   5.334   2.922  0.1197  0.1483  0.1324
21253W        W37437   1.442   2.246   0.067  0.3875  0.0817  0.1834
21254W        W37438  12.003  18.910  13.309  0.0493 -0.0925  0.1097
21255W        W37439  16.081  10.317  15.284 -0.2172 -0.0916  0.3014
21256W        W37440   0.716   4.180   0.945 -0.1212 -0.1327  0.2259
21257W        W37441   1.412  12.737  12.656  0.2428  0.0027 -0.5105
21258W        W37442  15.728  14.776  13.239  0.1517  0.1612 -0.1185
21259W        W37443   0.073  16.823  11.905 -0.2896  0.1039  0.1307
21260W        W37444  17.879   6.009  14.747  0.0406 -0.0684  0.0744
21261W        W37445   4.259   5.537  12.084 -0.0817  0.0470  0.0643
21262W        W37446  11.769   6.137   3.170 -0.1180  0.0736 -0.1438
21263W        W37447  12.614  15.700  14.232  0.0722  0.1521  0.1421
21264W        W37448  10.338   1.091  14.835 -0.0744  0.3755  0.2854
21265W        W37449   9.491  16.437   2.688  0.0921  0.2666  0.1132
21266W        W37450   5.840  17.260  12.021  0.1034  0.2582 -0.1867
21267W        W37451  18.712  10.188   2.373 -0.2723 -0.0412 -0.1673
21268W        W37452   4.507  18.111  13.829  0.0169 -0.2541 -0.0156
21269W        W37453   8.685   8.548   1.212 -0.0575  0.2712 -0.2968
21270W        W37454   1.327   5.612   5.156  0.0907 -0.0649 -0.2338
21271W        W37455  18.998   5.324   4.986 -0.0345 -0.0424  0.2757
21272W        W37456   5.106  13.005   1.688  0.1698  0.0467  0.1105
21273W        W37457   8.669  17.936   4.039 -0.2215  0.0814  0.0283
21274W        W37458   0.901   0.926  12.199  0.1787 -0.2396 -0.2244
21275W        W37459   9.276  12.993   3.430 -0.1332 -0.1327  0.0177
21276W        W37460  10.671  12.653   1.466  0.1831  0.1196 -0.3503
21277W        W37461   6.746  18.722  14.887 -0.3092 -0.1653 -0.2463
21278W        W37462   3.869   2.245   3.310  0.2958  0.0991 -0.1223
21279W        W37463  13.004   6.901   3.396  0.0517  0.0399  0.1088
21280W        W37464  15.817   2.958   1.398  0.2557  0.0830 -0.2413
21281W        W37465   5.757   3.039  14.662 -0.0293  0.0882  0.0184
21282W        W37466   0.223  13.874  13.540  0.1731 -0.2469 -0.1695
21283W        W37467  11.672   4.691   0.934 -0.1501  0.4802 -0.2669
21284W        W37468  13.012   4.366   0.300  0.0237  0.3300  0.3819
21285W        W37469  17.709   3.498  14.915 -0.0690 -0.1531  0.0089
21286W        W37470   9.823   5.401   3.785 -0.1419  0.1164 -0.2014
21287W        W37471   0.142   6.687   2.520 -0.1565 -0.1775 -0.2013
21288W        W37472  14.219  12.334  13.550 -0.3025  0.0260 -0.0644
21289W        W37473   7.467   4.248   2.477 -0.0388 -0.1004 -0.2713
21290W        W37474  11.372   1.807   1.599 -0.1915 -0.0492  0.3932
21291W        W37475  16.982  17.870  11.431 -0.0996 -0.1740 -0.0125
21292W        W37476   6.509  16.461  14.767  0.1170 -0.1582  0.1646
21293W        W37477   6.040   0.336  14.981  0.0929 -0.0265 -0.0753
21294W        W37478  18.287  13.142  12.013  0.0148 -0.0308  0.3199
21295W        W37479   9.183   8.761  13.511  0.0761  0.3020 -0.0082
21296W        W37480  10.200  14.766   4.056  0.0868  0.1808  0.0094
21297W        W37481  11.960   0.697   0.108 -0.0581  0.1348 -0.3796
21298W        W37482  16.470   0.290   0.207  0.0237 -0.0816 -0.2912
21299W        W37483   8.100   4.354  13.398 -0.2183 -0.1880 -0.3651
21300W        W37484   3.414   6.559  13.398 -0.2183 -0.0410  0.0472
21301W        W37485   9.964   4.697  11.619 -0.2989 -0.2007 -0.0062
21302W        W37486   0.827   5.389   3.016 -0.0016 -0.0536  0.1055
21303W        W37487   3.960   4.747  10.882  0.2085 -0.0230 -0.2037
21304W        W37488   6.683   5.517   3.982 -0.4046  0.2947  0.2206
21305W        W37489   5.119   7.795  11.084 -0.0121 -0.0886  0.2839
21306W        W37490  12.043   3.484   4.663 -0.2497 -0.2516 -0.2773
21307W        W37491  12.593   1.985   3.035  0.1728 -0.0435 -0.0014
21308W        W37492   6.082  17.194   1.078  0.1751  0.0121 -0.1462
21309W        W37493  11.963   6.837   2.522 -0.0857  0.0233  0.1325
21310W        W37494   9.996  10.836   1.258 -0.0959  0.2626  0.2475
21311W        W37495  11.508   0.319   1.695 -0.0952  0.1014  0.2010
21312W        W37496   8.721   8.121   0.060 -0.0897 -0.2649  0.1331
21313W        W37497  16.058   6.575  14.416  0.0611  0.0768  0.1096
21314W        W37498   1.774  15.019  10.929  0.1021  0.0858  0.3538
21315W        W37499   4.461   2.499   3.460 -0.4126  0.1367  0.0330
21316W        W37500   4.542  18.697  14.721 -0.4041  0.1720  0.0168
21317W        W37501   7.963  13.498  11.955 -0.2445  0.0641 -0.0213
21318W        W37502  12.723  17.803   3.299  0.2117  0.0879  0.1112
21319W        W37503  18.712   9.608   0.139 -0.1451 -0.0697  0.0087
21320W        W37504   9.246  11.421  12.477 -0.0168  0.0704 -0.1757
21321W        W37505  18.453   7.296  13.416  0.0727 -0.1344  0.0036
21322W        W37506   6.204   9.192  14.422 -0.1398 -0.2755 -0.0235
21323W        W37507   9.948  13.196   0.959  0.0270  0.2417 -0.1711
21324W        W37508   4.042   5.279  11.685 -0.0963  0.1531 -0.0801
21325W        W37509  17.883  11.961   3.801  0.1012  0.1074  0.1940
21326W        W37510   9.486   9.084  12.576 -0.0123 -0.2848  0.0737
21327W        W37511   6.996   9.113  11.276  0.2105  0.1311  0.2560
21328W        W37512   2.063  10.310   1.810  0.4156 -0.2838  0.0644
21329W        W37513   6.459   0.814   5.216 -0.2499 -0.0134 -0.1544
21330W        W37514   9.885  16.124  13.276 -0.2292 -0.2414 -0.0973
21331W        W37515  16.507  17.106   3.286 -0.0748  0.0069 -0.2530
21332W        W37516  17.218   3.625   3.892 -0.0833  0.0362 -0.2175
21333W        W37517  10.296   7.535   3.830 -0.3003 -0.2182  0.1497
21334W        W37518   7.036   8.702  14.601  0.1881  0.0253 -0.1858
21335W        W37519  18.594   0.067  14.812  0.3112 -0.1062  0.5370
21336W        W37520   4.212  17.619   2.568 -0.0528  0.0233  0.1501
21337W        W37521   6.301  17.426  12.065 -0.2314 -0.0039 -0.1351
21338W        W37522  16.430   3.821  14.800  0.0434  0.0799 -0.2251
21339W        W37523  15.613  17.564   5.013 -0.1538  0.1483  0.1390
21340W        W37524   7.384   5.903   1.535  0.1244  0.2959  0.0272
21341W        W37525  13.650   6.844  13.118  0.2557  0.0360 -0.1320
21342W        W37526   7.782   9.066   3.347  0.1787 -0.2765  0.1354
21343W        W37527   1.972   6.194   5.258  0.1563  0.5020  0.1681
21344W        W37528  11.773  17.027   3.293 -0.1516  0.0809  0.0650
21345W        W37529   5.472  14.285   0.085 -0.0669 -0.1046 -0.0442
21346W        W37530   1.836   1.399   6.089  0.0850  0.1371  0.1869
21347W        W37531  18.173   1.779   4.844 -0.0419 -0.3406 -0.0331
21348W        W37532  17.364  10.994   1.367 -0.1937 -0.1921 -0.3446
21349W        W37533  11.395   4.117  11.793  0.0355  0.0904  0.0357
21350W        W37534   3.268  17.477  13.371 -0.0342 -0.1408 -0.0862
21351W        W37535   5.011  15.216   3.290  0.1076 -0.0562 -0.0614
21352W        W37536   0.745  12.752  14.066 -0.3834 -0.0454 -0.0817
21353W        W37537   6.464  15.970   0.645  0.0116  0.0338 -0.1754
21354W        W37538  14.374   2.273  11.283 -0.2293  0.2539 -0.0770
21355W        W37539  18.451   3.557   3.845  0.0424 -0.2180  0.0263
21356W        W37540  12.894   0.788   4.901 -0.2042  0.0547  0.1488
21357W        W37541   0.988  10.402   2.162  0.0549 -0.0040  0.2667
21358W        W37542  13.052  11.139  13.568 -0.0114  0.1691  0.1900
21359W        W37543   3.779  11.935  11.963  0.0775  0.0989  0.2146
21360W        W37544   9.910  11.114  14.628 -0.0385 -0.1150  0.0728
21361W        W37545   0.065  15.612  14.784 -0.1024  0.0888  0.0114
21362W        W37546  13.640  12.087   4.110  0.0386 -0.4238 -0.2016
21363W        W37547   4.146   4.665   5.345  0.2032  0.4451 -0.0681
21364W        W37548  13.932   5.267   5.025  0.1738  0.1562 -0.0254
21365W        W37549   6.551  14.998   1.428 -0.1636 -0.1935  0.0732
21366W        W37550   1.047   9.913   1.936  0.0714  0.1575  0.0173
21367W        W37551   7.863   5.666   1.570 -0.2812  0.2480 -0.3746
21368W        W37552  16.682  17.720  14.712 -0.0067  0.0417  0.0143
21369W        W37553   8.295   6.518   4.359  0.4185  0.0600 -0.2036
21370W        W37554  18.671  18.528  10.710  0.0858  0.2328 -0.0257
21371W        W37555  15.108  10.936  15.361  0.1089 -0.0219 -0.1409
21372W        W37556   4.657  10.141   1.562  0.2175 -0.0828  0.0027
21373W        W37557   3.315  10.928  11.620 -0.1606 -0.1132  0.4214
21374W        W37558  10.804  13.696  10.155 -0.1932  0.1517  0.0243
21375W        W37559   6.610  17.399  14.860  0.2091 -0.3289 -0.1378
21376W        W37560  14.288   7.294   3.238  0.3312  0.1440 -0.2095
21377W        W37561   1.491  17.220   2.263 -0.3944  0.0478 -0.1050
21378W        W37562   7.335   6.041  11.202 -0.1557 -0.2334 -0.0277
21379W        W37563   7.321   4.120   1.006 -0.1587 -0.3158 -0.1879
21380W        W37564   0.214   7.122  15.148 -0.2604  0.1285 -0.1016
21381W        W37565  17.677   8.941  13.524 -0.2266 -0.2236 -0.2157
21382W        W37566  17.952  11.308  12.197  0.0111  0.1142  0.2805
21383W        W37567   3.784  15.235  10.890 -0.1096 -0.2748  0.0250
21384W        W37568  17.807  12.974   3.988  0.1473 -0.0514 -0.1216
21385W        W37569   9.686  10.184  10.923 -0.0098 -0.4088 -0.0158
21386W        W37570   2.849   8.321   3.342 -0.1633  0.1580 -0.2088
21387W        W37571   7.965  11.356  12.009  0.0581  0.0877 -0.0342
21388W        W37572  17.550  10.130  11.269 -0.2475  0.3003  0.2385
21389W        W37573  15.368   4.580  12.559 -0.1517 -0.0614 -0.0948
21390W        W37574  12.775  14.155   2.384 -0.0225 -0.0073  0.3141
21391W        W37575   2.618   1.637   2.619  0.0977 -0.0578 -0.1545
21392W        W37576  15.812   9.946   1.912 -0.0724  0.2370  0.0240
21393W        W37577  16.836   6.815   3.881 -0.1807  0.1322  0.1380
21394W        W37578   1.470   1.755   6.045 -0.2082 -0.2055  0.0443
21395W        W37579   0.501  17.860   5.510  0.0120 -0.3172  0.2194
21396W        W37580   8.574   0.802   1.013  0.3117  0.0037  0.1860
21397W        W37581   7.906   4.056  11.981 -0.0496 -0.0908 -0.2341
21398W        W37582   2.916  13.103   0.621  0.1071  0.1316  0.1719
21399W        W37583  13.427   6.736  15.130  0.1201 -0.1379  0.1210
21400W        W37584   9.910  15.670   3.156 -0.1503 -0.1514  0.0668
21401W        W37585   0.486  14.790  14.441  0.1102  0.0960  0.2634
21402W        W37586  11.197  15.146  12.278 -0.1904  0.1784  0.0437
21403W        W37587  10.528  11.010   4.458 -0.1412  0.0565  0.0835
21404W        W37588  13.826   5.766   1.343 -0.0626  0.1270  0.1411
21405W        W37589   5.705   7.428   0.092 -0.4465 -0.3509  0.0220
21406W        W37590   7.766   4.418   4.106 -0.0817  0.1245 -0.1896
21407W        W37591  16.507   9.207   2.384  0.1742  0.0485  0.2958
21408W        W37592   9.198  12.858   4.487  0.0198 -0.0301 -0.0647
21409W        W37593  16.973  17.366   3.358 -0.3340  0.1823  0.0385
21410W        W37594  10.543  15.651   2.893 -0.0110  0.0941  0.1174
21411W        W37595   2.708  18.822   1.269 -0.1264  0.6646 -0.2716
21412W        W37596  18.631  15.807   3.521  0.3020  0.1654  0.1397
21413W        W37597  12.440   3.325   2.349  0.0235 -0.1250 -0.0092
21414W        W37598   4.680  12.667  14.244  0.1361 -0.1066  0.2105
21415W        W37599  13.207  17.747   5.618  0.0537  0.2123 -0.1575
21416W        W37600   8.535   1.357   5.035  0.0462  0.2556  0.2495
21417W        W37601  16.473   2.527   0.739 -0.1397  0.0509  0.0062
21418W        W37602  12.957   6.845  11.028 -0.1772 -0.0970 -0.5251
21419W        W37603   8.297   4.150   3.494  0.3284  0.3190  0.2487
21420W        W37604  13.694   3.884  11.735 -0.1897  0.1031 -0.2332
21421W        W37605   1.808   2.443   3.440  0.0622  0.0173 -0.1862
21422W        W37606   1.550  11.905  13.041 -0.1180  0.0260 -0.4971
21423W        W37607   2.394   4.840   0.062 -0.2936 -0.1668 -0.0824
21424W        W37608   2.718   9.648  14.332 -0.0237 -0.1867 -0.1029
21425W        W37609   6.109  15.686   3.859 -0.1913 -0.0276  0.2865
21426W        W37610   6.142   9.954  12.933 -0.1511 -0.2785  0.3670
21427W        W37611  18.457  16.295  11.291  0.3786  0.1939  0.0998
21428W        W37612   5.334  12.600   1.801  0.0060  0.1032  0.1671
21429W        W37613  13.124  11.166   5.644  0.0456  0.1526  0.2293
21430W        W37614   8.539  13.620  11.250 -0.1377  0.0996 -0.0129
21431W        W37615   1.519  10.442   4.302 -0.1331  0.1211  0.1030
21432W        W37616  18.013  17.607  12.174  0.0147 -0.3271 -0.3845
21433W        W37617  10.983  13.166  14.710 -0.0666  0.3281 -0.1123
21434W        W37618  11.733  17.126   1.567  0.0363 -0.0637 -0.0012
21435W        W37619   1.747  13.032   4.729 -0.0691 -0.1780 -0.2071
21436W        W37620   9.322   4.543   2.575  0.1842 -0.0184 -0.1097
21437W        W37621   5.613  11.577   0.534  0.2343 -0.0960  0.1219
21438W        W37622  11.114  14.281   0.598  0.1796  0.1415 -0.2055
21439W        W37623  17.943   7.999   0.448 -0.0537  0.1078  0.3638
21440W        W37624   0.928   7.963  10.630  0.1777  0.6796  0.0087
21441W        W37625   6.211  11.447   0.311  0.0003  0.1293 -0.0616
21442W        W37626   8.724   2.535   1.718 -0.0751  0.2548 -0.2132
21443W        W37627  17.418  18.806   3.660 -0.0576 -0.0867 -0.0932
21444W        W37628  14.482   6.670  12.025  0.1120  0.0380  0.2208
21445W        W37629   3.445   3.787  11.344 -0.0119  0.1034 -0.1114
21446W        W37630  15.763   9.940   2.454  0.0184 -0.0234 -0.1068
21447W        W37631  14.436  10.412   3.570  0.1371  0.3759  0.1797
21448W        W37632  10.094  10.222  15.036 -0.4968 -0.0717  0.3810
21449W        W37633  18.063   6.297  12.420 -0.0304  0.0199 -0.4632
21450W        W37634   6.969   6.482  14.449 -0.2599 -0.2667 -0.1764
21451W        W37635   4.085  11.582   5.818 -0.2371 -0.2289  0.1533
21452W        W37636   6.966  15.169  12.206  0.1315  0.1810 -0.0663
21453W        W37637   1.849  12.236   2.752  0.1138 -0.3423  0.1802
21454W        W37638   0.800  13.715  11.848  0.3303 -0.3129  0.0641
21455W        W37639   5.941   4.024   4.232 -0.1979  0.2783  0.0525
21456W        W37640  13.239   8.289   4.174 -0.0986  0.2685  0.2691
21457W        W37641  16.449   6.531   5.144  0.0051 -0.1962  0.0019
21458W        W37642   5.173  16.685   0.949 -0.0343 -0.1727 -0.2536
21459W        W37643  16.547  11.989  11.549  0.0293 -0.5598 -0.0488
21460W        W37644   3.574   0.199   0.042 -0.2295  0.2775  0.0702
21461W        W37645   4.712   5.209   0.661 -0.2530  0.0153  0.2629
21462W        W37646  17.904  14.076   4.804 -0.0607  0.0349  0.1218
21463W        W37647  12.713   2.239   4.697  0.0521  0.1006 -0.2170
21464W        W37648   1.551   9.363  12.512  0.0274 -0.3076 -0.1805
21465W        W37649  10.975   8.641  12.228 -0.0367 -0.0623  0.2853
21466W        W37650  18.509   4.358  11.253  0.0414  0.0876 -0.1208
21467W        W37651  16.832   7.632  10.448 -0.3096  0.0169  0.3353
21468W        W37652   1.391   0.820  13.891  0.4466  0.1615  0.0647
21469W        W37653  14.721  17.970   5.085  0.2857 -0.2420  0.0730
21470W        W37654   3.999   9.807   3.258  0.0136 -0.2659 -0.2491
21471W        W37655   3.755  16.146   1.060  0.4291  0.5130 -0.1166
21472W        W37656  14.918  18.743  13.810  0.2091 -0.0587  0.2874
21473W        W37657  11.685   7.911  14.134 -0.0871 -0.0867  0.1238
21474W        W37658   3.279   9.978  11.424  0.1784 -0.1066  0.2825
21475W        W37659   9.878   0.273  13.567  0.0092 -0.0093  0.1340
21476W        W37660   1.206   0.602   0.834  0.1022 -0.0332 -0.0617
21477W        W37661  10.981   9.326  10.969 -0.0256 -0.1951 -0.0303
21478W        W37662  10.144  17.376   5.563  0.0618  0.0862 -0.2873
21479W        W37663  14.381   4.094   4.363  0.1785  0.1865  0.0160
21480W        W37664  18.031  17.118  13.545 -0.0864 -0.0891  0.0687
21481W        W37665  14.542   7.684   4.374 -0.4060  0.1854  0.0381
21482W        W37666  15.831   8.429   3.714  0.0477  0.1488  0.1819
21483W        W37667  13.211   5.983   3.209 -0.1001  0.4139 -0.3447
21484W        W37668  11.291  18.671   0.195  0.2077  0.1735  0.0717
21485W        W37669   4.098   2.576   0.442 -0.1736  0.2157 -0.0004
21486W        W37670   4.867   0.136  13.861  0.0055  0.0001 -0.0403
21487W        W37671   5.716  13.032  12.072  0.1574 -0.2679 -0.0399
21488W        W37672  13.893  14.520  11.658  0.2071 -0.3060  0.0568
21489W        W37673  12.598   4.741   0.200 -0.1435 -0.1519 -0.1402
21490W        W37674  12.497   0.454   3.659  0.2307  0.0471  0.1147
21491W        W37675  18.479   6.503   1.887  0.0915 -0.2443 -0.0334
21492W        W37676   4.150   4.722  13.787  0.1743  0.1377 -0.2710
21493W        W37677  15.925   6.132  15.294 -0.2325 -0.0684 -0.1891
21494W        W37678   4.336  13.678   2.999 -0.1720  0.0542 -0.1341
21495W        W37679  15.955   1.226  11.014  0.0325  0.2223 -0.1930
21496W        W37680   8.207  18.868   3.556 -0.0810 -0.0206  0.1320
21497W        W37681   0.899  15.861   5.025  0.2119 -0.1927 -0.1329
21498W        W37682  11.257   0.004   4.086  0.0626  0.2404  0.0097
21499W        W37683   5.602   6.679  11.616  0.0437 -0.2624  0.1178
21500W        W37684   7.045  18.051  13.993  0.0882 -0.4261  0.1030
21501W        W37685   4.399   4.220   0.572 -0.1236  0.0334 -0.1366
21502W        W37686   8.020   8.635   0.016  0.1810 -0.2443  0.0658
21503W        W37687   9.694  13.287   3.313 -0.0721 -0.1981  0.0039
21504W        W37688   8.350   4.552  12.688  0.0314 -0.0738 -0.2329
21505W        W37689  14.550   0.455   0.119  0.0270 -0.0326  0.0995
21506W        W37690  15.486   8.173  11.960 -0.4624  0.0315  0.1286
21507W        W37691   5.563  12.841   0.264  0.2387  0.2481  0.0675
21508W        W37692   8.900  18.688  13.554 -0.1676  0.1419 -0.0282
21509W        W37693  10.273   8.813  14.999 -0.1877 -0.0863 -0.2962
21510W        W37694  12.134  10.457   2.390 -0.0871  0.0448 -0.1584
21511W        W37695   0.757   7.450  10.652 -0.0075  0.2122 -0.1763
21512W        W37696   6.441  12.147  11.176 -0.0116  0.1438  0.2794
21513W        W37697  16.562  14.183   3.380  0.1280  0.1664  0.1948
21514W        W37698   9.251   5.355  14.721 -0.1257 -0.1511  0.3631
21515W        W37699  18.003   4.608   0.439  0.2742 -0.1675  0.3348
21516W        W37700   5.966  11.468   4.768 -0.1751  0.0897 -0.1402
21517W        W37701   5.367   9.381   3.295 -0.1081 -0.1604 -0.2031
21518W        W37702   4.488  18.348   1.658  0.2131  0.0234 -0.1163
21519W        W37703  14.647   1.982  13.723  0.1880 -0.1039  0.2000
21520W        W37704   9.571  15.750  13.448  0.1359 -0.2400  0.2713
21521W        W37705   2.275  10.376  14.463  0.0241 -0.0336  0.0553
21522W        W37706   8.810   0.345  12.045  0.1738 -0.0575 -0.1019
21523W        W37707   9.991   8.173  12.002 -0.1919  0.2511 -0.2747
21524W        W37708   7.456  12.984  11.990  0.1390  0.1148  0.4451
21525W        W37709  10.618  12.200  12.128 -0.1839 -0.0194  0.2125
21526W        W37710  12.974  11.326  13.039 -0.4051  0.0236  0.0237
21527W        W37711   2.562  16.695   4.837  0.2979 -0.1809 -0.2357
21528W        W37712  12.550   5.293   3.401 -0.0818 -0.0354 -0.2285
21529W        W37713   3.693  15.072  13.410 -0.1844  0.3557 -0.2348
21530W        W37714  17.713   4.246  12.052  0.0069  0.2272 -0.0181
21531W        W37715   2.057  14.182   3.948  0.2615 -0.2358  0.0968
21532W        W37716   9.182   6.811   0.299 -0.0434 -0.0371 -0.0974
21533W        W37717  16.379   9.364   2.850 -0.0641  0.0865  0.1994
21534W        W37718   6.689  10.841   5.801  0.0927  0.1020  0.0628
21535W        W37719   0.580   0.228   2.441 -0.2759 -0.1314  0.2394
21536W        W37720   9.926   6.482   3.652  0.2270  0.1419 -0.0436
21537W        W37721   1.903  13.294   1.886  0.2280  0.0300 -0.2816
21538W        W37722  14.017   4.984  12.457  0.1306 -0.1502  0.1854
21539W        W37723  14.747  10.720   4.407  0.3918  0.0010 -0.1784
21540W        W37724   6.413   7.670  11.455  0.1552 -0.0061 -0.0793
21541W        W37725  16.474   2.253   2.695 -0.1727  0.1510 -0.0833
21542W        W37726  13.536   4.338  10.548 -0.1479  0.2134 -0.2133
21543W        W37727   7.871  16.325   1.950 -0.0325  0.0279 -0.1717
21544W        W37728  15.481   6.280  14.508  0.2058 -0.1461  0.0258
21545W        W37729  18.594   3.713   1.141 -0.2277  0.0902  0.1723
21546W        W37730  16.489   4.809   1.319  0.0558  0.1634  0.1320
21547W        W37731  10.475  18.725   2.531  0.3526 -0.0528 -0.3628
21548W        W37732  12.505  16.659   5.284 -0.1724 -0.1274 -0.0288
21549W        W37733   5.944  14.167   2.384 -0.1817  0.2170 -0.1507
21550W        W37734  11.709   8.646   0.134 -0.2504 -0.0827  0.1210
21551W        W37735  16.417   9.645  13.154  0.2169  0.0038  0.1567
21552W        W37736  11.365  18.098   0.937  0.2003 -0.1056  0.2297
21553W        W37737  18.836  10.238   4.919  0.1274  0.1215 -0.1765
21554W        W37738   7.645  12.961  10.911 -0.0989  0.1170  0.2184
21555W        W37739  14.910  17.958  12.207  0.2120 -0.1390 -0.0171
21556W        W37740  13.215   7.699  11.389  0.2299  0.1137 -0.2052
21557W        W37741  12.072  13.005   4.884 -0.0767  0.0197 -0.1843
21558W        W37742   6.121   8.896   2.539 -0.1995  0.0348 -0.1915
21559W        W37743   8.811   4.192   3.327  0.1744 -0.0843 -0.1030
21560W        W37744  14.161  14.913  11.560 -0.0161  0.2721 -0.0518
21561W        W37745   6.471   4.279  11.898  0.2711 -0.3732 -0.1094
21562W        W37746   5.197   0.165  11.427 -0.3176  0.0370  0.4115
21563W        W37747   3.289  14.658   0.230 -0.3855  0.3252  0.1734
21564W        W37748   7.423  13.471  12.150 -0.1671 -0.1690 -0.1344
21565W        W37749   3.158  17.817   3.021 -0.0797 -0.1200  0.1406
21566W        W37750   4.628   4.227  10.862 -0.1186  0.2817 -0.2382
21567W        W37751   2.522   7.815   5.166  0.0787 -0.1606  0.1072
21568W        W37752  17.817  14.349   5.231  0.2080  0.1438 -0.1386
21569W        W37753   0.324  13.407   0.021 -0.0892  0.2839  0.1651
21570W        W37754   0.075  14.806  13.077 -0.0631  0.1260 -0.1414
21571W        W37755  11.565   2.090  13.862  0.3013 -0.0366  0.1815
21572W        W37756   3.874  12.658   4.455  0.0008  0.2055  0.1790
21573W        W37757   8.829   4.890  13.811  0.0616  0.2534 -0.0084
21574W        W37758  18.139   4.679   2.860  0.0109 -0.2398 -0.5220
21575W        W37759   2.123   9.444   3.575 -0.0686 -0.0905  0.2334
21576W        W37760  14.911  17.328  15.359  0.0009 -0.2693 -0.2978
21577W        W37761  15.758  15.891   4.667  0.1172 -0.1648 -0.4041
21578W        W37762  14.666  16.396   2.024 -0.1180  0.1818  0.1772
21579W        W37763   3.285  15.736   2.358  0.3036 -0.0400 -0.3750
21580W        W37764   1.668  18.984  11.292 -0.0143 -0.0295 -0.1084
21581W        W37765   7.860   0.216   3.831 -0.2706  0.1566  0.0819
21582W        W37766   0.781   8.667  11.314  0.1226 -0.2374  0.1939
21583W        W37767   1.031   2.288   1.897  0.1078  0.1209  0.3479
21584W        W37768   6.572   3.230   4.105 -0.3117 -0.1500  0.0753
21585W        W37769  17.958   5.587   1.791  0.2083 -0.1625  0.1024
21586W        W37770   7.310  16.569  10.522  0.0187 -0.0535 -0.1222
21587W        W37771  10.270   8.150  11.147 -0.0585 -0.1827  0.2677
21588W        W37772  11.017   9.182  12.225 -0.1419 -0.0118  0.1981
21589W        W37773   9.202   2.573  14.408  0.1222 -0.0723 -0.0646
21590W        W37774   9.369   1.030  13.062  0.1282  0.1854 -0.0492
21591W        W37775   2.234  17.199   1.955 -0.1746  0.1049 -0.1367
21592W        W37776  13.502   0.810  13.381 -0.2276  0.2131 -0.1946
21593W        W37777  10.569   1.704   1.818 -0.0010  0.0143 -0.0355
21594W        W37778   7.600   1.722  13.584 -0.2036  0.1443 -0.1219
21595W        W37779  13.898  13.245  14.996  0.2281  0.0389 -0.0003
21596W        W37780   5.982   0.479   4.042  0.2309  0.1612  0.1237
21597W        W37781  10.202  17.521  14.281  0.1808  0.1398  0.0314
21598W        W37782   3.934   8.468  10.620  0.2612 -0.0130 -0.0643
21599W        W37783  12.754  17.981  10.752 -0.2759  0.1726 -0.1809
21600W        W37784  12.221   9.288  15.155 -0.1116 -0.1748 -0.0981
21601W        W37785  12.436  17.088   4.308 -0.4341 -0.0858  0.1940
21602W        W37786  10.078  16.973   2.624 -0.1210  0.0962  0.0195
21603W        W37787  12.286  15.775   5.112 -0.1477  0.1428 -0.3394
21604W        W37788   0.715   9.251   0.873  0.0571 -0.1603 -0.0194
21605W        W37789   1.580  15.819  12.021  0.2784 -0.2228  0.0240
21606W        W37790  11.794   7.949  13.678 -0.4327 -0.0035  0.2520
21607W        W37791  11.925  17.389  11.865 -0.4376 -0.1004  0.2873
21608W        W37792   9.323   0.501  12.190 -0.0978  0.0186  0.0107
21609W        W37793  14.030   5.347   3.531  0.0973 -0.0395  0.1106
21610W        W37794  18.591   1.429   1.448  0.0066  0.1824  0.1267
21611W        W37795  11.152   7.307   3.530 -0.3772 -0.2350  0.0016
21612W        W37796  11.432   9.322  11.900 -0.0482  0.1610 -0.0059
21613W        W37797   3.213  10.036   0.408  0.0704  0.0934 -0.0058
21614W        W37798  18.348   3.855  11.058 -0.2513 -0.0036  0.2192
21615W        W37799   8.853   2.251   9.336 -0.0151  0.0633  0.0723
21616W        W37800  17.521  10.208  15.169 -0.2892  0.0139 -0.1450
21617W        W37801   0.870  11.829   2.670 -0.0181 -0.0146  0.1961
21618W        W37802  17.086   0.733  11.837 -0.2476 -0.3937  0.0151
21619W        W37803  17.005   2.714  12.841 -0.0471  0.0800  0.1313
21620W        W37804   6.600  11.387   3.655 -0.1450 -0.2383  0.2461
21621W        W37805   5.419   5.721   0.686 -0.0926  0.5262  0.1867
21622W        W37806   9.105   1.485  11.141  0.2605  0.1711  0.3326
21623W        W37807   1.092   0.181  12.922  0.0303 -0.0276 -0.3577
21624W        W37808   1.617  15.311   0.496  0.0522 -0.1051  0.3062
21625W        W37809  12.391   6.986   5.199 -0.3313 -0.0578 -0.3251
21626W        W37810   0.759   9.266   2.602 -0.0951 -0.1586  0.0449
21627W        W37811   7.202  16.574   4.967  0.0116  0.5602  0.1084
21628W        W37812  16.936  16.838   2.543  0.2971  0.2915 -0.1145
21629W        W37813  14.751   7.373   3.990  0.4336 -0.1084  0.0998
21630W        W37814   3.652  17.025   3.677 -0.0522 -0.1751 -0.0307
21631W        W37815  12.217  13.850   4.600 -0.3183  0.0464 -0.2170
21632W        W37816   2.506  12.118  14.468  0.0989  0.0417  0.3103
21633W        W37817   0.828   1.747  14.760 -0.0767  0.2449 -0.0745
21634W        W37818   6.344  13.259   4.910  0.2187  0.1198  0.1041
21635W        W37819   8.053   3.755   4.521 -0.1872 -0.0816  0.1845
21636W        W37820  13.011  12.566   3.839  0.0397 -0.2502 -0.3301
21637W        W37821  14.205  11.315  13.512  0.0858 -0.1030  0.0821
21638W        W37822  18.292   8.441   3.279  0.1733 -0.0603  0.0038
21639W        W37823   0.637   7.256   1.029 -0.2352 -0.1929  0.2019
21640W        W37824  18.160  18.089   2.182 -0.0543  0.0257  0.3014
21641W        W37825  10.354   9.378  10.548  0.0095 -0.0525  0.0107
21642W        W37826   7.887   7.085  11.095  0.0194  0.1228  0.2580
21643W        W37827  16.479  11.861   1.850 -0.1810 -0.2374 -0.0369
21644W        W37828   3.442  18.786  10.269 -0.1218 -0.0462  0.2320
21645W        W37829   2.903   8.307  11.199  0.2454 -0.0739 -0.0374
21646W        W37830   8.761  11.572  11.309 -0.1163 -0.1228  0.0400
21647W        W37831  13.408  16.356   2.559  0.2596  0.0723 -0.0780
21648W        W37832  11.978  14.938   4.553  0.0302  0.1537 -0.2227
21649W        W37833   7.602  15.815  13.930 -0.0931  0.0799 -0.0145
21650W        W37834  13.305  10.244   4.033 -0.1073 -0.0763  0.0903
21651W        W37835  12.668   5.427  15.265  0.1012 -0.1436 -0.1113
21652W        W37836   5.322  17.512  13.181 -0.1161  0.4178 -0.1518
21653W        W37837   7.953   0.599   1.921  0.0198  0.2230 -0.2873
21654W        W37838  14.776   9.895   3.944  0.0655 -0.2536 -0.1794
21655W        W37839  18.530   1.224   0.070  0.1442  0.2191  0.2035
21656W        W37840   0.248  10.450   5.467  0.0183  0.1259 -0.1563
21657W        W37841   6.531   2.813   3.543 -0.0440 -0.1963  0.2781
21658W        W37842  14.950  14.907  13.163 -0.2627 -0.0419 -0.1374
21659W        W37843   6.331  11.050  13.687  0.1366 -0.0257  0.2641
21660W        W37844  16.467   7.904   4.284  0.1590  0.2299 -0.3785
21661W        W37845   5.227   8.339  13.197 -0.0124  0.1408  0.0755
21662W        W37846   0.302  16.977   4.330  0.3063  0.5365  0.0176
21663W        W37847  11.396  14.940  15.267  0.1147  0.1889 -0.4400
21664W        W37848  16.854  17.753   1.162 -0.1892  0.0589  0.0180
21665W        W37849  18.925  13.948   5.956  0.2632  0.2130  0.2816
21666W        W37850   7.733  17.621   4.413  0.1424 -0.2059  0.2075
21667W        W37851   5.064   3.562   1.168 -0.1169  0.0787  0.2430
21668W        W37852  17.153  15.534   2.202 -0.2168 -0.0459  0.2733
21669W        W37853  10.127  11.338  13.629 -0.1203 -0.0053  0.3220
21670W        W37854   5.102   9.802  11.233 -0.2821  0.2074  0.2901
21671W        W37855   4.176   5.136  15.300  0.0876  0.2224 -0.2811
21672W        W37856   1.599   4.265  12.142  0.0964 -0.0886  0.1156
21673W        W37857   2.517  16.132   0.828  0.3249  0.0761  0.1163
21674W        W37858  18.739   5.984  14.535 -0.0312 -0.3494 -0.0481
21675W        W37859   2.899  10.131  13.101  0.2739 -0.0374  0.0975
21676W        W37860   2.536   3.014   3.570 -0.0982 -0.0836 -0.2354
21677W        W37861   7.600  10.834   1.907 -0.0527  0.5490 -0.2829
21678W        W37862  13.258   6.176  11.683  0.2522  0.1631 -0.0595
21679W        W37863   2.648  18.724   3.153 -0.1938  0.2337 -0.0442
21680W        W37864   6.490  17.057   0.396 -0.0450  0.1936  0.0236
21681W        W37865  13.288   5.955   0.867  0.2324  0.0780  0.1093
21682W        W37866  16.220   7.643  14.215 -0.2882 -0.0552 -0.2476
21683W        W37867   2.958  10.559   4.231  0.2857  0.1166 -0.1011
21684W        W37868   2.072  17.123   4.434 -0.2610 -0.2817  0.3206
21685W        W37869   1.045  15.090  11.675 -0.0467 -0.2543  0.0376
21686W        W37870   3.827  18.637   3.011  0.0340 -0.2716 -0.2175
21687W        W37871   5.721  12.207   4.389  0.0218  0.0612  0.1773
21688W        W37872   4.691   8.019   3.094  0.0277 -0.1279 -0.1298
21689W        W37873   3.673  10.046  12.291 -0.0073  0.0066  0.0333
21690W        W37874   4.327  12.669   1.657 -0.0816  0.1907  0.0620
21691W        W37875  10.341   6.583   5.441 -0.0974 -0.1725  0.0356
21692W        W37876   5.062   1.565   3.082  0.1260 -0.0580 -0.0375
21693W        W37877   6.642  18.563   3.460 -0.1598  0.0401 -0.2205
21694W        W37878   8.869   9.575   0.573 -0.2361  0.1768  0.3239
21695W        W37879  16.776   5.190   4.157 -0.2962  0.0017 -0.3345
21696W        W37880   9.403   4.988   4.616 -0.2122 -0.1191  0.3182
21697W        W37881   0.095  11.068  10.990  0.0981 -0.1686  0.0925
21698W        W37882   3.799   3.081   1.248 -0.1072  0.0978  0.2026
21699W        W37883   7.227   2.524  13.466  0.2625 -0.1255  0.2248
21700W        W37884  14.031  11.495  14.419 -0.2405  0.0509  0.0229
21701W        W37885   2.779   7.908   2.960  0.1841  0.2391 -0.0036
21702W        W37886  14.617   5.813   5.043 -0.0765  0.2435 -0.2201
21703W        W37887   1.785  15.696   0.716  0.3360 -0.0732 -0.1109
21704W        W37888  11.607  16.126  11.650 -0.0831  0.0910 -0.0112
21705W        W37889   4.165  18.323   3.982 -0.2397  0.1085 -0.3152
21706W        W37890   0.859   3.279   0.504 -0.0329 -0.0310 -0.1821
21707W        W37891  14.567  14.118   2.904  0.1675  0.2664 -0.1902
21708W        W37892   8.766   4.504  11.256  0.0730  0.4258 -0.0464
21709W        W37893  18.088  14.307  12.606 -0.2079 -0.0468 -0.2460
21710W        W37894  11.834   1.143  15.344  0.1835 -0.1045 -0.1853
21711W        W37895  14.984   1.830   1.560  0.5979  0.2543 -0.1730
21712W        W37896  12.069   2.417   4.038 -0.0309  0.2790  0.0479
21713W        W37897  14.154  17.600  14.653  0.2369 -0.1646 -0.0065
21714W        W37898   4.657  18.297  12.865 -0.0462 -0.1471 -0.1276
21715W        W37899   9.202   8.774  12.960 -0.1309  0.1738  0.1043
21716W        W37900   7.261  17.073   2.833  0.0025 -0.2173  0.0089
21717W        W37901  13.672  17.997  12.869  0.0005  0.2312 -0.1853
21718W        W37902   0.751  10.569  14.492 -0.1030  0.1430 -0.0364
21719W        W37903   2.857  14.161  15.077  0.1276  0.1054 -0.0377
21720W        W37904  10.001  11.091   3.638 -0.0327  0.1988  0.5333
21721W        W37905  11.180  17.733   4.395 -0.1460 -0.0364 -0.3063
21722W        W37906  18.802   6.733  11.627  0.0165 -0.1046 -0.0798
21723W        W37907   8.231   4.103   0.347  0.2242  0.1435 -0.0190
21724W        W37908   3.259  13.794   1.675  0.3010 -0.2024 -0.0134
21725W        W37909  15.019  17.393  14.401  0.4766  0.2059  0.1318
21726W        W37910   6.250  13.829  15.004 -0.3162 -0.0007  0.3109
21727W        W37911   8.364  18.802  15.195  0.2134  0.4986 -0.1335
21728W        W37912   9.857  10.728  14.253 -0.0922 -0.1629 -0.2956
21729W        W37913   4.062   2.300  12.332 -0.3517  0.2119 -0.0450
21730W        W37914  12.776   7.131   0.601  0.0506  0.2970  0.0302
21731W        W37915  15.545  10.658   0.783 -0.0906  0.1451 -0.4976
21732W        W37916  18.451   7.812  14.968 -0.0520  0.1650 -0.2742
21733W        W37917  13.037   1.747   0.143  0.1848  0.3051  0.2792
21734W        W37918   5.742   0.659   1.291  0.4342 -0.0775 -0.2021
21735W        W37919  10.035  14.826  11.879 -0.1298 -0.1153  0.0428
21736W        W37920   2.015   2.873   1.041  0.2440 -0.3409 -0.1560
21737W        W37921  15.303  18.956  12.136 -0.1841  0.1048 -0.3399
21738W        W37922  10.752   0.038  13.138 -0.0155 -0.2250 -0.1153
21739W        W37923   5.347  11.427  14.427  0.1345  0.1010  0.0169
21740W        W37924   3.814   6.304  13.187 -0.0899  0.3740  0.0249
21741W        W37925  12.548  14.832  13.171  0.2373 -0.2346  0.3907
21742W        W37926  11.466   0.239   0.911 -0.1548 -0.2193 -0.1515
21743W        W37927   4.962  16.118   0.877 -0.0989  0.2859  0.3130
21744W        W37928   4.395  13.959   1.117  0.2878 -0.1602  0.3097
21745W        W37929   8.464  13.758  12.709 -0.0636 -0.3163  0.1793
21746W        W37930  16.957   8.059  10.614 -0.2247 -0.2266  0.3544
21747W        W37931  13.746  13.716  13.255 -0.2136  0.3465 -0.2557
21748W        W37932  11.007  16.534  14.373 -0.0776  0.0170 -0.0627
21749W        W37933   8.441  18.293  15.047  0.1676 -0.1375  0.0992
21750W        W37934   0.917   5.390   2.513  0.1999 -0.2267 -0.1875
21751W        W37935   5.393   5.844  13.370 -0.0148 -0.1091  0.1727
21752W        W37936   4.976  17.808  13.624 -0.2027  0.0412 -0.2150
21753W        W37937   3.204   1.280  13.449 -0.0823  0.2516 -0.0416
21754W        W37938   0.848   7.123  14.295 -0.2299  0.1292 -0.3233
21755W        W37939  10.535  11.903  11.172 -0.0109  0.1368 -0.0927
21756W        W37940   0.513   1.362  14.908 -0.1408 -0.3804 -0.0436
21757W        W37941   8.973   1.437   0.521  0.3240  0.1162 -0.0573
21758W        W37942   4.785  18.822   1.531 -0.0738  0.2373  0.0140
21759W        W37943  16.916   4.221   2.541  0.1148 -0.1619 -0.3422
21760W        W37944  10.191  10.861  13.811  0.0951  0.1945 -0.0232
21761W        W37945   2.197   2.686  13.854 -0.4305 -0.2060  0.0258
21762W        W37946  17.769  16.096  12.124  0.1147 -0.0067  0.4344
21763W        W37947   3.080  15.900  12.505  0.1770 -0.0213 -0.1430
21764W        W37948  18.567   1.904   1.450  0.1179 -0.1800 -0.0423
21765W        W37949   0.230  17.854  14.276 -0.0625  0.1429  0.0090
21766W        W37950   5.307  11.046  14.699 -0.0938 -0.0729 -0.2003
21767W        W37951   4.535   2.144   5.321 -0.0997 -0.0025 -0.0996
21768W        W37952   5.030  11.849   0.104 -0.2319 -0.0689 -0.4406
21769W        W37953  12.804   9.492  12.467 -0.2780 -0.3174  0.0516
21770W        W37954  10.375  12.444  12.525  0.1093 -0.0801  0.2023
21771W        W37955   4.904   4.288   5.348 -0.0265 -0.1357  0.5328
21772W        W37956  14.293   5.771  12.428  0.0405  0.1943 -0.2650
21773W        W37957  13.462   4.267   1.957 -0.1234 -0.1474 -0.1181
21774W        W37958  14.204   3.985  13.375 -0.3908 -0.2854 -0.4018
21775W        W37959  18.120   1.171   4.237 -0.2717  0.2202 -0.2653
21776W        W37960  12.239  18.689   2.401  0.1581 -0.1011 -0.0905
21777W        W37961   8.035  14.361   2.491 -0.1147  0.0626  0.0676
21778W        W37962  16.015   5.114  14.855  0.1718 -0.0376  0.0181
21779W        W37963  12.672  15.209  13.491 -0.0079  0.0638 -0.2882
21780W        W37964  17.783  14.281   0.729  0.0342 -0.0867 -0.0123
21781W        W37965  15.443  16.823  12.863  0.1302  0.1757 -0.1039
21782W        W37966   0.969   1.766   6.148 -0.0265 -0.0166  0.1753
21783W        W37967   8.486  14.160  12.035 -0.0557  0.0644 -0.0778
21784W        W37968  14.667  11.086  14.098  0.0223 -0.0935  0.1440
21785W        W37969   4.265  10.261   1.887  0.2594 -0.0514 -0.2037
21786W        W37970  16.969  16.694  12.346  0.1490 -0.1250 -0.0953
21787W        W37971   5.362  17.877  14.283 -0.0184  0.0398  0.1989
21788W        W37972   7.562  10.403  12.127  0.1052  0.2465  0.1732
21789W        W37973   4.262   8.693   4.747 -0.2334 -0.1177 -0.0390
21790W        W37974   6.014  10.809   4.565  0.3310  0.3667 -0.1285
21791W        W37975   5.384   8.236  12.651  0.2786 -0.0983 -0.0837
21792W        W37976  18.618  14.773   3.497  0.1475  0.1384  0.2774
21793W        W37977   7.594   2.179  13.365  0.0197  0.3109 -0.0013
21794W        W37978   1.893   0.614  14.231 -0.0766 -0.3093 -0.2241
21795W        W37979  16.274   1.212  12.843  0.3295 -0.3156 -0.0668
21796W        W37980   0.288   3.125  11.781  0.0723  0.0869  0.0183
21797W        W37981  10.211   6.852  13.450 -0.0793  0.1582 -0.0438
21798W        W37982   2.311   8.245   0.664  0.1784 -0.2448  0.1609
21799W        W37983   9.484  18.235  10.875  0.2090 -0.0292  0.0960
21800W        W37984   6.096   2.224   4.189  0.2359 -0.2141  0.2493
21801W        W37985  13.210  16.007  14.789  0.0318 -0.1077  0.2447
21802W        W37986   2.583  12.591   1.656  0.0212 -0.0489  0.1500
21803W        W37987   5.733  15.467  12.219 -0.1286  0.1853  0.2135
21804W        W37988   8.053  16.215   4.002  0.0582 -0.2057  0.0219
21805W        W37989  18.782  17.226   2.782  0.1119  0.0577  0.0933
21806W        W37990   5.787   0.361   3.043  0.1401  0.1147 -0.0221
21807W        W37991   3.876  15.110  12.036  0.0094 -0.1384  0.0003
21808W        W37992   4.923  11.867  12.551 -0.0568 -0.3343 -0.1910
21809W        W37993   0.302   3.566   5.274 -0.1633 -0.1709 -0.1132
21810W        W37994   9.367  11.200  11.459  0.0206  0.1066  0.3951
21811W        W37995   4.668   3.621   6.080 -0.1350 -0.3211 -0.0291
21812W        W37996   9.497   7.725   2.203  0.0026 -0.0200 -0.0617
21813W        W37997   1.920   3.837   0.817 -0.2040 -0.0984 -0.2543
21814W        W37998  12.287   7.389   5.496  0.3918 -0.0511  0.2664
21815W        W37999  17.648  15.204   0.898 -0.0215  0.1608  0.2976
21816W        W38000  10.149  18.578  14.181 -0.0477  0.1062 -0.0107
21817W        W38001  14.917  17.100  12.561  0.0687  0.1611  0.1231
21818W        W38002   8.467   3.563  12.271  0.2025  0.2039 -0.0192
21819W        W38003  10.410   1.890   5.400  0.2383  0.0967 -0.3133
21820W        W38004   5.932   5.851   2.904  0.2397 -0.0062 -0.2565
21821W        W38005  10.187   0.837   3.246 -0.0519  0.0474  0.3563
21822W        W38006  14.861   5.694  14.161  0.2936  0.0974 -0.2576
21823W        W38007  11.969  15.407  14.836  0.4402 -0.0527 -0.2606
21824W        W38008   7.288  13.020   0.063 -0.0475  0.1013 -0.2767
21825W        W38009  18.723   4.843  14.139  0.0396  0.2295 -0.1237
21826W        W38010  10.133   6.951  10.827  0.1843 -0.0459  0.2151
21827W        W38011   3.151   7.288   3.983 -0.0575 -0.0327  0.2293
21828W        W38012   7.809   0.934   4.310  0.0438  0.0434 -0.1249
21829W        W38013   4.940   3.348   4.850  0.2674  0.0571  0.1105
21830W        W38014   9.308  18.925   0.246 -0.2866  0.0182 -0.5212
21831W        W38015  15.742   1.546   5.031 -0.0314  0.0767  0.1882
21832W        W38016   8.373  12.485   4.262  0.1572 -0.2612 -0.0291
21833W        W38017  12.366  10.747  13.252 -0.1187 -0.1297  0.0986
21834W        W38018   7.482   8.491  13.972 -0.2420 -0.3146 -0.1888
21835W        W38019   5.377   1.746   5.262  0.5299  0.0199  0.1623
21836W        W38020  15.398   1.194   0.980 -0.0147  0.0997  0.2319
21837W        W38021   1.787   5.727  13.094  0.0578 -0.1680  0.1857
21838W        W38022   1.259   5.036  12.438  0.0919 -0.3256 -0.1740
21839W        W38023  18.554   9.239   0.891 -0.1755  0.2452 -0.0258
21840W        W38024   5.336   3.934   1.992 -0.0169 -0.0279  0.1077
21841W        W38025  14.351  10.933   3.144  0.0102  0.4955 -0.2340
21842W        W38026  13.405   3.809  11.265 -0.0368  0.2895 -0.3088
21843W        W38027  12.875  16.913   5.090 -0.0448 -0.0094 -0.1725
21844W        W38028  15.417   0.727   5.358 -0.1187 -0.0747  0.1019
21845W        W38029   7.385   9.367  10.939 -0.3653 -0.0308 -0.0178
21846W        W38030  18.985  16.006  11.891 -0.1740  0.1868  0.0148
21847W        W38031  15.055   3.316  12.421  0.2481  0.2302 -0.5022
21848W        W38032   9.673  13.744   3.535  0.0183 -0.0914  0.1139
21849W        W38033  16.191  15.352  13.779  0.3171 -0.1101 -0.0192
21850W        W38034   4.530   5.466  11.105  0.1165 -0.1333  0.1506
21851W        W38035   7.754   1.598  15.083  0.0786 -0.0331  0.0065
21852W        W38036  12.346  12.123  10.925  0.4339 -0.1739  0.0386
21853W        W38037   5.844   8.414   0.518  0.1130 -0.0992 -0.0278
21854W        W38038  10.698   2.949   4.800 -0.3304 -0.1172 -0.0749
21855W        W38039  12.276   2.413  12.890 -0.2029  0.0594  0.1376
21856W        W38040   8.361   8.858  11.853 -0.1458 -0.1594  0.0093
21857W        W38041   0.243  11.754   4.202 -0.2870 -0.0496  0.3315
21858W        W38042   0.457   4.329  13.580 -0.0980  0.0316  0.2281
21859W        W38043   4.806  18.751   0.063 -0.0477  0.2070  0.3121
21860W        W38044  11.031  15.955   4.813  0.0195 -0.1102  0.3281
21861W        W38045  14.551   1.433   9.567  0.2799 -0.2319  0.1557
21862W        W38046  16.335  13.008   1.325 -0.1265 -0.0428  0.1510
21863W        W38047   8.343  18.607  12.663  0.0030 -0.3089 -0.0699
21864W        W38048  14.074  16.640   9.358  0.1430  0.1583 -0.1996
21865W        W38049  17.871  18.966  14.166  0.0883  0.0603  0.2534
21866W        W38050  18.323   4.221  12.923 -0.1281  0.0084  0.0611
21867W        W38051   1.405  17.701   3.308  0.0337 -0.5243  0.0112
21868W        W38052   3.438   9.490  13.376 -0.1082 -0.1358  0.2258
21869W        W38053  11.003   7.494   4.760  0.1002 -0.4116 -0.0015
21870W        W38054   0.768  12.691   5.089  0.2893  0.0275 -0.2640
21871W        W38055   8.474  13.082   2.229  0.1696  0.1909  0.1676
21872W        W38056   3.603   0.568   1.168 -0.4666 -0.2318  0.1690
21873W        W38057   4.343   7.233   0.014 -0.2957 -0.2989  0.0127
21874W        W38058  14.489   3.194   4.287 -0.3350 -0.0800 -0.0562
21875W        W38059  12.304  18.663  11.314 -0.1371 -0.0192  0.0815
21876W        W38060   4.665   7.998  12.228  0.2772 -0.2183 -0.2862
21877W        W38061   9.878  12.092   0.749 -0.2969 -0.3542 -0.1063
21878W        W38062  13.269   6.784   5.152  0.0063 -0.0989  0.0425
21879W        W38063  12.389  13.298  13.977 -0.0770 -0.0827 -0.2598
21880W        W38064   5.468  17.970   2.496  0.1405 -0.2011 -0.0500
21881W        W38065   1.782  10.765  12.517 -0.2603  0.1728 -0.0566
21882W        W38066  12.586   8.128   2.433  0.1218 -0.0827 -0.1861
21883W        W38067   5.801   7.278  13.319  0.1789 -0.1453  0.2075
21884W        W38068   9.354   9.672   0.469  0.1467  0.0395 -0.1088
21885W        W38069   1.181  13.656   5.016  0.2865 -0.3333  0.1598
21886W        W38070  11.602  15.903   2.376 -0.0280  0.0923  0.1945
21887W        W38071   3.327  14.000   2.122 -0.0469  0.0281  0.0684
21888W        W38072  17.539   7.141   3.301 -0.1075  0.0512  0.2080
21889W        W38073   9.430   8.463  10.784  0.4844  0.1867 -0.2408
21890W        W38074  10.428  17.348   2.653  0.0154  0.1130  0.2309
21891W        W38075  15.939   6.966  10.581  0.2591 -0.2878 -0.0080
21892W        W38076  12.966   3.858  13.074 -0.2515  0.0905 -0.0579
21893W        W38077  13.573  14.007  12.756 -0.1616 -0.2183 -0.2954
21894W        W38078  11.657   9.254   1.808 -0.0906 -0.1210 -0.3621
21895W        W38079   3.000   9.500  14.977 -0.0203  0.1386 -0.0980
21896W        W38080  16.056   6.253   5.365  0.0626 -0.1101 -0.2095
21897W        W38081   6.208  12.566   3.920 -0.0796  0.2410 -0.0183
21898W        W38082   9.225  10.787   2.919 -0.0761 -0.0213 -0.0919
21899W        W38083  18.686   0.289   2.549 -0.3273  0.2549 -0.1197
21900W        W38084   3.041   3.414   3.531 -0.0113  0.1709  0.1371
21901W        W38085  16.030  16.845  14.091  0.0213 -0.0621 -0.0314
21902W        W38086  17.348   1.175   5.167  0.3329  0.2687 -0.3160
21903W        W38087  15.609  12.477  10.734  0.2650  0.1163 -0.3116
21904W        W38088  17.024  13.974   3.258 -0.0789  0.1089  0.2003
21905W        W38089   7.658  11.205  12.970  0.0146  0.1301 -0.1322
21906W        W38090  11.326  16.193   4.440 -0.1761  0.2848  0.0642
21907W        W38091   6.423   5.103  13.909 -0.1907 -0.0364  0.1716
21908W        W38092   0.082  10.138   0.774  0.0123 -0.3946 -0.3862
21909W        W38093  13.713   8.115  13.663  0.1733  0.0009 -0.6534
21910W        W38094   9.570   1.679  13.936  0.0165 -0.2668  0.2214
21911W        W38095  17.251   1.712  12.841 -0.2051 -0.1913 -0.1551
21912W        W38096  18.169   2.115  15.270 -0.0031  0.0591 -0.1732
21913W        W38097   3.875   7.811   5.129  0.0347  0.0959  0.2849
21914W        W38098  16.432   9.207   1.759 -0.1166 -0.0810  0.1107
21915W        W38099   7.977   4.511   1.248  0.3101  0.0044  0.0276
21916W        W38100   6.766   6.721   2.528 -0.1016  0.1189  0.2243
21917W        W38101   5.140   6.315   4.956 -0.1457 -0.1331 -0.1144
21918W        W38102   5.775   6.882   2.000  0.0614  0.0116 -0.1855
21919W        W38103  12.536  14.045  12.569  0.0562 -0.0130 -0.1360
21920W        W38104  17.592  13.787  12.177  0.1311  0.5126 -0.1395
21921W        W38105   0.767  17.220  11.536 -0.3683  0.4887 -0.2515
21922W        W38106  16.019  13.637   1.130  0.0096 -0.2797  0.0435
21923W        W38107  10.911  17.680   5.452  0.0465  0.1861 -0.0325
21924W        W38108   3.192   4.242  11.346  0.2184 -0.0063  0.3685
21925W        W38109   0.721  17.465  12.042 -0.2310 -0.1548  0.1418
21926W        W38110  18.584  10.987   2.531 -0.1490 -0.1397 -0.0754
21927W        W38111  16.816  18.134   4.808 -0.0414  0.2253  0.0803
21928W        W38112   6.588  14.454  13.633 -0.0817  0.1249  0.0987
21929W        W38113   8.813   5.372  10.896 -0.0062  0.3132 -0.3209
21930W        W38114  10.620  12.693  14.008 -0.0720 -0.2356  0.1968
21931W        W38115  16.205  11.216   2.586  0.4336  0.0779 -0.1128
21932W        W38116   8.692   6.004  14.064 -0.0857  0.1326  0.1164
21933W        W38117   0.430  11.567  14.785 -0.0235  0.0198  0.1683
21934W        W38118  14.313  17.084   0.105  0.5802 -0.2419 -0.0619
21935W        W38119  12.222   7.471  11.019 -0.0232 -0.2146  0.1677
21936W        W38120   5.490   2.358  11.543 -0.0209  0.0370 -0.0096
21937W        W38121  10.384   5.948   4.569 -0.0166  0.1196  0.1667
21938W        W38122   8.491   4.830  11.502  0.1292 -0.0092 -0.0279
21939W        W38123   5.476  17.450   2.987  0.0721 -0.1561 -0.1713
21940W        W38124  12.671  17.873  12.471  0.5205  0.3577  0.0462
21941W        W38125   5.543  16.858  14.523 -0.0826 -0.1672  0.1163
21942W        W38126  18.967   8.974   3.849 -0.2077  0.1510 -0.0589
21943W        W38127   2.586  18.374  12.523  0.3540  0.0908  0.3040
21944W        W38128  11.820  17.879   0.971  0.0846 -0.0145  0.2777
21945W        W38129   5.073  18.409   2.624 -0.1160 -0.2941  0.1100
21946W        W38130  10.572   1.817  13.489  0.1187  0.2365 -0.0453
21947W        W38131   5.534   0.886  11.829  0.0726 -0.1457 -0.1523
21948W        W38132  17.228  13.846   2.418  0.2060  0.1657 -0.1196
21949W        W38133   5.070  12.595   4.930  0.2945  0.2167  0.0970
21950W        W38134  10.397  14.083   4.701  0.0046  0.2745 -0.0801
21951W        W38135   4.633  16.592   3.717  0.1708  0.1372 -0.1002
21952W        W38136  11.376  11.107   3.989 -0.2328  0.0758  0.1366
21953W        W38137  15.094  17.517   3.854  0.1908 -0.2723 -0.0868
21954W        W38138  15.899  10.360   0.970 -0.0303  0.1255 -0.3285
21955W        W38139   6.889   4.228   1.253  0.2037  0.0551  0.1888
21956W        W38140  12.185  18.253   0.355  0.0126  0.0190  0.0032
21957W        W38141  13.320   1.038   0.827  0.2305  0.4052  0.2820
21958W        W38142   4.438   1.010   2.024 -0.2584  0.1631 -0.1073
21959W        W38143  18.342   5.602   4.717 -0.2290 -0.2979  0.0718
21960W        W38144   9.370   4.654  13.427 -0.1267 -0.2103  0.0641
21961W        W38145  17.472   5.858  11.251  0.0007  0.3419  0.1484
21962W        W38146  16.569   8.618   0.366 -0.0310  0.1194 -0.4394
21963W        W38147   7.710  11.823   1.373 -0.3861  0.2555 -0.3723
21964W        W38148   2.766   8.766   3.641 -0.1793 -0.3426  0.4105
21965W        W38149   4.016   0.871  13.344  0.1679  0.1411 -0.1953
21966W        W38150   2.291   0.562  11.288  0.1161 -0.1458  0.1187
21967W        W38151  13.818   8.763   0.026  0.0348 -0.0269  0.4463
21968W        W38152   8.885  11.464   3.897 -0.1690  0.1233  0.0583
21969W        W38153  13.654   6.463   1.999  0.2911 -0.1798 -0.0200
21970W        W38154   9.821  15.886  10.596 -0.0168 -0.0184  0.3524
21971W        W38155  13.861   5.677  11.373 -0.0606 -0.1140 -0.1349
21972W        W38156   1.746   8.962   2.527 -0.2248  0.3069  0.1152
21973W        W38157  15.880  16.881   9.853  0.0473 -0.0440  0.2272
21974W        W38158  13.341   9.243   2.586  0.1011  0.0304  0.3200
21975W        W38159   2.887   0.870   1.629  0.2228 -0.2226 -0.0639
21976W        W38160  14.880   1.130  14.048  0.3275 -0.3542  0.3009
21977W        W38161   6.567   8.689   3.330  0.1083 -0.0014 -0.0147
21978W        W38162  11.728   5.963   1.444 -0.1391  0.0858  0.0452
21979W        W38163   3.623   5.019  11.794  0.2328  0.3969 -0.3034
21980W        W38164   6.044   6.646   1.212 -0.0660 -0.1051  0.3387
21981W        W38165   3.402  18.672  10.960 -0.2686  0.2737 -0.2374
21982W        W38166   0.907   2.361  12.191 -0.2800  0.0275  0.0439
21983W        W38167  14.581  15.674  14.829  0.0820  0.0205 -0.2084
21984W        W38168  14.822  13.755   2.662 -0.4073  0.2447  0.0208
21985W        W38169  14.642  17.583   3.697 -0.2692  0.0236 -0.1101
21986W        W38170   1.022  15.118  12.251 -0.1512 -0.4968  0.0075
21987W        W38171  15.760  11.026   4.175  0.3543  0.3776 -0.3514
21988W        W38172   5.701  17.164   3.499  0.2194 -0.0054  0.2525
21989W        W38173   9.804   1.121   3.149 -0.3635  0.3424  0.0497
21990W        W38174   4.773  11.074  11.512  0.2021  0.0805  0.0161
21991W        W38175  16.969   3.369   4.649  0.1162  0.2360  0.0144
21992W        W38176  14.691  18.980   1.891 -0.1134 -0.2769 -0.0301
21993W        W38177   5.493   1.976  11.218  0.0945  0.3507  0.4556
21994W        W38178   9.190   6.207  13.416  0.3344  0.0618 -0.1114
21995W        W38179  18.342  16.037   4.142  0.1486 -0.0960 -0.0629
21996W        W38180  10.051  17.539  12.423  0.0665  0.1974 -0.0977
21997W        W38181  17.990   6.850   1.030 -0.3040  0.0642  0.0028
21998W        W38182  18.694   9.696   4.858 -0.0946  0.0605 -0.0475
21999W        W38183  18.077   7.722  11.868 -0.0177 -0.0988 -0.0253
22000W        W38184   8.171   6.483   1.931 -0.1817 -0.2521  0.2776
22001W        W38185   1.734  15.903   3.347 -0.1682 -0.0006 -0.0317
22002W        W38186  14.247   3.263  11.966 -0.2593  0.3324  0.2804
22003W        W38187   2.043  16.779   1.768  0.2084 -0.1655  0.1786
22004W        W38188   4.802   9.590   3.829  0.0989  0.1135 -0.1191
22005W        W38189  13.356   5.370  11.936  0.0315 -0.0276 -0.0251
22006W        W38190  16.610   2.539  10.970 -0.3461  0.3419  0.2540
22007W        W38191  18.673  11.427   1.038 -0.0073  0.0156  0.2375
22008W        W38192   7.850  14.425   3.359 -0.2908 -0.0645  0.0129
22009W        W38193  16.091   6.242   3.469  0.0366 -0.0013 -0.0117
22010W        W38194   8.190   2.815  11.713 -0.1898 -0.0310  0.1661
22011W        W38195   9.028   5.839   3.512 -0.1596  0.1179  0.1658
22012W        W38196  17.523  13.723  14.611 -0.1253  0.3576 -0.0598
22013W        W38197  10.961   1.420  13.472 -0.1041 -0.0312 -0.0113
22014W        W38198   6.166  11.880  13.354  0.4811 -0.3581 -0.0987
22015W        W38199   5.552  12.879   3.774 -0.0411  0.2158 -0.0937
22016W        W38200  18.549  11.221  12.738  0.1406  0.1528  0.0270
22017W        W38201  12.235   5.152   2.469  0.1009  0.0582 -0.1666
22018W        W38202   3.849  11.976   1.907 -0.1715 -0.4057 -0.1795
22019W        W38203  14.151   2.620   2.278 -0.0074 -0.1866  0.1749
22020W        W38204  18.959  16.406   2.957 -0.1948 -0.0685  0.0525
22021W        W38205   1.780   0.621   4.018 -0.0038 -0.1369 -0.0066
22022W        W38206   9.900   3.779   4.044 -0.1877  0.2684  0.2146
22023W        W38207   4.640  17.555   3.254 -0.2804 -0.3413 -0.0009
22024W        W38208   2.683   9.243   1.075  0.2695 -0.0976 -0.0529
22025W        W38209   3.136   6.597  12.045  0.0757 -0.2468  0.0561
22026W        W38210   4.024  10.727  15.154  0.0507 -0.1814  0.0918
22027W        W38211  12.515   7.457   4.499 -0.1890  0.2278  0.2953
22028W        W38212   1.257  14.031  12.555  0.0608  0.0676 -0.1115
22029W        W38213  18.734  18.716   0.431  0.0978  0.0619 -0.1100
22030W        W38214   1.180   4.997   3.681 -0.1032  0.0558  0.0223
22031W        W38215   1.903   5.044  15.269  0.0439 -0.0499 -0.0952
22032W        W38216   5.960  12.756   3.532  0.2676 -0.0249 -0.1292
22033W        W38217   4.797  13.283   2.157  0.0301 -0.4627 -0.1470
22034W        W38218   8.442  14.934  14.631 -0.0637 -0.3775 -0.0959
22035W        W38219  11.513  13.878  11.223  0.1256 -0.0026  0.1401
22036W        W38220  16.978  17.193   0.314  0.1269 -0.3412 -0.1915
22037W        W38221  18.703   7.503   2.779 -0.2194 -0.1595  0.3162
22038W        W38222  16.880   5.137   5.549  0.2162  0.0471  0.1376
22039W        W38223  11.947   6.661   4.845  0.0177  0.0322 -0.2988
22040W        W38224   4.452   0.231   2.735 -0.0857  0.0576 -0.0310
22041W        W38225  16.324   1.305   3.190  0.2060 -0.0764  0.1216
22042W        W38226   0.089   7.252   2.922  0.0376 -0.1469 -0.2574
22043W        W38227  17.846   2.247   1.263 -0.1614  0.0514  0.3257
22044W        W38228   9.666  18.445  14.397 -0.1730  0.4204 -0.0499
22045W        W38229  12.963   6.966   5.991  0.0449  0.3359  0.1775
22046W        W38230  12.619   3.684  11.288 -0.1885 -0.0302 -0.0779
22047W        W38231   1.494   0.240  14.941  0.3774  0.2466  0.3441
22048W        W38232   1.700   6.850   0.547  0.0206  0.0652  0.1633
22049W        W38233   0.519  10.521   0.467  0.2805  0.0793  0.4777
22050W        W38234  16.695   7.380  11.875  0.0286  0.0721  0.1445
22051W        W38235  13.927  10.084  13.709  0.1994 -0.3075 -0.2078
22052W        W38236  12.158  17.122  13.077 -0.1004  0.2100 -0.3632
22053W        W38237  10.473   0.778  14.051  0.0209 -0.3162  0.0502
22054W        W38238   6.389  13.788   0.784  0.0208  0.1882  0.3627
22055W        W38239   4.812   6.453   2.071 -0.0651 -0.0003 -0.1789
22056W        W38240  18.444   3.723  14.463 -0.1128  0.2904  0.1302
22057W        W38241  13.259  10.483   3.330  0.1484  0.0282  0.1336
22058W        W38242   7.459  12.059   0.051 -0.1637 -0.3386  0.1685
22059W        W38243   3.158  14.960  14.192 -0.1133 -0.0691  0.3520
22060W        W38244  12.094   1.948  12.879  0.0755 -0.0570  0.1202
22061W        W38245   8.290   4.460   4.172  0.1899 -0.0280 -0.1128
22062W        W38246   1.688   4.447   0.100  0.2952 -0.0291  0.0896
22063W        W38247   2.115  18.992   4.969 -0.1676 -0.3333  0.5004
22064W        W38248   1.422  11.851   3.447 -0.1512  0.1175 -0.4017
22065W        W38249  10.348  18.089  10.634  0.0341 -0.3073 -0.0248
22066W        W38250  12.007   0.713  10.611 -0.2806 -0.1785 -0.0283
22067W        W38251   6.831   4.729  13.310  0.3950  0.3488  0.0991
22068W        W38252  18.864   7.180   1.416 -0.1996 -0.2562  0.2984
22069W        W38253  15.499  10.548   3.994  0.0162 -0.3173  0.0545
22070W        W38254  17.604   4.501  13.721  0.0847 -0.2938  0.0642
22071W        W38255   8.446   9.365  10.816 -0.1398  0.0006 -0.3645
22072W        W38256  14.501  18.201   0.176 -0.0339 -0.1378 -0.0608
22073W        W38257  13.380   9.137   3.070  0.1029  0.1656 -0.1414
22074W        W38258   7.696   1.414  11.633  0.3998 -0.1226  0.0452
22075W        W38259   3.557   5.604   3.050  0.0929  0.2980  0.1407
22076W        W38260   1.602  11.608   2.183  0.0602 -0.1785 -0.1596
22077W        W38261   8.995  13.380  10.995 -0.1860  0.0978  0.1406
22078W        W38262   9.666   1.562   4.923 -0.0644  0.0603 -0.0480
22079W        W38263  11.895   1.247  13.549  0.2400 -0.0467  0.4459
22080W        W38264  13.364  16.167  11.061  0.1105 -0.2981  0.2496
22081W        W38265  15.193  14.316  14.338 -0.1281  0.1086 -0.1091
22082W        W38266   0.896   8.202  13.008  0.0322 -0.1447  0.0756
22083W        W38267   4.721  14.478   3.403 -0.3202  0.0372  0.0416
22084W        W38268  13.615  15.016  11.623 -0.1247  0.0241 -0.1727
22085W        W38269   7.237  10.439  11.177 -0.1875 -0.0125 -0.1012
22086W        W38270  11.679  13.735   1.119  0.1211 -0.1181  0.1049
22087W        W38271  10.662  14.256   0.128  0.2351 -0.1891  0.0180
22088W        W38272   1.402   4.508   3.992  0.0610  0.1835  0.0295
22089W        W38273   9.626  18.455   3.263 -0.0751  0.1313 -0.0738
22090W        W38274  11.324   4.253  12.860  0.0997  0.0121 -0.1341
22091W        W38275   8.281  10.987  12.301 -0.0602 -0.1776  0.0504
22092W        W38276   6.449   1.728  13.504  0.1169  0.1474  0.2389
22093W        W38277   4.166   7.165   3.477  0.3178 -0.3421  0.0689
22094W        W38278   2.108   7.217  15.311  0.1270  0.2990 -0.0127
22095W        W38279  13.753   7.478   2.424  0.0664  0.0322  0.0712
22096W        W38280   7.465  15.585  10.085 -0.0266 -0.2541  0.4383
22097W        W38281   5.581  16.520   3.846  0.1348  0.0241  0.3023
22098W        W38282  10.698   7.799   2.159  0.2058  0.0886 -0.1734
22099W        W38283   3.567  13.695  12.469  0.1950  0.0820 -0.2548
22100W        W38284   6.902   3.405  13.940  0.1160  0.2059  0.1981
22101W        W38285   4.606  12.382   5.480 -0.1189  0.1551  0.1082
22102W        W38286  14.934  10.614  13.240  0.2968 -0.4543  0.2123
22103W        W38287   2.774   4.966   1.081  0.0391  0.2035  0.1463
22104W        W38288   9.108   9.815  13.777  0.2370  0.1744 -0.2791
22105W        W38289  10.226  10.623   4.359 -0.0264 -0.1994 -0.4989
22106W        W38290   2.316  11.998   2.822  0.1583  0.3962 -0.0088
22107W        W38291   1.225   6.616  13.226 -0.0459 -0.0152 -0.0192
22108W        W38292   3.192   8.337  10.783  0.0308 -0.0232  0.0795
22109W        W38293   4.254   3.268  13.780 -0.2664 -0.0166  0.0299
22110W        W38294  13.150   1.482  11.288 -0.4055 -0.0068  0.2363
22111W        W38295   4.615   0.017  11.322  0.1304  0.0188  0.1207
22112W        W38296   1.553   3.284  14.234  0.1271  0.1322 -0.1592
22113W        W38297   2.527  12.136   0.075 -0.1338 -0.1402  0.1222
22114W        W38298   1.571  17.707   2.026  0.2868 -0.1008 -0.0191
22115W        W38299  11.523  13.232  12.849  0.0601  0.1420  0.0425
22116W        W38300  16.630  11.720   3.608 -0.0974  0.0809 -0.0573
22117W        W38301   5.027   4.955  13.068  0.0053 -0.1105 -0.0919
22118W        W38302  12.177   3.338  13.261  0.3840 -0.1934 -0.0194
22119W        W38303   5.631  16.417  14.790  0.1057 -0.0197  0.2799
22120W        W38304   1.467   8.105   0.048  0.1917  0.2347  0.3565
22121W        W38305  13.281   9.376  12.847  0.0403  0.1730  0.0662
22122W        W38306   3.775  10.771  11.399 -0.1060 -0.5583  0.2525
22123W        W38307  16.211   2.347  12.332 -0.0829  0.1633  0.0869
22124W        W38308   1.179  12.160  12.310 -0.1722 -0.2170 -0.1026
22125W        W38309   7.316   0.895  12.208  0.0606  0.0049 -0.0012
22126W        W38310   8.518   5.617   4.339  0.1973 -0.0675  0.0382
22127W        W38311   0.665  11.406   5.412  0.2186 -0.2363  0.2388
22128W        W38312  18.952  10.260   1.943  0.1162 -0.2727 -0.0329
22129W        W38313   5.796  16.554  14.070 -0.2189  0.4115  0.1974
22130W        W38314  18.132  14.134   3.524  0.2754  0.3673 -0.2365
22131W        W38315  15.033  18.104  10.478  0.0233 -0.1525 -0.3401
22132W        W38316  15.998   8.886   3.659 -0.1092  0.0252  0.2669
22133W        W38317  10.210  11.707   0.170 -0.3189  0.1423 -0.0336
22134W        W38318  10.485  12.081   1.496 -0.0359 -0.1009  0.0024
22135W        W38319  11.977   7.393   4.538 -0.2063  0.5257  0.0216
22136W        W38320   2.282  14.295   0.485 -0.0866  0.0253 -0.0642
22137W        W38321   2.039  17.749  14.763 -0.4172 -0.0299  0.0242
22138W        W38322   3.533  16.649   3.371  0.1968  0.0080  0.2826
22139W        W38323   4.161   6.609  11.610  0.1527  0.0949  0.0986
22140W        W38324   2.680  10.498   0.626 -0.0558  0.1727  0.0207
22141W        W38325   7.682   4.242  11.490 -0.2955 -0.0225  0.0217
22142W        W38326  14.334   4.124   2.390 -0.0304 -0.0138  0.0281
22143W        W38327  14.247   5.275   1.971  0.1785 -0.1191 -0.3638
22144W        W38328   8.751  13.382   3.341  0.0805  0.2613 -0.1982
22145W        W38329   6.007  13.270  11.328  0.1196 -0.0001 -0.0712
22146W        W38330   3.848  16.750  10.152  0.1076 -0.1390  0.2720
22147W        W38331   1.952   2.671  12.737 -0.2315 -0.1708  0.3601
22148W        W38332  12.876  15.571  13.830 -0.0824  0.3377  0.0046
22149W        W38333   9.369  15.461   0.457  0.1050 -0.1187 -0.1713
22150W        W38334  18.027   4.101   5.004  0.3855  0.2880 -0.1986
22151W        W38335   6.193   1.752  11.507 -0.4077  0.2351 -0.1096
22152W        W38336   8.817  11.188  13.513 -0.2583  0.0387 -0.0079
22153W        W38337   1.977  12.086  13.246 -0.2296 -0.1830 -0.0605
22154W        W38338   8.465  18.121   4.491 -0.0743 -0.0343  0.1442
22155W        W38339  17.629   1.811   0.376 -0.0299  0.0037 -0.2289
22156W        W38340   7.209   3.999   3.513 -0.0866 -0.0534  0.0636
22157W        W38341   8.017  16.092   5.132 -0.3946  0.2533 -0.1569
22158W        W38342  14.570   6.999  10.354  0.1350 -0.0943 -0.1069
22159W        W38343   5.231   1.608   0.378 -0.0100  0.2756 -0.0742
22160W        W38344  13.270  17.310  14.194  0.1742 -0.0456 -0.2403
22161W        W38345  18.189  15.374  11.281  0.0590  0.4053 -0.0502
22162W        W38346  18.580  16.346  14.278 -0.1834 -0.2124  0.0474
22163W        W38347   5.249   6.302   1.810 -0.0377 -0.3778 -0.1196
22164W        W38348   1.397   9.152   0.325  0.1905 -0.0132 -0.2453
22165W        W38349  13.481  18.185  12.024  0.0319 -0.1006 -0.2658
22166W        W38350  16.103   6.534   1.394  0.3566  0.2097  0.0826
22167W        W38351   6.182   0.719   0.396 -0.1590 -0.3442 -0.0510
22168W        W38352  15.035   6.388  13.549 -0.0443  0.1455 -0.2282
22169W        W38353  14.821   6.280  11.506  0.1343  0.0596 -0.0463
22170W        W38354  11.214   2.342  14.963 -0.2182  0.3233  0.2563
22171W        W38355  17.338   8.673   0.856  0.2173  0.1915  0.0673
22172W        W38356   6.953   7.498  12.468 -0.0725 -0.0810 -0.2280
22173W        W38357   7.287   4.646   1.418 -0.2073  0.4833  0.0056
22174W        W38358   2.329   0.468  11.929  0.0751  0.1504  0.2651
22175W        W38359   1.424   7.059   5.533 -0.0450 -0.1524  0.0391
22176W        W38360   5.275  12.874  11.811  0.0940 -0.0209 -0.1031
22177W        W38361   5.071   5.207  12.233  0.2884  0.1258  0.1703
22178W        W38362   1.093  18.084   4.298  0.0239  0.1254  0.1476
22179W        W38363   3.891  11.592  13.214  0.1305  0.1682  0.2354
22180W        W38364  13.031  10.070   1.506  0.2197 -0.0296  0.3065
22181W        W38365   0.729  11.146  14.942  0.0616 -0.1315  0.2698
22182W        W38366   7.874   8.594   1.752  0.1773 -0.0495  0.3991
22183W        W38367  12.995  12.653   2.376  0.2656 -0.2683 -0.3429
22184W        W38368  11.490   8.787   2.021 -0.3222  0.0617  0.1619
22185W        W38369   3.504   1.923   5.869  0.1013  0.0634  0.1026
22186W        W38370   1.528   7.246   1.003  0.1553 -0.0298 -0.2541
22187W        W38371  12.704  18.070   3.709  0.2110 -0.1418 -0.0009
22188W        W38372   6.364  12.451  14.316  0.4232 -0.1075 -0.0605
22189W        W38373   3.677   2.433   0.728 -0.2912  0.1980 -0.0814
22190W        W38374  18.903  15.153  10.904  0.1271 -0.2147  0.1913
22191W        W38375   3.135  11.218   5.338  0.0573 -0.1038 -0.0041
22192W        W38376   8.974  14.012   1.821  0.1261  0.3283 -0.1287
22193W        W38377  17.891  16.101   1.417  0.1506 -0.0450  0.5987
22194W        W38378  12.652   0.555   1.950  0.1292 -0.1565 -0.2038
22195W        W38379  14.906  11.236   1.421  0.1086 -0.0852  0.3173
22196W        W38380  16.160   5.558   1.552 -0.0598  0.1944 -0.1604
22197W        W38381  18.987   8.181   2.236  0.1236 -0.1862  0.0321
22198W        W38382   5.980  17.074   4.129  0.1724  0.1033  0.1602
22199W        W38383  18.203   2.354  10.893  0.0335  0.1818  0.0171
22200W        W38384  12.544  18.955   3.477  0.0701  0.2506  0.0232
22201W        W38385   4.711   3.629   0.781 -0.0781  0.0494 -0.0223
22202W        W38386  15.745   2.801  14.521  0.3095  0.0997  0.0570
22203W        W38387   7.595   0.339  13.771  0.3117  0.0614  0.0856
22204W        W38388  13.343  14.405  11.502 -0.1565  0.2525  0.2747
22205W        W38389   3.149  10.520  11.429  0.1923  0.0107 -0.1373
22206W        W38390   5.434   0.926   4.291  0.1554 -0.1446 -0.2792
22207W        W38391   5.164  12.550   0.331  0.1163  0.0370  0.2596
22208W        W38392  12.570   8.362  15.230 -0.0683 -0.1633  0.1040
22209W        W38393  14.012   5.506   4.558  0.0611  0.1451 -0.0810
22210W        W38394  12.465   1.691   3.393 -0.0229 -0.0260  0.1483
22211W        W38395   0.131  16.308   0.605  0.3296 -0.0995 -0.1402
22212W        W38396  16.245  14.630   3.884 -0.0709  0.0819 -0.1240
22213W        W38397  14.976  10.703   2.625 -0.0651  0.1576 -0.0961
22214W        W38398  15.386   3.273   2.769 -0.0963 -0.0808 -0.2292
22215W        W38399   1.965  11.749  12.290  0.0480 -0.2294  0.0132
22216W        W38400  10.931   0.774   4.604 -0.4428 -0.1036 -0.0167
22217W        W38401   9.003  17.147   2.394 -0.0404  0.0123 -0.0447
22218W        W38402   5.218  14.116   3.284  0.1726 -0.1849 -0.1589
22219W        W38403  14.533   0.096  15.041  0.1465 -0.2913 -0.0854
22220W        W38404   0.564   9.590   4.999  0.0589  0.0189  0.1471
22221W        W38405   6.064  11.674  11.728 -0.0591 -0.0265  0.0487
22222W        W38406   4.578  17.706  13.277 -0.2786  0.2529 -0.3952
22223W        W38407  17.743   8.407   0.057 -0.0612 -0.0090  0.0143
22224W        W38408   5.595   7.473   4.737  0.0667 -0.4157  0.3378
22225W        W38409  12.930   8.583  13.397  0.1223  0.0074 -0.2310
22226W        W38410   2.427   3.832   1.080 -0.1606 -0.1221 -0.0179
22227W        W38411   0.243  14.580   2.394 -0.3403 -0.1161 -0.1335
22228W        W38412   1.780  15.083   5.340 -0.3051  0.1415 -0.0344
22229W        W38413   8.050  14.641  14.556  0.1344  0.0167  0.4569
22230W        W38414  12.559  12.089  13.762 -0.0390 -0.1098  0.0956
22231W        W38415   6.166   7.678   0.120 -0.1016  0.0488  0.3217
22232W        W38416  15.235   2.822  13.703 -0.0498  0.1280 -0.2557
22233W        W38417   0.151   3.403  12.627 -0.2325 -0.0573  0.0995
22234W        W38418   1.562   6.742   1.106 -0.1091 -0.0948 -0.2468
22235W        W38419  13.500  11.357   0.463 -0.0503  0.0858  0.1054
22236W        W38420  17.520   9.221   5.738 -0.2856 -0.0349  0.1507
22237W        W38421   2.475  15.688   2.786 -0.2558  0.2029  0.0469
22238W        W38422   8.305   7.304   5.821 -0.0002 -0.5088 -0.2528
22239W        W38423   4.426  11.259   4.700 -0.2439  0.1753  0.0039
22240W        W38424   8.838  15.434   1.344 -0.0445  0.1666 -0.0802
22241W        W38425   7.173  11.229   1.060 -0.2125  0.0383  0.0322
22242W        W38426  11.732   0.742  13.634  0.2820  0.0446  0.0406
22243W        W38427   7.719  14.739   1.522 -0.0556 -0.2452  0.2059
22244W        W38428  14.930   2.211  15.033 -0.2272 -0.0784  0.2863
22245W        W38429   2.316   8.492  12.398 -0.3514 -0.1257  0.0987
22246W        W38430   3.747   4.967   0.512 -0.3655 -0.1978 -0.1469
22247W        W38431   3.589  11.497   1.191 -0.0296  0.1211  0.4065
22248W        W38432  16.720   1.499  12.030  0.1098 -0.1737  0.2129
22249W        W38433   7.106   4.798  14.207  0.1753  0.0660 -0.1966
22250W        W38434  18.121   7.287   0.762 -0.2456 -0.2458  0.1366
22251W        W38435  16.537  16.372   4.096  0.2381  0.1243 -0.1176
22252W        W38436  18.368   5.428   0.825  0.2212 -0.1701 -0.0406
22253W        W38437   1.528   1.789  15.362  0.1418 -0.1597 -0.3092
22254W        W38438  16.300  13.082  10.820  0.1600 -0.1392  0.2716
22255W        W38439   4.845   5.281   1.832  0.2182  0.2513 -0.2273
22256W        W38440   7.817   2.818   1.762 -0.0466  0.0779 -0.1602
22257W        W38441   1.684   4.810  11.019 -0.0554 -0.1690 -0.0076
22258W        W38442   9.517  13.428  12.222 -0.3070 -0.1286  0.3226
22259W        W38443   3.085  18.662  13.551 -0.0335 -0.1613 -0.6910
22260W        W38444  10.821  12.185   3.492  0.0196 -0.0840  0.1035
22261W        W38445  15.454   2.815   5.010  0.1661  0.0226 -0.2100
22262W        W38446   3.350   1.528  12.254 -0.0901 -0.0619 -0.1309
22263W        W38447  15.756  16.556  14.419  0.0659  0.0919  0.3168
22264W        W38448   5.687  12.908  12.546 -0.0935 -0.1292 -0.1161
22265W        W38449  14.613   0.219   3.627  0.3807  0.0287 -0.3324
22266W        W38450  16.991  18.297  13.836 -0.1406  0.1092  0.0586
22267W        W38451   7.690   0.392  10.969  0.0626 -0.0248  0.0808
22268W        W38452   8.330   9.391  11.887  0.1093 -0.2151 -0.0156
22269W        W38453   4.871  10.061   3.919  0.0519 -0.1114  0.1739
22270W        W38454  16.768   3.210   4.210 -0.1170 -0.0990 -0.3557
22271W        W38455   4.734  15.885   4.650 -0.0792  0.0986  0.0047
22272W        W38456   0.489   7.252  11.069  0.1436  0.0685 -0.0159
22273W        W38457  15.002   7.665   5.366 -0.0407 -0.0574 -0.0838
22274W        W38458  12.218  11.661  13.502 -0.2071 -0.1370  0.0066
22275W        W38459   8.882   1.992   3.053  0.0104  0.2952  0.1376
22276W        W38460   8.150  17.193   3.125  0.0535 -0.0576 -0.4455
22277W        W38461   2.442  14.062   3.664 -0.3649  0.3712  0.0775
22278W        W38462  17.296   0.221   1.509  0.3392  0.0408  0.0355
22279W        W38463  12.088  15.858  10.397 -0.0188 -0.1081 -0.2908
22280W        W38464   2.612   7.285  11.613  0.2708  0.1560  0.0650
22281W        W38465   8.959  14.711   2.870  0.0284  0.0029 -0.3865
22282W        W38466  14.932   7.680  14.390  0.2427  0.0341 -0.0105
22283W        W38467   1.133   2.044  12.609  0.1384  0.2450 -0.2945
22284W        W38468  17.802  14.718  12.410 -0.1242 -0.2093 -0.0320
22285W        W38469  11.496  18.413  13.002  0.2173  0.5424 -0.1913
22286W        W38470   6.946  11.458  10.233  0.0904 -0.0236 -0.0537
22287W        W38471  18.220  18.523  12.520 -0.0835  0.3318 -0.2788
22288W        W38472   6.272  12.970   4.221 -0.0684  0.1751  0.1304
22289W        W38473   7.662  16.035  14.778 -0.2807  0.3104  0.2214
22290W        W38474  10.980  16.738   1.586 -0.0468  0.1707  0.1067
22291W        W38475   6.280  17.059  11.678  0.0894  0.1102  0.0741
22292W        W38476  15.812   8.333   2.078 -0.0779 -0.1140  0.0213
22293W        W38477  13.284  14.299  13.205  0.0312 -0.0274 -0.0334
22294W        W38478  14.969   6.126  11.946  0.1074  0.0776 -0.1708
22295W        W38479   0.597   6.256   5.079  0.0049  0.3327 -0.0052
22296W        W38480   7.953   7.111  11.898 -0.0561 -0.0463  0.3980
22297W        W38481  11.571   0.241   4.854 -0.5025  0.2107 -0.2366
22298W        W38482   2.111   3.970   5.088  0.1349 -0.0081 -0.0430
22299W        W38483  11.532   6.197   2.101 -0.3950 -0.1710 -0.0785
22300W        W38484   2.477  12.944   2.458 -0.4049  0.0702 -0.1629
22301W        W38485   2.285  16.621   3.853  0.0264 -0.2998 -0.0815
22302W        W38486   3.956   3.050   4.335 -0.2946 -0.0622 -0.1130
22303W        W38487  17.908   1.950  12.925  0.1459 -0.3048 -0.0973
22304W        W38488  16.798   8.956   2.031  0.0697  0.1386  0.3512
22305W        W38489   2.218  11.585  11.802  0.0038  0.2763  0.0757
22306W        W38490  12.071  16.854  13.969 -0.0647 -0.3275 -0.0476
22307W        W38491   6.059  14.779   4.056  0.4278  0.0224  0.1470
22308W        W38492   1.979   0.916  13.825 -0.1381 -0.2424 -0.3310
22309W        W38493  14.622  12.804   2.049  0.0539  0.0121 -0.0475
22310W        W38494   9.890  11.977   3.254 -0.0134  0.1322 -0.1139
22311W        W38495   8.373  15.558   0.165  0.1804 -0.2588 -0.2755
22312W        W38496  17.724   6.331   2.675 -0.1022  0.0496 -0.0326
22313W        W38497   4.065   0.676  14.229 -0.2090  0.2679 -0.1397
22314W        W38498  10.219   5.041   0.678  0.0864  0.0197  0.3061
22315W        W38499  14.659  10.320   4.673  0.3084  0.0239  0.0956
22316W        W38500  18.540   5.679   5.195  0.3256 -0.0393  0.1615
22317W        W38501  15.026   3.685  13.758  0.0874  0.0664 -0.1352
22318W        W38502   9.553   2.841  10.434 -0.1788 -0.0213 -0.2544
22319W        W38503  18.665  15.826  12.731 -0.0356 -0.0034 -0.3516
22320W        W38504  10.636  17.058   0.676  0.3314 -0.0852  0.5982
22321W        W38505   8.483  15.863   2.131 -0.1133  0.2033 -0.1239
22322W        W38506   6.308  15.332  14.995  0.0471 -0.2563  0.3461
22323W        W38507   6.029  13.805   1.973 -0.0591 -0.1154  0.0543
22324W        W38508   8.028  10.479  12.282 -0.1353 -0.1334  0.0668
22325W        W38509   8.504  11.129   4.038 -0.1288  0.3448 -0.0990
22326W        W38510  11.708   8.360  13.190  0.3745 -0.0503  0.1503
22327W        W38511   8.927  17.128   1.044  0.1669 -0.4079 -0.3533
22328W        W38512   3.660   9.064   1.106 -0.0868 -0.1688 -0.3014
22329W        W38513  16.207   7.553  13.203 -0.2651 -0.1091 -0.0707
22330W        W38514  17.705  12.170   3.387  0.0233  0.1176 -0.1472
22331W        W38515  13.830  13.239  13.180 -0.1375  0.2023 -0.0189
22332W        W38516   7.936   2.642  12.733  0.1125 -0.2410 -0.2389
22333W        W38517   6.217   3.134  10.741  0.0094 -0.0688  0.0825
22334W        W38518   5.226  16.362   0.448  0.0980 -0.0917 -0.3425
22335W        W38519  11.278   6.066   1.662  0.1925  0.3228 -0.0882
22336W        W38520  18.084  12.894   2.373  0.1215  0.1297  0.0803
22337W        W38521  17.399   1.207   2.250 -0.1291 -0.2062  0.1372
22338W        W38522   5.206  17.415   1.743  0.1167  0.0779 -0.2813
22339W        W38523   0.063   1.496   3.801  0.1894 -0.1312 -0.1694
22340W        W38524  14.866  17.059  14.795 -0.2555 -0.0712 -0.3347
22341W        W38525   4.006  10.526  14.078  0.3325 -0.4916  0.0677
22342W        W38526   3.498   5.293   1.419  0.0529  0.1154  0.0598
22343W        W38527  10.362   0.987   4.916  0.0330 -0.0614 -0.1221
22344W        W38528   7.071  15.936  12.454  0.1426 -0.1542 -0.0095
22345W        W38529  12.834   8.695   4.661 -0.0993 -0.1959 -0.1441
22346W        W38530  14.573  16.363   1.498  0.1407  0.1935 -0.3788
22347W        W38531  16.725   9.426   3.738 -0.0468 -0.1977  0.1082
22348W        W38532  14.203   3.944  13.888 -0.0896  0.1859 -0.1708
22349W        W38533  12.801   6.299  13.701 -0.0002 -0.0897  0.1686
22350W        W38534   8.499   2.502  13.833 -0.1239 -0.3305 -0.2223
22351W        W38535  13.883   3.090  15.065  0.3170  0.1777  0.1319
22352W        W38536  15.708   7.606  12.539  0.2665 -0.0595  0.2528
22353W        W38537   7.619  11.038  14.319  0.0276 -0.2105  0.1361
22354W        W38538  10.516  12.862   4.282  0.1769 -0.0015 -0.0388
22355W        W38539   1.142   3.580   5.663 -0.3320  0.0397 -0.1075
22356W        W38540  11.677  17.537   4.504 -0.0955  0.3311  0.0798
22357W        W38541   7.220   9.756  12.851  0.0218 -0.0225  0.1368
22358W        W38542   3.931  11.524   3.643 -0.3362 -0.1100  0.0355
22359W        W38543   8.676   5.653   5.809 -0.2428 -0.1964 -0.0106
22360W        W38544   8.177  15.919  10.451  0.0270 -0.1396 -0.1574
22361W        W38545   8.802   2.974   4.708  0.1681 -0.0851  0.3417
22362W        W38546  11.854   3.351  11.367 -0.0466 -0.1894  0.0667
22363W        W38547  11.393   7.667  13.612  0.1732 -0.2218 -0.0690
22364W        W38548  16.331   0.328  11.545  0.0828 -0.1645 -0.2752
22365W        W38549   4.449  14.773  14.286 -0.1726 -0.1839 -0.3051
22366W        W38550   9.209  15.012   3.206  0.2146 -0.0007  0.1814
22367W        W38551  11.740  18.416   0.780  0.0387 -0.2001 -0.2730
22368W        W38552   6.132   1.268  11.330 -0.0779  0.3050  0.1684
22369W        W38553  17.205   9.877   0.014 -0.0764  0.0950 -0.3128
22370W        W38554   5.782   8.150   2.194 -0.0921  0.0055 -0.2845
22371W        W38555  10.270  15.298   3.074 -0.0708 -0.0205  0.1423
22372W        W38556  17.949   3.728  11.362 -0.0073  0.0961  0.0863
22373W        W38557  13.896   0.193  11.387 -0.0666  0.3989 -0.0446
22374W        W38558  14.395  12.489   5.010  0.1106 -0.1592  0.0679
22375W        W38559   1.827  14.965   3.019 -0.1616 -0.1785 -0.4669
22376W        W38560   1.418  16.393  13.734 -0.1597  0.1298 -0.1896
22377W        W38561   5.514   4.655   1.782 -0.0825 -0.2824 -0.3046
22378W        W38562   2.459  10.410   3.089  0.1634  0.0134 -0.0815
22379W        W38563   6.411   3.218   6.339  0.1706 -0.1945  0.1902
22380W        W38564  11.962  12.926  13.940 -0.0581 -0.3604  0.0629
22381W        W38565   9.207   2.353   1.365  0.0262 -0.1675 -0.1164
22382W        W38566   2.703  11.693   2.982 -0.3438  0.7141  0.1450
22383W        W38567   8.361   2.569  12.343  0.2517 -0.1253  0.2165
22384W        W38568   0.911   5.829  13.376  0.0456  0.2071  0.1769
22385W        W38569   6.023   0.540   5.345  0.0465  0.1797 -0.2729
22386W        W38570   2.330  15.850  13.839  0.4063 -0.0093  0.0027
22387W        W38571  17.911  15.209  13.644  0.0145  0.1509  0.3743
22388W        W38572  12.205   6.135  12.065  0.2831 -0.2254  0.2845
22389W        W38573   2.293   4.184   1.481 -0.0658  0.0517 -0.1518
22390W        W38574   5.151  14.514   5.597  0.0361  0.2260 -0.2867
22391W        W38575  15.952   4.567   1.453 -0.0648  0.4125  0.4556
22392W        W38576   2.571  18.819   4.032 -0.0858 -0.5501 -0.1411
22393W        W38577   5.565   2.373  14.470 -0.1187 -0.0439 -0.1506
22394W        W38578  10.904   4.455   0.251 -0.4214 -0.1706  0.1487
22395W        W38579   6.452   3.615   5.090  0.2928 -0.0286  0.0932
22396W        W38580  10.697  10.418   2.328  0.0559  0.0834  0.1435
22397W        W38581  11.607  12.277   2.908 -0.0272 -0.2183 -0.2250
22398W        W38582  18.580   5.151  11.696 -0.1346 -0.0508  0.0700
22399W        W38583  12.119  12.143   2.783  0.3209  0.0893 -0.2057
22400W        W38584   4.968  14.236  11.405  0.0410 -0.4538 -0.2128
22401W        W38585  13.158   5.386   4.462  0.0992 -0.3839 -0.1464
22402W        W38586   7.230  15.125  14.547  0.0964 -0.0262  0.2199
22403W        W38587   0.379   4.282   3.994 -0.2940  0.1488  0.1575
22404W        W38588   2.205   3.682  14.050  0.5735 -0.0056  0.3505
22405W        W38589  11.388   2.893   3.511  0.0872 -0.1248 -0.0332
22406W        W38590  12.010   2.268   9.272 -0.0296  0.4511  0.1855
22407W        W38591  11.275  11.930   1.436  0.2709  0.2749 -0.0588
22408W        W38592   4.997   6.230   5.517 -0.1322  0.0268 -0.1951
22409W        W38593  15.495  13.963  13.212  0.0837 -0.0838  0.2035
22410W        W38594  11.471   4.223   0.951 -0.0469  0.1168 -0.1386
22411W        W38595   0.033  15.079  15.091  0.1173 -0.4418 -0.0924
22412W        W38596   6.401  16.108  10.691 -0.2218  0.0393  0.1092
22413W        W38597   4.370   9.431   2.712 -0.0492  0.4249 -0.0489
22414W        W38598  10.616   9.907   4.565  0.1795 -0.4480  0.0106
22415W        W38599   0.275   6.195   2.645 -0.2520  0.2966  0.4502
22416W        W38600   7.717   7.799   4.851 -0.0445  0.3974 -0.0172
22417W        W38601   8.049   0.432   5.523 -0.0699 -0.2108 -0.2581
22418W        W38602   2.772  18.224  13.556 -0.4316  0.0906 -0.0441
22419W        W38603  14.484   2.157  12.847  0.2513  0.2082 -0.1249
22420W        W38604  13.892  13.533  14.170 -0.1656 -0.0616 -0.1431
22421W        W38605  10.916   4.711  11.160  0.0609  0.2182 -0.0123
22422W        W38606  15.581   6.304  12.299  0.2951 -0.0360  0.1282
22423W        W38607   5.448   5.260  13.777  0.0372  0.0191  0.2658
22424W        W38608   4.850  10.666  14.611 -0.0287  0.2655 -0.3365
22425W        W38609  11.006  11.324  11.533  0.0270  0.2495  0.1611
22426W        W38610   9.672  10.733   3.610  0.0750 -0.0339  0.1486
22427W        W38611   5.597  14.865   4.271  0.0769  0.0341  0.0290
22428W        W38612  13.649  11.676  14.747 -0.1327 -0.0912 -0.2204
22429W        W38613  17.203  18.139  12.768 -0.1389  0.0405  0.1768
22430W        W38614  16.751  14.966   0.988  0.0788  0.0963  0.0870
22431W        W38615   0.370  10.668  10.956  0.2805  0.2161  0.1709
22432W        W38616  16.227  17.949   3.305 -0.2255 -0.1010  0.2097
22433W        W38617   7.931   7.817  15.063 -0.2522 -0.0474  0.0520
22434W        W38618  15.608   7.566  13.584 -0.0250  0.1231  0.0457
22435W        W38619  14.632  10.798  14.627 -0.0519 -0.0864 -0.2576
22436W        W38620   7.263  17.423  14.234  0.2778  0.2844 -0.0470
22437W        W38621   7.466  11.309  13.577 -0.1381 -0.3079  0.1988
22438W        W38622   9.644  11.612   2.488  0.0760 -0.0003 -0.0136
22439W        W38623   6.000   9.461  12.448  0.1084 -0.1521  0.0877
22440W        W38624   6.545  13.571  14.690  0.0497 -0.3263  0.4963
22441W        W38625   1.406  13.141   5.929 -0.3621  0.0430 -0.0768
22442W        W38626   7.383  11.342   4.202 -0.2782 -0.1659  0.2790
22443W        W38627  11.572  17.578   1.794  0.0005 -0.0348  0.1676
22444W        W38628  14.818  12.560   3.391 -0.1321 -0.0265 -0.0941
22445W        W38629  13.160  11.720   3.365  0.0946 -0.1438  0.1016
22446W        W38630   2.987  17.769   0.510  0.0248 -0.0340 -0.1014
22447W        W38631  16.729   7.610  14.257  0.1163 -0.0954  0.4507
22448W        W38632  14.576  10.314  14.755  0.2718  0.0867  0.2665
22449W        W38633  15.607  13.927  13.697 -0.3007  0.1379 -0.0689
22450W        W38634  10.492   7.700   0.195 -0.1431 -0.0211  0.0320
22451W        W38635  10.915   4.872  12.893 -0.1375  0.1082 -0.1150
22452W        W38636   6.321  12.884  13.040 -0.0775 -0.0406 -0.0505
22453W        W38637  10.989  10.528   0.018  0.1410  0.2094  0.4059
22454W        W38638   6.443   7.783   4.277  0.1403  0.1238 -0.1338
22455W        W38639   6.915   7.857   4.034  0.1287  0.0896 -0.0094
22456W        W38640  15.591  17.548  11.269 -0.0761 -0.0073  0.0977
22457W        W38641  15.298  15.324  13.957 -0.0490 -0.4393 -0.2336
22458W        W38642  15.761  18.434  13.521  0.0741 -0.2018  0.1243
22459W        W38643   2.852  16.688   4.180 -0.0753 -0.1048  0.0684
22460W        W38644   2.247  18.468   2.963 -0.0870  0.0451  0.1781
22461W        W38645  17.888  13.335   2.141  0.0851 -0.0872  0.0123
22462W        W38646   6.975  13.354   0.395  0.1364 -0.2112 -0.0517
22463W        W38647   6.679   0.658  14.857 -0.0324 -0.1946  0.2586
22464W        W38648   8.879   0.400   5.118 -0.2664  0.1263  0.1935
22465W        W38649  16.138   2.663  12.727  0.0861  0.5857 -0.0106
22466W        W38650   6.352   1.840   4.398 -0.0516  0.1275  0.0180
22467W        W38651   6.093   1.864   3.849 -0.0315 -0.1330  0.2457
22468W        W38652  15.609  13.856  10.923  0.2990 -0.2224 -0.0989
22469W        W38653  12.650   6.195   1.110  0.0861 -0.5522 -0.0100
22470W        W38654   6.481   6.897   4.137 -0.2491  0.5763 -0.3279
22471W        W38655  12.604  13.819   3.415  0.1080  0.2046 -0.0133
22472W        W38656  13.092   1.522  12.928  0.2490 -0.3475 -0.1701
22473W        W38657   5.411   7.762  12.441  0.1634 -0.0509  0.0471
22474W        W38658  18.498  18.920   1.670  0.1474 -0.0120 -0.1318
22475W        W38659   9.239   2.766  10.955 -0.0298  0.1088 -0.0349
22476W        W38660   2.333  10.612   2.557 -0.0467  0.0647  0.0746
22477W        W38661  14.258  17.762   1.866  0.3300 -0.2789 -0.3221
22478W        W38662   9.887  15.072   2.783  0.2308 -0.2370 -0.2332
22479W        W38663  16.387   9.364  12.682 -0.1033  0.2656  0.0985
22480W        W38664   7.310   3.243   0.451 -0.0984  0.1012  0.1301
22481W        W38665   7.256  14.317  12.459 -0.0857  0.1626 -0.1688
22482W        W38666   6.595   2.212   4.202  0.1083 -0.0530 -0.1272
22483W        W38667  12.279   4.461  14.257  0.0617  0.0809  0.0628
22484W        W38668  13.027  16.490   3.403 -0.0202  0.1235 -0.3280
22485W        W38669   2.233   9.290   0.813 -0.0177 -0.1181 -0.3315
22486W        W38670  15.649   9.506   2.201  0.3678  0.1124 -0.3518
22487W        W38671   0.543  12.033  14.939  0.0635  0.0595  0.2412
22488W        W38672  15.216  13.781   2.993 -0.0084  0.4375  0.2888
22489W        W38673   1.927   1.963  11.696  0.5115  0.4736 -0.1594
22490W        W38674   8.898  13.115   0.873 -0.2659  0.0648  0.0231
22491W        W38675   6.529   3.492   0.822  0.0337 -0.1720  0.1031
22492W        W38676   9.388  13.306   0.096 -0.1771 -0.5504 -0.2015
22493W        W38677   9.029  16.220  13.901 -0.0158 -0.0106 -0.1516
22494W        W38678   4.408   4.119  13.044 -0.0717  0.2847 -0.0222
22495W        W38679  14.790   1.301   5.738  0.1305 -0.2537 -0.1248
22496W        W38680  15.829   6.706   3.687  0.2212 -0.0613  0.1154
22497W        W38681  14.989   3.759   5.024 -0.0634 -0.1577 -0.0921
22498W        W38682  17.237  15.164   0.315 -0.1087 -0.2518 -0.3101
22499W        W38683  12.179  10.515  13.665 -0.2194  0.0386 -0.2721
22500W        W38684   9.739  16.330  13.910  0.3491 -0.0161  0.1878
22501W        W38685   2.826   2.453   3.737 -0.0731 -0.4250  0.0475
22502W        W38686   1.595  17.972  14.742  0.2202 -0.1371  0.1315
22503W        W38687   6.358   0.432   3.701 -0.1511 -0.0311  0.3081
22504W        W38688  15.963   8.886   2.319  0.2050 -0.1511 -0.0098
22505W        W38689  14.012  12.838  12.953 -0.2018 -0.2902 -0.0786
22506W        W38690   8.531  10.903   2.725  0.0002 -0.0118  0.1554
22507W        W38691  15.568   8.379   0.145 -0.1439 -0.0992 -0.0889
22508W        W38692  10.236   8.679  11.964  0.1643 -0.1287 -0.0382
22509W        W38693  15.724  12.536  11.251  0.1139 -0.0511 -0.1759
22510W        W38694  14.040   5.151  13.092 -0.0718 -0.2551  0.4286
22511W        W38695  15.728   6.213   2.295  0.1695 -0.0117  0.0163
22512W        W38696   4.934  12.805   2.127 -0.1070  0.2037 -0.0658
22513W        W38697  17.695  13.153   0.573  0.1094  0.1489 -0.0583
22514W        W38698  14.610   0.654  11.891  0.1742 -0.2806 -0.1055
22515W        W38699  11.862   8.685  14.463  0.5184  0.4281  0.2172
22516W        W38700  10.627  15.404   3.521 -0.2000  0.2058  0.2879
22517W        W38701   3.724  16.930   1.185 -0.2654 -0.1293 -0.1390
22518W        W38702  10.632   5.948  15.009 -0.2917  0.1638 -0.0673
22519W        W38703  16.570  12.480  11.738 -0.1548 -0.1701 -0.1866
22520W        W38704  10.545   9.944   3.618  0.2663 -0.1135 -0.1237
22521W        W38705  18.691  17.202   1.765 -0.0389 -0.0834 -0.0410
22522W        W38706   7.067  13.462  13.416  0.0005 -0.1619 -0.3194
22523W        W38707   0.646   2.066  11.897  0.4276 -0.0840 -0.0603
22524W        W38708   3.327   5.222   4.317 -0.3717  0.0923 -0.0581
22525W        W38709  11.687   3.536   1.665 -0.1289  0.1309 -0.3190
22526W        W38710   8.017   4.917  10.852 -0.2324  0.1188 -0.1032
22527W        W38711  17.378   0.422  12.109 -0.1985 -0.0548  0.3279
22528W        W38712   3.896  15.617   1.091 -0.0783 -0.3698 -0.0952
22529W        W38713   4.870   6.228  11.973  0.0435  0.0036  0.5108
22530W        W38714   7.713   6.159  12.672 -0.1282  0.1941 -0.1545
22531W        W38715  11.650   7.806   2.415 -0.1204  0.0780  0.2712
22532W        W38716  15.587   8.094   1.520 -0.0469  0.1527  0.2785
22533W        W38717   7.445   2.704  12.494  0.0006  0.0200 -0.1544
22534W        W38718   4.930   1.324   2.648 -0.1273  0.1786 -0.1326
22535W        W38719  18.381  14.337   2.653  0.1394 -0.1071 -0.1729
22536W        W38720  15.014   8.601   3.938 -0.1181 -0.1646  0.3908
22537W        W38721   6.093  17.297   1.561 -0.2295  0.0524 -0.1934
22538W        W38722  17.901   6.657  13.518 -0.0909  0.3891  0.0719
22539W        W38723  18.047   7.705   1.053 -0.1487 -0.3335  0.0416
22540W        W38724  14.802   4.505  14.328  0.3335 -0.0003  0.0555
22541W        W38725  16.255   7.878   0.054 -0.0263  0.2215 -0.0414
22542W        W38726   6.389  14.182  13.152 -0.0587 -0.3132  0.3620
22543W        W38727  15.006   7.397  11.562  0.0519 -0.1819  0.2634
22544W        W38728   9.875   5.952  14.209 -0.2179  0.1529  0.1720
22545W        W38729  18.686  11.889   1.097  0.1239 -0.1139 -0.0605
22546W        W38730   2.674  12.861  11.324 -0.3497 -0.1066  0.3585
22547W        W38731  14.594   1.537   1.510  0.1194 -0.2484  0.0013
22548W        W38732  11.456  13.611   5.064 -0.2950  0.2075 -0.3600
22549W        W38733  10.463   2.136   1.590 -0.1766  0.0406 -0.1788
22550W        W38734   1.211  12.021   1.995  0.1636  0.4405 -0.3177
22551W        W38735  12.851   7.826  11.993  0.0788  0.1687 -0.0329
22552W        W38736   0.636   0.353   1.652  0.3468  0.0774  0.3187
22553W        W38737  16.024   8.071   1.233  0.1469 -0.0868 -0.0097
22554W        W38738   6.822   1.860  12.497 -0.0253  0.0832  0.1458
22555W        W38739  13.990   4.491   3.666  0.1618 -0.0802 -0.0681
22556W        W38740  13.510   1.350  11.617  0.1676 -0.2800  0.0447
22557W        W38741  12.591  10.309  13.155  0.3019  0.3001 -0.1645
22558W        W38742  15.707  18.173   0.201 -0.2395 -0.1772 -0.1183
22559W        W38743   4.708  12.870   0.839  0.0751 -0.0362  0.1551
22560W        W38744   3.419   3.182  10.910 -0.2369  0.1635  0.0888
22561W        W38745   2.325   3.164  13.686  0.0672  0.2009 -0.1077
22562W        W38746  16.353   6.129   0.240 -0.3483 -0.0642 -0.0718
22563W        W38747  17.019  18.453  12.328 -0.0198 -0.2351  0.0595
22564W        W38748   6.364   7.577  14.092  0.0495  0.0413 -0.0822
22565W        W38749  10.724  16.485  10.778 -0.0780 -0.3080 -0.1956
22566W        W38750  13.534   3.810   4.810 -0.2321  0.1147  0.0383
22567W        W38751  18.067   0.298   0.069 -0.1445 -0.2107 -0.0122
22568W        W38752   5.153   0.498  14.715  0.2677  0.0466 -0.1332
22569W        W38753   8.646  11.269  12.890  0.0061  0.0334  0.0489
22570W        W38754   9.401  16.181   0.968 -0.3152 -0.0207 -0.2194
22571W        W38755   9.919   4.368   2.823  0.0533  0.1607 -0.0621
22572W        W38756   4.897  12.176  11.185  0.0134 -0.0063  0.1653
22573W        W38757   6.656  16.656   0.192 -0.0739 -0.0368  0.3207
22574W        W38758   3.999   6.097   1.433 -0.0792 -0.2331  0.1088
22575W        W38759  16.628  18.766   2.221 -0.0228 -0.1830 -0.1573
22576W        W38760   8.372   5.310  10.690 -0.3307 -0.2745  0.0891
22577W        W38761  12.910   6.440   2.658 -0.0372  0.2520 -0.2363
22578W        W38762   6.758  10.465   4.062  0.3602 -0.1307 -0.0880
22579W        W38763   2.322  10.754   2.074  0.0306 -0.0392  0.1324
22580W        W38764   5.293  10.330  10.469 -0.3555  0.0313  0.0351
22581W        W38765  14.715  18.050   2.067  0.3151  0.0424 -0.2927
22582W        W38766   4.592  14.749  11.697 -0.0507  0.1506  0.2138
22583W        W38767  10.065   2.649  13.125 -0.2900  0.0712 -0.3431
22584W        W38768  11.179   2.305   2.785 -0.0505 -0.0643 -0.0809
22585W        W38769  16.465   0.356   1.496  0.1121 -0.1755 -0.1089
22586W        W38770  15.050   0.309  11.180  0.1063  0.1381  0.4759
22587W        W38771   8.062   5.013   3.366  0.2264 -0.0405  0.0759
22588W        W38772   8.740  15.897   1.179 -0.1808  0.2449 -0.0526
22589W        W38773  15.909  12.596   5.385 -0.0258  0.1736  0.4532
22590W        W38774   7.699   6.294  13.886  0.2319 -0.1046 -0.0094
22591W        W38775   7.423  11.448  11.078 -0.1526 -0.1487 -0.3561
22592W        W38776   2.351   1.265   4.568  0.3383 -0.0814  0.1081
22593W        W38777  18.353  13.491  13.979 -0.1385 -0.2165 -0.1259
22594W        W38778   2.109   5.037  10.673  0.0515  0.0558 -0.0741
22595W        W38779  11.180  12.506  11.552 -0.2378 -0.5804  0.2640
22596W        W38780  11.591  12.286   4.793  0.1682  0.1315  0.3015
22597W        W38781  13.935   4.450   2.185  0.0107  0.0581 -0.0935
22598W        W38782   3.256  18.083   1.820 -0.0304  0.1015  0.1971
22599W        W38783   5.062   6.519   5.932 -0.2492  0.3985  0.0453
22600W        W38784  12.318   5.853   3.345 -0.1656  0.2961 -0.0643
22601W        W38785   9.765   7.423   4.146 -0.2030  0.0913  0.1190
22602W        W38786   9.837   6.899   3.327 -0.0631  0.0650  0.0530
22603W        W38787  11.567   6.829  13.676 -0.1728  0.1969 -0.1784
22604W        W38788   0.363  16.236   1.030 -0.1481  0.1143  0.0756
22605W        W38789  10.448  13.692  14.231  0.3202  0.0992  0.0761
22606W        W38790  12.848  10.393   2.891 -0.1668 -0.0185 -0.1662
22607W        W38791  13.085  18.441  15.144  0.0105  0.1475 -0.2711
22608W        W38792  14.276  15.632  11.157 -0.1543  0.2321 -0.0129
22609W        W38793  14.877  12.106   5.616  0.0449  0.2622 -0.0123
22610W        W38794   6.777  13.118   5.102  0.1482 -0.1272  0.0969
22611W        W38795  13.728   9.473   2.770 -0.0528 -0.0333  0.1324
22612W        W38796   2.297   2.001  15.073 -0.1570  0.0753  0.1564
22613W        W38797  14.437  18.148   1.597 -0.0262  0.0254  0.3224
22614W        W38798  10.952  13.600  11.963  0.3355 -0.1052 -0.2714
22615W        W38799   1.581   6.962   2.387  0.0355  0.0748 -0.1035
22616W        W38800   3.820  17.095  13.722  0.1539 -0.2768 -0.1030
22617W        W38801   8.912   8.767   4.922  0.1436 -0.1051 -0.0121
22618W        W38802   6.986   0.927  13.170  0.2810  0.0974 -0.0116
22619W        W38803   7.293  10.002  14.242  0.0976 -0.2314 -0.3475
22620W        W38804  15.071  15.930  11.271  0.0326  0.0292  0.0014
22621W        W38805   8.757   3.813  14.258  0.0430  0.4328 -0.1599
22622W        W38806  16.025  12.646  10.509 -0.1214 -0.1947  0.2501
22623W        W38807   1.371   0.323  10.972 -0.0390 -0.2101 -0.2929
22624W        W38808  13.594  10.116  10.547  0.2442  0.1736  0.0485
22625W        W38809  14.703   3.015   3.384 -0.0057 -0.1128 -0.2416
22626W        W38810   3.133  10.569  12.089 -0.2908 -0.1714 -0.0389
22627W        W38811  12.642  17.602  13.589  0.0195 -0.0821 -0.1143
22628W        W38812  14.513   2.256   4.069 -0.1866 -0.2356 -0.0398
22629W        W38813  11.074   2.364  13.491  0.1467 -0.0693  0.0546
22630W        W38814   2.399   0.559   2.577  0.0662 -0.0375  0.2473
22631W        W38815   2.484  13.356   4.751  0.0220 -0.0757  0.2334
22632W        W38816  12.111  14.499   3.934 -0.2923 -0.1395 -0.0184
22633W        W38817   6.161  14.421  11.646 -0.0552 -0.1382 -0.1304
22634W        W38818  12.842   7.833  13.741  0.2656 -0.0976 -0.0103
22635W        W38819  11.683   9.211  14.588  0.0484 -0.1090  0.2827
22636W        W38820   9.449  17.864  11.401 -0.0853  0.0588  0.0472
22637W        W38821  13.057   8.601   5.511 -0.0145  0.2462  0.1454
22638W        W38822  10.317   0.084   3.338 -0.1530 -0.1724  0.1292
22639W        W38823  10.368   5.485  13.409 -0.1602 -0.3870 -0.1660
22640W        W38824   2.134   6.650   2.298  0.2150  0.0210  0.2645
22641W        W38825   1.078   9.531  11.262 -0.0803 -0.0264  0.1035
22642W        W38826   6.845  15.382  11.264 -0.1087  0.3104 -0.0228
22643W        W38827  17.559   2.511  12.369  0.0434  0.1075 -0.0706
22644W        W38828  17.040   7.856   2.703 -0.2105 -0.1281  0.0484
22645W        W38829   9.437   9.059   3.655  0.2314  0.0756 -0.2395
22646W        W38830  18.197   8.054  14.518  0.1356  0.0503  0.1454
22647W        W38831  13.675   0.951   0.467  0.0441 -0.1242 -0.0409
22648W        W38832   2.489   2.802   4.023 -0.5263 -0.1397 -0.1814
22649W        W38833  12.569  13.318   2.194  0.0209  0.4940  0.1178
22650W        W38834  11.500  11.112   0.211 -0.1840 -0.1511  0.0899
22651W        W38835   8.469   5.936   3.959  0.0925  0.0241  0.0251
22652W        W38836  17.332  16.922  15.341 -0.1533  0.0535 -0.0232
22653W        W38837  10.696  10.743   0.310 -0.0515 -0.0577  0.0386
22654W        W38838   2.871  15.278  14.579 -0.0586 -0.0128  0.0642
22655W        W38839   8.425  13.937   2.734 -0.0845  0.0953 -0.2292
22656W        W38840  17.464  12.657  13.663 -0.0971 -0.3910 -0.1120
22657W        W38841  18.329  16.823  11.808 -0.1243 -0.4110  0.0960
22658W        W38842   3.270   7.439  10.203 -0.3146 -0.1557  0.0199
22659W        W38843   6.663  15.723   4.589 -0.2083 -0.0513  0.0532
22660W        W38844  15.421  12.274   4.196  0.0583  0.0884  0.0830
22661W        W38845   3.557   3.917   0.912 -0.1883 -0.1479  0.1456
22662W        W38846  13.977   6.073  12.814  0.2329 -0.3324  0.1010
22663W        W38847   0.740   6.104  14.283  0.1654  0.3490  0.0562
22664W        W38848   4.693   8.380   4.730 -0.0071 -0.0780  0.2057
22665W        W38849  10.981  14.961  14.938  0.3087  0.1576  0.1662
22666W        W38850   6.025   7.755  11.858  0.1044  0.1244  0.2080
22667W        W38851  13.576  12.609  10.346  0.1685  0.0605 -0.2518
22668W        W38852   5.761   8.725  13.779 -0.1210  0.0139 -0.2333
22669W        W38853  11.234  16.632   0.802 -0.1795 -0.2269  0.0463
22670W        W38854  10.988  11.451  12.043  0.1949  0.3797 -0.1193
22671W        W38855  18.496  10.478  12.394 -0.1731  0.0739  0.1123
22672W        W38856  14.256  10.094   0.795 -0.2794 -0.1128  0.2547
22673W        W38857   8.091  18.216  12.712 -0.1672 -0.0434  0.0764
22674W        W38858  13.767  15.541   1.591 -0.1520  0.0820 -0.2239
22675W        W38859  15.045   5.592   2.140  0.2363 -0.3400 -0.1457
22676W        W38860  16.825  12.067   4.975  0.1854 -0.2617 -0.1870
22677W        W38861  14.712  18.030  13.980  0.1408 -0.0845  0.0281
22678W        W38862   9.252  15.468   2.476  0.2782 -0.1226  0.1274
22679W        W38863  11.862  15.623  13.828  0.2613  0.1302 -0.2278
22680W        W38864  11.449   9.291   2.287 -0.0787  0.1054  0.0917
22681W        W38865  17.618   6.244  11.912 -0.1296  0.2191  0.2570
22682W        W38866   8.768  11.110   1.324 -0.0195 -0.0495  0.0702
22683W        W38867  13.662  12.469   3.051 -0.2460  0.2916  0.1640
22684W        W38868   6.689  14.586   4.409 -0.0913  0.1964  0.0303
22685W        W38869  10.094   8.702   1.039 -0.0065  0.0341 -0.2467
22686W        W38870   9.889  10.255   1.988  0.1714  0.1312 -0.0108
22687W        W38871   8.304  16.793  10.528 -0.0398 -0.1386  0.2550
22688W        W38872  15.555   8.467  12.670 -0.1774 -0.1587  0.0116
22689W        W38873  13.895  16.057   2.384 -0.1019  0.0039 -0.0648
22690W        W38874  15.340   7.094  11.836  0.3621  0.1815  0.0291
22691W        W38875  11.812   9.598   0.528 -0.1073  0.3876  0.1751
22692W        W38876  12.026   2.209  13.809  0.2621  0.0581 -0.3416
22693W        W38877  17.981  11.665  14.376  0.2597  0.1218  0.1133
22694W        W38878  18.339   2.743  13.000 -0.5272 -0.2003 -0.0965
22695W        W38879  11.658   0.247  12.444 -0.1431 -0.2429 -0.0605
22696W        W38880   8.539  13.398   9.270 -0.0685  0.1887  0.0934
22697W        W38881   8.447  12.734   3.205  0.0524 -0.1613  0.1623
22698W        W38882   4.385   1.624  13.085 -0.0487  0.2573 -0.2173
22699W        W38883   7.444   3.072   4.487 -0.1570  0.0402  0.0089
22700W        W38884   3.559   3.590  13.285 -0.1714  0.0050  0.1596
22701W        W38885   0.335   0.332   0.563  0.1129 -0.2536  0.0055
22702W        W38886   1.146   4.267  14.962  0.0730  0.2640 -0.0633
22703W        W38887   6.497   9.426  14.033  0.0138 -0.0239 -0.1022
22704W        W38888   8.707   5.472   5.091 -0.0628  0.1989 -0.3150
22705W        W38889  14.738   7.266  15.003 -0.0013 -0.3176 -0.0584
22706W        W38890   0.629   6.737   3.380 -0.0077 -0.0103  0.0282
22707W        W38891   0.551  18.927   1.246  0.0069 -0.3403 -0.1642
22708W        W38892   1.870   9.056   0.540  0.1928 -0.2648  0.2970
22709W        W38893   1.723  16.464   1.495  0.1555 -0.0083 -0.0954
22710W        W38894   8.023  11.006  14.772  0.1486 -0.0714 -0.0533
22711W        W38895  10.873   3.520  13.720 -0.2461 -0.5060 -0.0715
22712W        W38896   6.778  12.340   3.508 -0.1332  0.0188 -0.0075
22713W        W38897   5.484   1.433   6.002  0.1185  0.0976 -0.1676
22714W        W38898   0.596  10.334   1.453  0.1728 -0.2515 -0.1216
22715W        W38899   1.780  10.111   3.602  0.0842 -0.0091  0.0092
22716W        W38900   3.132   9.588  12.863  0.2333 -0.2751  0.1636
22717W        W38901   2.222  13.701   4.138 -0.2035 -0.2503  0.0311
22718W        W38902  10.427  12.377   1.092 -0.2397  0.1099 -0.2094
22719W        W38903   9.491  15.713   3.490  0.1026 -0.0587 -0.3160
22720W        W38904   5.770  14.534  14.072 -0.0269 -0.1022  0.3868
22721W        W38905   2.266   8.043  12.767  0.0890 -0.0414  0.1409
22722W        W38906  11.435   5.142  15.203 -0.5950  0.1500  0.3464
22723W        W38907   7.194  14.635   2.869  0.0060  0.0945  0.2964
22724W        W38908   0.139  17.058   0.353  0.1855 -0.0511 -0.3005
22725W        W38909   7.428  10.650   5.464 -0.3140 -0.0096  0.3300
22726W        W38910   4.582   6.769   5.654  0.0595  0.1302 -0.3325
22727W        W38911   5.026   7.507   5.364  0.2464  0.3115 -0.2345
22728W        W38912  13.838   6.321  15.251 -0.3190  0.1964 -0.2073
22729W        W38913   9.598   8.631   3.430  0.1110 -0.0107  0.0902
22730W        W38914  11.031  10.736  11.331 -0.2534  0.0205 -0.2147
22731W        W38915   6.078  10.910  13.306 -0.0585  0.1517  0.0887
22732W        W38916   4.426   6.576  12.051 -0.0091 -0.0810 -0.2272
22733W        W38917   9.116   0.693  10.735  0.0370 -0.0334  0.0518
22734W        W38918   0.886  17.737   1.510 -0.1004 -0.3788 -0.1917
22735W        W38919  16.700  11.705   4.640 -0.2077  0.0223  0.2997
22736W        W38920   1.208   6.932  12.276  0.1514  0.0372  0.1159
22737W        W38921   1.956   5.797   2.377 -0.0471  0.2748 -0.1799
22738W        W38922  18.039  17.629   1.288  0.3302  0.3139 -0.0888
22739W        W38923  13.196   2.695  12.269  0.0937 -0.0886 -0.1049
22740W        W38924   1.549  16.324   2.005 -0.0107 -0.1258 -0.0843
22741W        W38925   0.118   2.487  13.620 -0.1287  0.0104  0.0255
22742W        W38926   5.145   0.248   3.378  0.0736  0.0428 -0.1381
22743W        W38927   7.680  17.924   1.199 -0.1310  0.2022  0.0414
22744W        W38928  12.036   2.247  12.341  0.1105 -0.0299  0.3263
22745W        W38929   4.506  13.750  12.408  0.0113 -0.0714  0.4466
22746W        W38930   0.955  14.226  11.533  0.0970  0.2073 -0.2254
22747W        W38931  16.807   7.259  15.225 -0.1800 -0.2926 -0.4943
22748W        W38932   2.494  16.470   2.412  0.1290 -0.0474  0.0463
22749W        W38933   1.358   0.415  10.444 -0.1945 -0.1713 -0.2641
22750W        W38934   5.216   2.374  14.849 -0.2834 -0.1813  0.3805
22751W        W38935   1.426  15.408  14.035 -0.0787 -0.1383  0.0140
22752W        W38936   0.888  13.694  14.650  0.0739  0.0946 -0.3155
22753W        W38937   0.472  12.743  13.363 -0.2040 -0.0972 -0.4119
22754W        W38938  13.747  14.277   1.993 -0.1322  0.1187 -0.0684
22755W        W38939   5.381  16.419   1.327 -0.0330  0.0878 -0.2396
22756W        W38940  13.360  16.254  15.289  0.2312  0.2100 -0.1563
22757W        W38941  15.633  17.199   3.338  0.0040 -0.2091  0.3047
22758W        W38942  10.833   0.810   2.191  0.1611 -0.9392 -0.0371
22759W        W38943  16.793   3.434  12.313  0.0958 -0.1502 -0.0729
22760W        W38944  18.905   1.967   3.975  0.0450  0.1371 -0.1942
22761W        W38945   1.045   1.225   4.225 -0.1874  0.2173  0.1261
22762W        W38946  13.951   1.319   5.045  0.2775  0.0900  0.0680
22763W        W38947  15.774   8.945   2.787 -0.2334 -0.0057 -0.2499
22764W        W38948  12.963  16.280   2.309  0.4518 -0.2804 -0.0810
22765W        W38949   1.898   4.342  13.597  0.1725  0.1973  0.1335
22766W        W38950   3.423   7.038   0.398  0.0751  0.0785  0.1888
22767W        W38951   7.414   0.322   3.941  0.1812 -0.0034 -0.1315
22768W        W38952   2.992   3.814  15.022  0.0515  0.1788  0.0072
22769W        W38953   9.142   9.293   0.169 -0.2620  0.1584  0.1625
22770W        W38954  15.607   3.770  13.697  0.2087 -0.2135  0.1926
22771W        W38955  14.796  16.962  13.659 -0.1271  0.0712 -0.0290
22772W        W38956   3.814   0.895   3.602  0.0188  0.1754 -0.1957
22773W        W38957   4.925   8.098  14.467  0.2103  0.1254 -0.0366
22774W        W38958   9.951   6.531  14.580 -0.1543 -0.0784 -0.1433
22775W        W38959  13.197  13.911  13.948 -0.2658 -0.0344  0.0441
22776W        W38960   3.227  16.172  14.702 -0.0463 -0.3758 -0.3849
22777W        W38961  14.191   1.939  14.296  0.1845  0.2195  0.2272
22778W        W38962   0.558   3.427   0.931 -0.1694  0.1671 -0.0980
22779W        W38963  12.809  14.051   1.839  0.4186  0.0341 -0.0532
22780W        W38964  13.758  12.294  14.719  0.0155 -0.2286 -0.0004
22781W        W38965  16.890  14.606   2.553  0.1395  0.1293  0.1269
22782W        W38966  18.010  17.191   4.337  0.1957  0.0752 -0.0666
22783W        W38967  10.646   7.148   3.889 -0.1197 -0.0595 -0.1323
22784W        W38968   8.212  17.932  13.209  0.0289 -0.2331 -0.1941
22785W        W38969  12.122   0.655   1.045 -0.2193  0.1108  0.2796
22786W        W38970   6.710  11.643   5.628 -0.1333  0.2998  0.4940
22787W        W38971   8.837   3.737   2.411  0.0356 -0.0753  0.2681
22788W        W38972   1.011   8.765   1.155 -0.0933  0.0811 -0.1802
22789W        W38973  12.038  13.511   1.976 -0.0060  0.1824  0.2752
22790W        W38974  12.034  14.623  13.271  0.1511 -0.0379 -0.1672
22791W        W38975   0.720   1.036   4.957  0.3466 -0.0567  0.2359
22792W        W38976   6.773  10.200  14.441  0.0660 -0.1182  0.1607
22793W        W38977  12.825  11.338   3.392  0.3588  0.1051  0.2198
22794W        W38978   7.980   6.561  14.251 -0.2342  0.0886  0.0375
22795W        W38979   6.659   4.470  11.450 -0.5737  0.0445 -0.0114
22796W        W38980   0.608  18.733  11.411 -0.0861  0.0808 -0.1497
22797W        W38981   7.072   9.762   3.726 -0.4167  0.1743  0.2010
22798W        W38982   1.699  13.336   4.306  0.0697 -0.0157 -0.0916
22799W        W38983  17.726  13.850  13.036  0.1519 -0.0681 -0.0614
22800W        W38984  16.416   6.093   4.102 -0.4185 -0.1578 -0.2289
22801W        W38985  12.153  12.571  11.458 -0.0282 -0.0427  0.1912
22802W        W38986   3.189   2.296  13.384  0.0726 -0.0480 -0.0294
22803W        W38987  18.626   4.484  13.359 -0.1076  0.0216  0.2014
22804W        W38988   9.365  11.979   0.557 -0.3585  0.2277  0.0077
22805W        W38989   3.334  12.177  11.840  0.1213  0.0135  0.4402
22806W        W38990  18.014   1.471  11.086  0.2227  0.4406 -0.0224
22807W        W38991   8.165  16.170   3.005  0.0656 -0.2175  0.1836
22808W        W38992   7.289  11.658   2.478  0.0188  0.3141 -0.2005
22809W        W38993   9.071   5.960  12.692 -0.1138  0.1246  0.0239
22810W        W38994  16.547   8.949   4.170  0.1073 -0.2365  0.3949
22811W        W38995   6.634  16.707  12.505  0.1931  0.2856  0.4064
22812W        W38996   3.800  14.399  11.913 -0.3949 -0.1424  0.1714
22813W        W38997  10.758  12.945   3.388  0.3543  0.0105 -0.1090
22814W        W38998  17.828  14.741   1.002 -0.2869 -0.0514  0.0682
22815W        W38999   9.423  14.098  13.447 -0.3246  0.1292  0.1845
22816W        W39000  15.866   8.966  10.525 -0.0435 -0.3194 -0.0557
22817W        W39001  15.564   8.683  14.238 -0.1035  0.2047  0.1690
22818W        W39002   2.376   0.072   1.484  0.0538 -0.2225 -0.1112
22819W        W39003   2.144  12.390  14.006  0.1753  0.1243 -0.2081
22820W        W39004   1.411   9.322  10.986 -0.2005  0.3043  0.2298
22821W        W39005   6.409   4.012  13.187 -0.0797 -0.2431 -0.1270
22822W        W39006  16.535  18.099  11.353  0.0499  0.1961  0.0324
22823W        W39007  14.705  10.605  10.951 -0.2284 -0.0478 -0.0204
22824W        W39008  18.836  13.526  12.745 -0.2553 -0.0903 -0.0352
22825W        W39009  18.769  14.054   2.897 -0.3515 -0.3873 -0.0394
22826W        W39010  15.507   8.653   2.420 -0.2408  0.1518  0.0479
22827W        W39011  13.177   4.249   4.038  0.0412  0.0255  0.0492
22828W        W39012  16.199  13.946  14.166  0.3360 -0.1508  0.1202
22829W        W39013  13.778  15.745   0.071 -0.0724 -0.1403 -0.1538
22830W        W39014  15.843   7.874  14.855  0.1115 -0.1584 -0.0089
22831W        W39015   0.896  16.656   2.993  0.0452 -0.0391 -0.2968
22832W        W39016  11.452   3.200  14.834 -0.1795  0.1169 -0.2584
22833W        W39017   6.378  17.404   4.216 -0.2648 -0.4582  0.0479
22834W        W39018   5.108  13.791   2.170  0.0429 -0.1462  0.2051
22835W        W39019   4.889   5.163   2.367  0.0013 -0.0123 -0.3256
22836W        W39020   6.139   0.327  12.336  0.0491 -0.1167 -0.3343
22837W        W39021  12.068  12.580   0.726  0.2939  0.1526 -0.2699
22838W        W39022   4.501  11.468   1.561  0.1990 -0.0375 -0.0975
22839W        W39023  18.554  12.961  15.114 -0.0270  0.0675 -0.3341
22840W        W39024  17.445   3.679   0.859 -0.1402 -0.0332  0.0830
22841W        W39025  11.411  18.189   3.943  0.1868 -0.0796  0.1953
22842W        W39026  10.369  13.700  11.838  0.1528  0.0185 -0.1357
22843W        W39027  14.109   0.087   2.751  0.0931  0.0864  0.2422
22844W        W39028  12.169  18.220  13.830  0.0997  0.1027 -0.1989
22845W        W39029   2.787   0.691  13.961 -0.1933 -0.0939 -0.1632
22846W        W39030  17.295  11.365  13.806 -0.0803 -0.2006 -0.3657
22847W        W39031   1.578   1.755  12.553  0.2275 -0.2931  0.1471
22848W        W39032   7.186  15.604  13.644  0.1026 -0.0063  0.2361
22849W        W39033  17.188  17.206   3.873  0.0988 -0.2218 -0.0163
22850W        W39034   8.072  11.897  11.833  0.1514 -0.3896  0.1973
22851W        W39035  15.030  18.382  10.995  0.0746 -0.1804  0.0631
22852W        W39036  10.516   5.900   2.202 -0.0874  0.2081  0.1874
22853W        W39037  14.828   2.864  10.282  0.0617  0.3291 -0.0039
22854W        W39038   4.544  10.642   0.974 -0.0292 -0.0604  0.1078
22855W        W39039   6.200  16.374  12.320  0.3830  0.0061 -0.0628
22856W        W39040   4.700   7.803  11.759 -0.1672 -0.1376 -0.1550
22857W        W39041   2.561  17.509   0.314  0.0897  0.0581 -0.0705
22858W        W39042  12.498   5.027  12.215 -0.0241 -0.3419  0.3858
22859W        W39043   5.541   3.628  15.248  0.1762 -0.0807  0.1624
22860W        W39044  16.059   9.208  12.287  0.0723  0.1408  0.1042
22861W        W39045  14.140   1.530  11.738 -0.1521  0.0150 -0.2612
22862W        W39046  12.250  11.473   0.865 -0.1873 -0.1288 -0.2581
22863W        W39047  12.113  16.687  13.390  0.2543 -0.1427  0.0524
22864W        W39048   2.838   5.993  12.754  0.1438  0.1371  0.3474
22865W        W39049   9.436   1.924  11.568  0.1366 -0.0174 -0.1146
22866W        W39050   7.537  14.733   3.202  0.0671  0.0857  0.2488
22867W        W39051  14.809   9.856   5.408 -0.4367 -0.1734 -0.3887
22868W        W39052   4.084  11.486   5.051  0.1365 -0.3069 -0.1191
22869W        W39053   0.966  10.848  14.124  0.1655  0.1766  0.3392
22870W        W39054  17.102  17.188  13.382 -0.0787  0.0307 -0.3972
22871W        W39055  11.892   7.360  11.974  0.1541  0.0671 -0.0351
22872W        W39056  10.197  12.237  12.931 -0.1000 -0.1667  0.0560
22873W        W39057  11.020  14.020   3.367  0.0293 -0.0864 -0.0658
22874W        W39058  14.812   6.358   3.769 -0.0456 -0.1889 -0.0787
22875W        W39059   9.796   6.976   0.988 -0.1564 -0.1933  0.1195
22876W        W39060  12.081  15.727   2.251  0.2891 -0.1769  0.2617
22877W        W39061  10.430  10.186   3.177  0.3280  0.0049 -0.4032
22878W        W39062   1.139   0.853  15.372 -0.1057 -0.0347  0.0668
22879W        W39063  18.509   4.736   1.269 -0.2505  0.2205  0.0198
22880W        W39064   5.293  15.468  14.031  0.0648  0.3498  0.1800
22881W        W39065  18.928   2.788  11.655  0.0670 -0.0180 -0.1686
22882W        W39066   7.355  10.083  13.736  0.2834 -0.1154 -0.1491
22883W        W39067   0.967   9.754   2.707  0.2070 -0.1579 -0.1138
22884W        W39068   8.421  13.959  13.975 -0.3264  0.1422  0.1527
22885W        W39069  16.152   3.811   1.044 -0.2254 -0.0378  0.0116
22886W        W39070  14.787  15.938   1.611  0.2477 -0.3452 -0.0054
22887W        W39071   7.946   9.753   4.164 -0.2074  0.0097  0.2027
22888W        W39072   0.752  12.401  14.508 -0.0478  0.1740  0.0237
22889W        W39073   9.485   0.801  12.662 -0.0648 -0.0035  0.0434
22890W        W39074   4.521   2.883  11.622  0.2944  0.2317  0.1758
22891W        W39075  16.836   2.844   4.547  0.0624  0.1510  0.2347
22892W        W39076   0.446   1.473   2.997  0.1704  0.2338  0.0903
22893W        W39077  14.616   1.095  13.228  0.2838  0.2004 -0.0837
22894W        W39078   2.383   8.446   3.639  0.1916  0.1044  0.0453
22895W        W39079  15.435  17.169   4.768  0.1107  0.0727  0.3461
22896W        W39080  15.425  17.504   9.947 -0.1243  0.0602  0.4096
22897W        W39081   6.349   9.276   4.840 -0.1629 -0.0528 -0.0079
22898W        W39082   5.783  13.551   4.869  0.0675  0.0328 -0.1429
22899W        W39083   4.734  11.455   4.021  0.0696 -0.0921 -0.2371
22900W        W39084   6.715   1.676   5.207  0.2574 -0.0278 -0.0457
22901W        W39085  12.944  15.383   1.018  0.1447  0.0913 -0.2930
22902W        W39086   1.482  13.692  10.886 -0.2002  0.1542  0.3653
22903W        W39087  13.564   8.713   0.635  0.0839 -0.0546  0.0718
22904W        W39088   5.382  15.489   3.452 -0.5358  0.3049 -0.0743
22905W        W39089  12.909  10.552   4.786 -0.2563 -0.0066  0.0099
22906W        W39090  16.223  13.139   3.354 -0.0822 -0.1877 -0.0253
22907W        W39091   0.024  10.756   1.740  0.1202  0.1974  0.1902
22908W        W39092  16.355  16.007   1.224  0.0234 -0.0337 -0.0247
22909W        W39093  12.568   3.878  14.545 -0.3916 -0.2849 -0.1801
22910W        W39094   0.528   7.698  12.638  0.0339 -0.0046  0.1447
22911W        W39095  17.667  15.352   3.826 -0.1819 -0.1890  0.2834
22912W        W39096  18.800   0.315   1.712 -0.1719  0.0812  0.3562
22913W        W39097  15.100   5.025   0.043 -0.1041 -0.2907 -0.2627
22914W        W39098   1.146   4.989   1.507 -0.0588  0.1198 -0.1369
22915W        W39099   7.455   2.659   1.228 -0.0674  0.2949  0.0063
22916W        W39100   3.602  13.472   1.893 -0.1571  0.0584  0.0350
22917W        W39101   0.293   4.381  12.041 -0.0114  0.1702 -0.0180
22918W        W39102  11.817  17.235   2.811  0.0648  0.3111  0.0137
22919W        W39103   9.749  17.195  12.137  0.2411  0.2482 -0.1308
22920W        W39104   9.484  15.852   2.323  0.2817 -0.3915  0.2904
22921W        W39105   2.427   4.435   1.894  0.0260 -0.4620  0.2352
22922W        W39106   3.429  13.132   0.809 -0.1212  0.2792 -0.2375
22923W        W39107   5.791   1.124  13.962 -0.1791 -0.2565  0.2115
22924W        W39108   9.849   2.777   4.618 -0.0408 -0.0689  0.2312
22925W        W39109   4.170   7.882  12.098 -0.1189  0.1913  0.1237
22926W        W39110  13.276   5.661  12.296 -0.2572  0.3579  0.0395
22927W        W39111   9.866   7.709   2.594  0.0225  0.1011  0.3256
22928W        W39112  11.922   4.063  14.019 -0.3796  0.1682 -0.1698
22929W        W39113  13.723  14.086  11.618 -0.0238 -0.0649 -0.0775
22930W        W39114   0.491   1.344   3.464  0.0895  0.5424  0.0207
22931W        W39115   6.471  12.325  12.306 -0.1572  0.0479  0.1320
22932W        W39116  11.437   4.991   1.326 -0.1679 -0.2124  0.3649
22933W        W39117  17.979  15.132   2.298 -0.3314  0.1132  0.1144
22934W        W39118  11.577   1.785  13.518  0.1601 -0.0896  0.1065
22935W        W39119  15.271   9.402  13.956 -0.1213 -0.1984  0.0739
22936W        W39120  15.623   6.815  11.007  0.2234 -0.1716 -0.2559
22937W        W39121   5.314  10.889  12.208 -0.0793 -0.1636 -0.0215
22938W        W39122   9.797   9.412  15.165  0.0482  0.3534  0.0863
22939W        W39123   7.892  18.940  13.533  0.2000 -0.0725  0.1189
22940W        W39124   0.536  12.164   5.197  0.0878  0.1759 -0.0247
22941W        W39125  12.722   0.259   3.014  0.3684  0.1245  0.1335
22942W        W39126  16.547   8.059   0.885 -0.3711  0.0782 -0.0691
22943W        W39127   7.378  13.390   1.688  0.0447 -0.1266 -0.0003
22944W        W39128   2.318   6.231   1.590  0.2856 -0.1577  0.0310
22945W        W39129   5.412  17.051  12.068 -0.0620 -0.1032  0.1083
22946W        W39130   6.489  13.122   3.699  0.0143 -0.0230  0.4413
22947W        W39131  14.706   8.352   9.582 -0.0192 -0.2522 -0.0388
22948W        W39132   5.157  18.244  13.897 -0.1233  0.3424 -0.0680
22949W        W39133  10.439   1.239  13.797  0.1456 -0.4722  0.0996
22950W        W39134   4.534   5.496   4.194 -0.0098 -0.2305  0.0058
22951W        W39135  14.825  11.165   4.150 -0.2633 -0.1961 -0.2888
22952W        W39136  18.784  15.977   2.910 -0.0065 -0.1737 -0.3905
22953W        W39137  17.390  11.393  12.109  0.1539  0.1293 -0.1617
22954W        W39138  12.622   3.080   4.224  0.1978 -0.2923  0.2890
22955W        W39139  10.749   3.953  13.551 -0.2582 -0.2385 -0.1768
22956W        W39140   9.624  18.765   5.266  0.0232  0.0539 -0.1791
22957W        W39141   0.654  13.859   2.081  0.0535  0.0976 -0.0735
22958W        W39142  14.259   6.547  10.623 -0.1008 -0.0226  0.0337
22959W        W39143   2.337  12.105  13.573  0.1526  0.0692 -0.2441
22960W        W39144  11.270  17.171   1.870 -0.1729 -0.0078  0.1395
22961W        W39145   7.373   6.411  11.647 -0.0264 -0.1814 -0.0965
22962W        W39146  10.537   7.262  14.023 -0.0709  0.0487 -0.1199
22963W        W39147   9.525  11.515   0.688  0.0269 -0.2739  0.3167
22964W        W39148   9.145   7.416  13.288  0.2147 -0.4839 -0.1288
22965W        W39149   6.523  10.349  13.149  0.1927  0.2309 -0.1047
22966W        W39150  16.873  16.975  14.181 -0.1792 -0.2956 -0.0832
22967W        W39151  14.944   2.851  12.036 -0.1740  0.4005  0.2903
22968W        W39152  10.284  17.117  12.911  0.2480 -0.2632  0.0099
22969W        W39153   4.455   4.798   1.260 -0.1830  0.0426  0.4512
22970W        W39154   8.040   0.345   9.622 -0.1890  0.1599  0.2186
22971W        W39155  10.136   4.039   5.072 -0.1272 -0.1759  0.1647
22972W        W39156   5.484  12.228   5.861 -0.0258  0.3488 -0.3456
22973W        W39157  14.120  11.211  12.793  0.0948 -0.1209 -0.4122
22974W        W39158  11.984   1.210   5.595 -0.1875  0.0104 -0.3158
22975W        W39159   2.153   7.363  14.860 -0.1504  0.2840  0.0768
22976W        W39160  13.426   4.014   1.411 -0.0440 -0.2100 -0.1289
22977W        W39161  14.275   0.339   2.338 -0.2889 -0.0582 -0.0089
22978W        W39162   2.846   5.698  13.446 -0.1888 -0.1971  0.0472
22979W        W39163   9.549  12.534   2.423  0.1038  0.0608  0.2585
22980W        W39164   1.695   4.385  13.072 -0.0308 -0.0706  0.2717
22981W        W39165  10.112   9.137   0.723  0.0883 -0.0288  0.0863
22982W        W39166   5.939  14.057   4.726 -0.0024 -0.0680  0.4131
22983W        W39167  11.797  14.093   4.706 -0.1145  0.2775 -0.0560
22984W        W39168   6.754   3.877   5.403 -0.2822  0.0427 -0.2778
22985W        W39169  15.053   9.203  12.180  0.0306 -0.1135  0.0632
22986W        W39170  10.709   7.057   3.192 -0.1270  0.1037 -0.2298
22987W        W39171   9.568  15.660  11.440 -0.2449  0.0994 -0.0078
22988W        W39172  14.910   6.741   4.712  0.1353 -0.1004 -0.1160
22989W        W39173   2.878  15.704  11.791  0.3576  0.3940  0.1056
22990W        W39174   6.231  12.857   5.632  0.0684 -0.1191  0.3521
22991W        W39175   5.128   9.790   3.583  0.0372  0.0862 -0.3510
22992W        W39176   0.924   1.672   0.347  0.1270  0.2170 -0.0619
22993W        W39177   4.663  10.731   4.685  0.0222  0.0444  0.1380
22994W        W39178   0.973   7.183  12.800  0.0339  0.1615  0.1382
22995W        W39179  10.582   7.337   5.680 -0.0553 -0.1809 -0.0957
22996W        W39180   1.627  15.080  15.311 -0.0085 -0.0617 -0.0027
22997W        W39181   2.785   2.978   4.356  0.0228  0.1183  0.0817
22998W        W39182   4.873   2.246  12.784 -0.1723 -0.1168  0.3939
22999W        W39183  12.193   9.464  14.202 -0.2912  0.0829 -0.3088
23000W        W39184  17.448  14.985  11.064  0.2098 -0.1228  0.3607
23001W        W39185   6.312   8.481   1.324  0.0350 -0.1346 -0.3222
23002W        W39186   3.921  15.894   0.642  0.0766  0.4080 -0.2093
23003W        W39187  18.966  18.465  11.177 -0.0707  0.2162  0.0405
23004W        W39188  17.542  17.481   3.516 -0.2227  0.1180 -0.0057
23005W        W39189   4.068  18.413   4.848  0.4521 -0.1088  0.0455
23006W        W39190   0.792   3.888  14.724  0.1897 -0.0242 -0.2567
23007W        W39191   5.112   0.215   2.153 -0.2531  0.0092  0.0472
23008W        W39192   5.557  10.116   2.378  0.2262 -0.2244  0.1274
23009W        W39193   5.637  10.423   1.976 -0.2416 -0.2015 -0.3671
23010W        W39194  11.604   5.618  13.938  0.0645 -0.0541 -0.3549
23011W        W39195  14.064   2.497  12.685 -0.1203  0.1022  0.2514
23012W        W39196   8.884   0.945   5.248 -0.0783 -0.3537  0.0571
23013W        W39197   1.294   7.548  10.681 -0.0071 -0.0828 -0.1050
23014W        W39198  14.990   8.859   2.405  0.1843  0.0692 -0.0929
23015W        W39199  10.883   7.694  10.894 -0.2600 -0.0050  0.2518
23016W        W39200  14.673   1.418  12.253  0.1984 -0.2176  0.0094
23017W        W39201   7.476   1.937  14.190  0.1011  0.0760 -0.1101
23018W        W39202  11.460   2.151  15.352  0.1962 -0.1478  0.1047
23019W        W39203   2.490  11.255  11.452  0.0057  0.3556 -0.1160
23020W        W39204   3.713  16.714  14.035  0.1356  0.3622  0.1324
23021W        W39205  12.391  14.627  10.162  0.0666 -0.2112 -0.1654
23022W        W39206   6.047   5.487  14.056  0.0854  0.1888  0.2038
23023W        W39207  16.348   1.088   4.323  0.1280 -0.1894  0.1860
23024W        W39208  14.014   9.327   0.984  0.3333 -0.2990  0.1285
23025W        W39209  18.158  13.118  14.788 -0.2188 -0.2605  0.2621
23026W        W39210  13.200   1.124   3.734 -0.2923  0.0276 -0.1685
23027W        W39211   0.212   0.679  14.921  0.2186 -0.1545  0.2114
23028W        W39212  12.207   3.869  14.871 -0.2674  0.0803 -0.2312
23029W        W39213  11.875  16.118   5.257 -0.2273 -0.2421  0.2464
23030W        W39214   9.011  13.994  15.095  0.0577 -0.1628  0.1458
23031W        W39215  11.811  10.779  13.326 -0.1145  0.0558  0.2340
23032W        W39216  10.016   3.073  11.394 -0.0073  0.4247  0.1434
23033W        W39217  18.761  18.669  12.614 -0.2576  0.1954 -0.3262
23034W        W39218  10.490   9.079  12.879  0.0374 -0.2513 -0.0687
23035W        W39219   1.328   4.190  12.749  0.0092  0.0822 -0.0104
23036W        W39220  15.768   5.665  14.225  0.1531 -0.0280 -0.2552
23037W        W39221  17.169  15.028  14.210  0.1991  0.0605  0.0214
23038W        W39222  10.810   3.061  13.321 -0.1367 -0.3952  0.1320
23039W        W39223  12.501   7.181   4.044  0.0341  0.1298 -0.0163
23040W        W39224   4.857  14.355   2.805  0.0076  0.0790 -0.0942
23041W        W39225   9.696   4.471  12.031 -0.2976  0.0630  0.1989
23042W        W39226   4.139  17.325  15.042  0.2162 -0.1897 -0.2901
23043W        W39227  15.300   9.871  11.095 -0.2165  0.4214  0.1766
23044W        W39228  17.751   2.907   2.659 -0.1808  0.0399 -0.1457
23045W        W39229  16.719   8.516  10.709  0.1229 -0.1407 -0.1729
23046W        W39230   3.191   4.400   1.559 -0.0515 -0.0926 -0.2349
23047W        W39231   7.100   8.307  12.401  0.1804  0.0020  0.0187
23048W        W39232  14.167  15.858  12.523 -0.0740  0.0238 -0.2648
23049W        W39233   2.849  12.899   3.732 -0.1180 -0.4705 -0.1300
23050W        W39234  10.401  14.151  13.975  0.2484 -0.2418  0.4363
23051W        W39235  10.766   5.781   0.786  0.0714  0.2410 -0.1477
23052W        W39236  15.349  11.847   3.580  0.1030 -0.2022 -0.1910
23053W        W39237  15.105   9.844   2.421 -0.3267  0.0671 -0.1142
23054W        W39238   8.032  17.509   4.052 -0.0818 -0.0912 -0.2828
23055W        W39239  12.202  16.994   1.781 -0.0151  0.0526  0.2978
23056W        W39240  12.480  16.537  12.151  0.0768  0.1014 -0.2455
23057W        W39241   9.589   5.589   4.224  0.0273  0.1289  0.0725
23058W        W39242  12.832   8.051   1.979 -0.0113 -0.2892  0.3517
23059W        W39243  12.649  12.806   2.012 -0.1770  0.2911 -0.0261
23060W        W39244  14.619  18.680  15.384  0.0543 -0.3744  0.0717
23061W        W39245  15.047  11.443  15.245  0.0340  0.2355 -0.0490
23062W        W39246   5.494  17.764  13.631  0.4786  0.0039 -0.0640
23063W        W39247   6.798   3.808  14.183  0.2166 -0.1461  0.1066
23064W        W39248  17.666  10.426  13.647  0.1207  0.0104 -0.2519
23065W        W39249   5.878   1.761   0.043 -0.0417 -0.2581 -0.2118
23066W        W39250   9.880   7.075  12.739  0.0762  0.3294 -0.0995
23067W        W39251  12.110  15.508   3.021  0.2116 -0.2400 -0.1847
23068W        W39252   1.809  17.820   1.231 -0.0996  0.0303 -0.0781
23069W        W39253   6.041   5.018   5.612 -0.1773  0.1203 -0.0027
23070W        W39254   7.784   0.449  13.240 -0.0607 -0.1852 -0.0720
23071W        W39255   8.135   5.073   2.357  0.0873 -0.1633  0.1345
23072W        W39256   1.357   4.995  13.300 -0.1452 -0.3187 -0.3339
23073W        W39257   7.540  11.862  10.813 -0.2234 -0.1151 -0.0318
23074W        W39258  10.591   2.149  12.975  0.0335  0.3011  0.1991
23075W        W39259   6.023   2.917   1.305  0.0669  0.0355 -0.3013
23076W        W39260   5.369   9.602  13.579  0.0917  0.1191  0.0454
23077W        W39261  14.199  10.620   0.119 -0.4640  0.2559  0.0297
23078W        W39262  12.587  15.002  12.631 -0.0044 -0.1918 -0.2771
23079W        W39263  16.780   6.035   3.060  0.1821 -0.2468  0.1384
23080W        W39264  15.710  14.057   0.960 -0.1316 -0.0232 -0.1704
23081W        W39265  11.125   3.922   4.827 -0.1294  0.1391 -0.4612
23082W        W39266  14.912  16.591  12.214  0.0223 -0.1477 -0.2582
23083W        W39267   6.802   6.419  11.832  0.0360  0.1933  0.5572
23084W        W39268   2.724   8.116  13.965  0.2089 -0.0177 -0.1770
23085W        W39269   6.220   4.451   2.863  0.2620  0.0497  0.1324
23086W        W39270  14.051   0.465   4.225 -0.1019  0.1350  0.0222
23087W        W39271   3.220  15.263  13.296 -0.2338  0.0884  0.0908
23088W        W39272  11.483  13.863  12.645 -0.1955 -0.3192  0.2926
23089W        W39273   8.802   2.020   1.631 -0.1865 -0.0450 -0.2668
23090W        W39274   3.424  10.289   1.683 -0.1987 -0.0195  0.1149
23091W        W39275  12.563   9.782  12.148 -0.0256  0.1656  0.0006
23092W        W39276   7.787  10.685   4.459 -0.2330  0.3308  0.0105
23093W        W39277   0.540  15.622   2.440  0.0102 -0.1956  0.2710
23094W        W39278  16.414   9.115   1.215  0.1251 -0.1007  0.0834
23095W        W39279   8.198   3.297   1.439  0.1083  0.1386  0.1044
23096W        W39280  16.463   5.737  11.256  0.0765  0.3263 -0.0880
23097W        W39281   3.820  11.945   6.149 -0.1345  0.1711  0.0964
23098W        W39282   5.197  11.878  11.973  0.0190  0.0032 -0.1024
23099W        W39283  12.899  13.740  11.550  0.2457  0.1490 -0.0983
23100W        W39284   4.336  16.393  12.608  0.3861  0.0105  0.2633
23101W        W39285  10.883  10.175   3.378  0.1945 -0.0543  0.0300
23102W        W39286  13.224   3.258  13.984 -0.0545 -0.3572  0.2347
23103W        W39287  16.068   1.053  12.397 -0.4554  0.1794  0.0455
23104W        W39288   7.025  14.611  14.507 -0.0715  0.2472 -0.0083
23105W        W39289   8.905   4.875  13.351  0.1180 -0.2223 -0.0488
23106W        W39290   4.605   3.245  14.215 -0.1402  0.1598 -0.0680
23107W        W39291  15.413   2.723  11.733  0.0532  0.0668  0.0506
23108W        W39292   6.702  11.081  10.444  0.1295  0.0965  0.1292
23109W        W39293   2.934  15.040   0.119  0.0405  0.1029  0.4200
23110W        W39294  14.972   5.416   4.862 -0.0668 -0.0541  0.1956
23111W        W39295   2.966  11.905  13.057  0.0708 -0.1555 -0.0109
23112W        W39296   6.540  13.345  12.704 -0.2504  0.0728 -0.2457
23113W        W39297  15.376   4.007   5.347  0.2542 -0.2055 -0.3569
23114W        W39298   9.876   8.202  12.845 -0.1988  0.0884  0.2441
23115W        W39299   0.330  11.712  15.308  0.0600 -0.3814 -0.0151
23116W        W39300  10.955   6.391  11.821  0.1844  0.1380  0.1162
23117W        W39301  10.885  11.537   5.159  0.1220 -0.0208  0.2268
23118W        W39302   4.241   3.581   0.265 -0.3695 -0.0197 -0.0047
23119W        W39303   7.333  15.275   4.286 -0.1985 -0.2632 -0.0643
23120W        W39304  16.838   8.609  14.066  0.0554 -0.0914 -0.0293
23121W        W39305  17.084   7.896  12.853  0.0134 -0.1232 -0.1414
23122W        W39306   2.151  17.528  13.270 -0.1534  0.0723 -0.0265
23123W        W39307  15.974   8.406   2.565 -0.0139 -0.1350 -0.3279
23124W        W39308   1.612  17.841   4.161  0.0456 -0.4239 -0.0465
23125W        W39309  12.243   0.843  13.501  0.0558 -0.4105 -0.1395
23126W        W39310   8.060   0.642   2.549  0.0298 -0.0304  0.0055
23127W        W39311  18.753  15.283  12.530 -0.0840  0.0305 -0.2934
23128W        W39312   0.743   2.251  10.528  0.1987 -0.0918  0.2254
23129W        W39313  11.571  15.450   2.126  0.0780  0.1792 -0.1100
23130W        W39314  15.691  11.991  12.218  0.2270  0.4102  0.2199
23131W        W39315   3.527  18.005  14.118  0.0054 -0.2122 -0.0546
23132W        W39316  15.366  15.939  15.181 -0.1867 -0.3192 -0.0609
23133W        W39317   3.237   9.076   4.420  0.2210  0.4685 -0.0210
23134W        W39318   0.163   1.606   4.447  0.1973  0.1940  0.1146
23135W        W39319   2.744   7.472   0.767 -0.1589  0.0147 -0.3724
23136W        W39320  14.764  11.946   2.782 -0.0226 -0.0433  0.1947
23137W        W39321  10.914   8.282  11.775 -0.1987 -0.4951 -0.2814
23138W        W39322  13.603  18.258  13.672  0.0083  0.1694  0.2623
23139W        W39323   2.201   9.315   1.308  0.0563  0.2757  0.0163
23140W        W39324  15.383   8.334   3.335 -0.1081  0.4273  0.0829
23141W        W39325  12.269   3.052   0.165 -0.3643 -0.2865 -0.0262
23142W        W39326   5.006   7.050  12.607  0.0533  0.1685 -0.2784
23143W        W39327  10.987   0.747  11.392 -0.2919 -0.0338 -0.1156
23144W        W39328   8.547  10.793   1.818  0.0625 -0.1293 -0.0396
23145W        W39329   7.410   3.166  13.141  0.0548  0.0436 -0.0882
23146W        W39330  15.630   8.902   4.580 -0.0362 -0.0316 -0.1260
23147W        W39331  12.364   0.019   1.066 -0.0413  0.1277  0.4497
23148W        W39332  14.547  15.500   4.875  0.0848  0.0541  0.1314
23149W        W39333  15.755  11.402   1.921  0.0537 -0.1989 -0.0027
23150W        W39334   6.264  10.402  14.665 -0.1929 -0.2791 -0.0490
23151W        W39335  13.120   4.689   4.262  0.1177  0.0849 -0.0040
23152W        W39336  10.371  10.211  14.560  0.0819 -0.1619 -0.0958
23153W        W39337   0.364   1.657  12.046  0.0455  0.2603  0.2535
23154W        W39338   7.923  17.002  15.230  0.1248  0.0348  0.0769
23155W        W39339   9.615   3.047   1.625  0.0071 -0.0923  0.1030
23156W        W39340   1.990   0.696  13.001 -0.0201  0.0806  0.1821
23157W        W39341   5.099   5.821  15.254 -0.0397 -0.0610  0.2407
23158W        W39342  11.773   5.584  11.849 -0.0344  0.0479  0.0733
23159W        W39343   9.234   7.424   4.496 -0.1881 -0.1707  0.1340
23160W        W39344   5.386  15.325   2.939 -0.2146  0.0870  0.1950
23161W        W39345   0.290   4.264   1.396  0.0991 -0.2573 -0.0966
23162W        W39346   8.296  13.741  12.215  0.1406 -0.5873  0.2740
23163W        W39347   4.263   1.924   3.550  0.1218  0.0363 -0.2613
23164W        W39348   0.237  18.764   0.735 -0.0780  0.0956 -0.1346
23165W        W39349   5.159  17.636  10.954  0.1840  0.1783 -0.1513
23166W        W39350   7.203   4.449  13.571 -0.2305 -0.0601 -0.1199
23167W        W39351  12.533   6.064   2.939 -0.0039  0.0050 -0.1616
23168W        W39352   6.506   0.509  11.395  0.0765  0.1910 -0.3507
23169W        W39353   9.854  16.935  10.508  0.1359 -0.2402 -0.0406
23170W        W39354  17.019  16.958   5.310 -0.2310 -0.0054  0.0525
23171W        W39355   0.948   2.244  11.526  0.2593 -0.1113 -0.1668
23172W        W39356  16.260   3.812   3.923 -0.1485 -0.1727  0.0753
23173W        W39357  17.671   3.891   3.158 -0.2976 -0.1031 -0.0657
23174W        W39358  13.777  10.024  14.359 -0.1228  0.1125  0.1195
23175W        W39359   8.816   8.681  11.917 -0.0947  0.2698  0.1607
23176W        W39360   8.877   8.413  10.592  0.2030  0.0937 -0.1025
23177W        W39361  14.761   7.267   2.408  0.1409  0.0102 -0.0520
23178W        W39362  14.678   5.688  12.781 -0.1976  0.0193 -0.2883
23179W        W39363  10.519  18.764   5.503  0.0562  0.1942  0.0766
23180W        W39364   2.229  18.716  12.389 -0.2166  0.0257  0.0960
23181W        W39365  11.329  11.418  14.913  0.1976  0.1657  0.0433
23182W        W39366  14.499   8.533  13.130 -0.0867  0.2123  0.1592
23183W        W39367   8.560   4.908   0.649 -0.1940  0.0062  0.0683
23184W        W39368   3.199  15.085  15.068  0.2166  0.0044 -0.0498
23185W        W39369  14.284  16.497   0.252 -0.1593 -0.0417 -0.2409
23186W        W39370   3.482  11.976   5.741  0.1594 -0.1469 -0.1222
23187W        W39371  13.014  18.953  12.680  0.1535 -0.2158  0.0474
23188W        W39372  11.492   6.948   0.277 -0.1257  0.0848 -0.2179
23189W        W39373  13.723  17.748   2.746 -0.0431 -0.2006  0.1416
23190W        W39374  12.854  13.653  12.662 -0.1660 -0.2587  0.0478
23191W        W39375   9.548  12.257  10.927  0.1224 -0.0468 -0.0418
23192W        W39376   7.033   1.880   2.583  0.0850  0.1354 -0.2857
23193W        W39377   8.508   0.107  11.168 -0.1461  0.3890  0.0529
23194W        W39378   9.388   5.913   1.159  0.2004 -0.2548  0.1212
23195W        W39379  15.747  17.524  10.775 -0.0344 -0.1760  0.0342
23196W        W39380  16.088  16.513   1.343  0.2653  0.1467 -0.1839
23197W        W39381  17.409  10.196   1.542  0.1241 -0.2647 -0.1075
23198W        W39382  10.856   7.684  12.225  0.0601 -0.1106  0.1832
23199W        W39383   7.600   0.862  13.481  0.0727  0.0273 -0.1473
23200W        W39384  15.634  10.729   2.717  0.2009  0.0267  0.0586
23201W        W39385   7.342   3.582   4.636  0.2867  0.2024  0.3060
23202W        W39386   1.852  13.660  14.279 -0.0171 -0.2658  0.1734
23203W        W39387  13.644  11.332  10.263  0.0918 -0.0832  0.0014
23204W        W39388   6.015  12.224   0.904  0.0043 -0.2365 -0.4388
23205W        W39389   0.268  18.426   4.731  0.0682 -0.0093 -0.1553
23206W        W39390  17.980  15.210   2.833 -0.1729  0.0887  0.2076
23207W        W39391   1.624   0.439   2.645  0.0765  0.1128 -0.4251
23208W        W39392  10.377  13.719   0.560  0.1381 -0.2024 -0.1865
23209W        W39393  17.398  14.491   3.105  0.3422 -0.0933 -0.0541
23210W        W39394   1.663  11.536   5.692 -0.3186 -0.2791  0.0363
23211W        W39395  17.060  11.774   4.169  0.1817  0.0711 -0.0297
23212W        W39396  16.269  15.744   0.683  0.1441 -0.1706 -0.0819
23213W        W39397  18.621   6.684   5.250  0.2114 -0.2604 -0.1842
23214W        W39398   7.334  13.950  13.347  0.3184  0.2569 -0.1846
23215W        W39399   2.546  10.594   1.131 -0.0780  0.2349 -0.0826
23216W        W39400  10.379  12.220   3.753  0.0654  0.0785  0.1231
23217W        W39401   2.750   4.605   4.962 -0.1697 -0.0691 -0.1095
23218W        W39402   5.643  15.201  11.761  0.0703 -0.2021 -0.0497
23219W        W39403  10.353   7.636   5.276  0.2165 -0.0679 -0.2355
23220W        W39404   8.948  10.445   3.255 -0.0835  0.4478 -0.0803
23221W        W39405   4.375   3.229  15.288  0.2807  0.2527  0.0768
23222W        W39406  18.365   8.798   1.750 -0.0955 -0.1105 -0.2864
23223W        W39407   5.703   3.034  12.394  0.2631 -0.1269 -0.3306
23224W        W39408   4.459   4.646  15.193 -0.0194  0.1254 -0.1016
23225W        W39409   5.868  14.635  15.150  0.5262 -0.2866  0.1048
23226W        W39410  18.510   2.945  15.038 -0.0303  0.0757  0.0012
23227W        W39411  10.787   4.911   1.281 -0.2627 -0.0604 -0.1554
23228W        W39412  18.349   7.900  12.220 -0.1678  0.0147 -0.3870
23229W        W39413  11.209   2.381  14.051 -0.1050 -0.2034  0.4430
23230W        W39414   9.090   6.269   4.916  0.0814 -0.0468  0.1547
23231W        W39415   4.753   3.003  10.126  0.2438 -0.0352  0.0683
23232W        W39416   4.435  18.587   9.879 -0.0059 -0.2642 -0.3602
23233W        W39417  16.792  15.629  14.236 -0.1161 -0.1632 -0.0331
23234W        W39418   3.315  13.379   5.823  0.1893  0.2132  0.3139
23235W        W39419  15.281   3.142  11.928  0.0095 -0.2008 -0.0930
23236W        W39420  15.186  10.602  11.924  0.2987 -0.2299  0.1127
23237W        W39421  14.620  18.447   2.484  0.0981  0.1150  0.0342
23238W        W39422   3.284   4.780   4.074 -0.0239 -0.0386  0.0580
23239W        W39423  12.812   4.968  15.161 -0.0655  0.2745 -0.0884
23240W        W39424  16.592   0.466  13.311  0.2939 -0.2665  0.4383
23241W        W39425   2.585  15.224   4.276 -0.0391  0.2966 -0.2245
23242W        W39426   5.928  13.907  13.439 -0.0603 -0.0957  0.1912
23243W        W39427  14.016   9.803   5.021 -0.1884 -0.0526 -0.0310
23244W        W39428  15.417  12.009  12.613 -0.1053 -0.0340 -0.2348
23245W        W39429   1.030  11.948   0.245 -0.2454  0.2069 -0.4111
23246W        W39430   2.622   5.460  14.309 -0.2025  0.2194  0.0144
23247W        W39431   0.653   4.287  13.071  0.2386  0.2202  0.0046
23248W        W39432  17.496  11.549  15.087  0.0598 -0.3089  0.0441
23249W        W39433  13.881  17.364   0.276  0.0555 -0.2092 -0.0567
23250W        W39434  15.409  16.540   2.678 -0.0530 -0.0475  0.0439
23251W        W39435   3.163   7.962   2.080 -0.0323 -0.0027  0.0448
23252W        W39436  18.122  13.486   2.682 -0.0847 -0.1617  0.0446
23253W        W39437  14.769   6.755   2.600  0.1590  0.1138 -0.0674
23254W        W39438   8.536   4.085   3.893 -0.4325 -0.0022  0.0864
23255W        W39439  12.732   3.082   0.911 -0.0305  0.0067  0.0744
23256W        W39440  13.423   6.092   4.218  0.2508  0.0564 -0.1534
23257W        W39441  16.962   3.565  10.966 -0.1386  0.1015 -0.0391
23258W        W39442  12.843  15.925  15.204 -0.1849  0.3810  0.0960
23259W        W39443   5.543   7.304   5.268 -0.2042 -0.1300 -0.0733
23260W        W39444   7.121  16.389  11.246  0.1024  0.0815  0.1879
23261W        W39445  18.935   3.548  11.678 -0.4952 -0.2626 -0.1638
23262W        W39446   0.205  14.212  10.749  0.3064  0.0021  0.1306
23263W        W39447  16.132  15.661  13.370  0.0009 -0.4735  0.1221
23264W        W39448   2.238  14.204   1.626  0.0032  0.2086 -0.0035
23265W        W39449   5.019   3.673  15.227  0.2996 -0.3311  0.1209
23266W        W39450   0.947  16.736   3.747 -0.0856  0.0814 -0.1643
23267W        W39451  12.738   6.273   4.404 -0.3905  0.3286  0.2328
23268W        W39452  13.796  11.936  11.793 -0.0568 -0.0076 -0.0881
23269W        W39453   0.370  13.186   4.866  0.1285 -0.1583 -0.1496
23270W        W39454  18.023   3.923  14.884 -0.0800  0.2720  0.2760
23271W        W39455  12.049   7.131  13.021  0.1571  0.0986  0.0590
23272W        W39456  12.433   1.275   3.785 -0.1097  0.2661  0.3628
23273W        W39457  17.405  15.077  11.551 -0.1341 -0.0836  0.1530
23274W        W39458  11.897  16.761   2.502 -0.3512  0.3157 -0.4089
23275W        W39459   3.357  15.679   1.363  0.1103  0.0447  0.1769
23276W        W39460  17.722   7.253   3.805 -0.5323 -0.0445  0.2440
23277W        W39461   5.128   0.603   2.469  0.0242 -0.0681  0.2399
23278W        W39462   3.548  16.060  12.443 -0.0937  0.2203 -0.1256
23279W        W39463  12.993   5.134   3.084 -0.0372 -0.2573  0.3008
23280W        W39464   6.683  12.128   4.455 -0.2182  0.3338 -0.1783
23281W        W39465  10.232   9.731   2.824 -0.0584  0.2647 -0.2235
23282W        W39466   8.159   1.219  10.868  0.2005  0.1040 -0.1396
23283W        W39467   9.053  18.711   1.628 -0.1330 -0.2954  0.3105
23284W        W39468   5.524   8.599   3.408 -0.1923  0.0827  0.0648
23285W        W39469  13.849   0.558  11.717 -0.1513  0.2659  0.1085
23286W        W39470   1.942   8.624   3.388 -0.3698 -0.1643  0.1149
23287W        W39471  14.757   6.505   5.423 -0.0495 -0.1941 -0.1129
23288W        W39472   9.990   7.658   3.503 -0.2132 -0.0196 -0.0816
23289W        W39473   4.798   7.936   4.417 -0.2882 -0.3272  0.6341
23290W        W39474  16.154  14.099   4.996  0.1120  0.0129  0.1064
23291W        W39475   6.982  11.416   5.137 -0.0653 -0.0342 -0.0542
23292W        W39476   3.379  13.637   1.182  0.3337  0.0701 -0.1630
23293W        W39477   2.869  10.311   3.300  0.0856 -0.3001 -0.0750
23294W        W39478   3.269  12.342   2.836  0.0603 -0.0961  0.1374
23295W        W39479   2.502   3.861   5.431  0.1406  0.1934  0.1785
23296W        W39480   9.552   4.394   4.092  0.2926 -0.2319  0.1408
23297W        W39481   6.076  10.126   2.039 -0.0814 -0.1682 -0.1514
23298W        W39482  12.420  18.768   2.916  0.0750 -0.2225 -0.3107
23299W        W39483   0.048  13.399  13.592 -0.0308  0.2994  0.0611
23300W        W39484  11.452   0.985  12.337  0.2488 -0.1497 -0.0948
23301W        W39485  11.714  12.127  14.358  0.1755 -0.1960 -0.1226
23302W        W39486   0.614   4.211   1.908 -0.1839 -0.2066 -0.1230
23303W        W39487   2.215  14.318   1.032  0.1351 -0.0160  0.0189
23304W        W39488  18.675  18.977  13.100 -0.4289  0.1992 -0.1065
23305W        W39489   0.257   1.252   0.647  0.3270 -0.2179  0.3889
23306W        W39490  15.410   8.806   0.379 -0.3261  0.2466  0.0680
23307W        W39491  17.086   8.349  10.953 -0.2245  0.0109 -0.0881
23308W        W39492   3.677  10.760   4.106  0.0802 -0.1730 -0.0455
23309W        W39493  16.536   1.574  13.806 -0.0885 -0.2242 -0.0680
23310W        W39494  18.478   6.056   1.556  0.0311 -0.0617  0.0895
23311W        W39495  18.140  10.315  14.582 -0.3544 -0.0050 -0.1701
23312W        W39496  13.409  12.900  11.438  0.2937  0.0907  0.5696
23313W        W39497  16.862  13.691  14.478  0.1041  0.1220 -0.4306
23314W        W39498  10.242   9.586  14.396 -0.1685 -0.0363 -0.1724
23315W        W39499  16.214  11.999  14.276 -0.0855 -0.0717 -0.4269
23316W        W39500  16.716  13.859  13.989 -0.3625 -0.1258 -0.1568
23317W        W39501   5.486   8.355   1.852  0.1668  0.0521  0.1629
23318W        W39502   8.077   0.719   5.048  0.2620 -0.1775 -0.0339
23319W        W39503   6.717  11.614   2.218 -0.0129  0.0257 -0.2986
23320W        W39504   6.445   6.093  12.796  0.2709 -0.0920  0.0138
23321W        W39505  10.864   7.836  12.718  0.1371  0.1936 -0.0390
23322W        W39506  12.061   3.433  10.388  0.0736  0.0474 -0.1385
23323W        W39507   4.806  13.091   1.299  0.1857  0.1512 -0.1771
23324W        W39508   3.156  15.035   4.866 -0.1135  0.0850 -0.2405
23325W        W39509   1.423   6.029  13.385 -0.1148 -0.0506  0.0756
23326W        W39510  15.553   4.438   1.041 -0.0508 -0.1273  0.0501
23327W        W39511   6.894   3.221   0.720 -0.1603  0.0164 -0.0982
23328W        W39512   4.265   9.296   0.674  0.1090  0.3881  0.0552
23329W        W39513   8.969   6.066   1.858 -0.1712 -0.2114 -0.1417
23330W        W39514  18.776  17.880  13.335 -0.1695 -0.0578  0.0159
23331W        W39515  18.428  13.066   4.622  0.0105 -0.1122 -0.1126
23332W        W39516   4.539   9.097   1.088  0.0321  0.2510 -0.1896
23333W        W39517  12.646  10.742   2.624  0.0588  0.0650  0.1171
23334W        W39518   8.996   6.739  12.108 -0.1409 -0.2817  0.3101
23335W        W39519  12.372   9.578   1.712 -0.4566  0.2319  0.1272
23336W        W39520  16.625   7.522  12.347 -0.1661 -0.3157  0.0777
23337W        W39521   6.687  10.439  11.174  0.0721  0.0889  0.3530
23338W        W39522  15.788   6.712  12.537  0.0408  0.2618 -0.1319
23339W        W39523  11.001  17.353  12.431 -0.0362  0.0186 -0.1550
23340W        W39524  11.451  12.069  11.027 -0.0522 -0.1569  0.1286
23341W        W39525   1.660  13.664   1.196  0.1188  0.3629  0.1025
23342W        W39526   7.958  15.027   3.208  0.2447  0.3180 -0.3520
23343W        W39527   2.474  11.569  15.156 -0.2412 -0.0288  0.0890
23344W        W39528   2.028  15.855  11.054 -0.0001  0.2294  0.1003
23345W        W39529   4.810   7.055   5.308 -0.0502 -0.3491  0.1216
23346W        W39530   3.459   3.725  12.349  0.1191 -0.1531 -0.0079
23347W        W39531   3.535  17.682   0.329 -0.0377  0.0074  0.2471
23348W        W39532  13.640  10.461   3.691  0.0244 -0.0014 -0.0280
23349W        W39533   6.521   1.483   4.729  0.2067  0.1882  0.0108
23350W        W39534   2.343   0.717  14.472 -0.0601 -0.0432 -0.0154
23351W        W39535   8.253   1.050  14.507  0.0980 -0.1914 -0.0669
23352W        W39536  11.909   9.059   2.143  0.0050 -0.1244  0.1503
23353W        W39537  12.768  11.402  15.268 -0.1596  0.0831  0.0265
23354W        W39538  15.539   4.326   3.592 -0.1710 -0.0199 -0.3502
23355W        W39539   4.077   4.709   3.719 -0.0620 -0.0949 -0.4516
23356W        W39540   2.950  10.965  14.729  0.2098  0.3729  0.1217
23357W        W39541   6.766  15.841  13.402 -0.0119 -0.2556 -0.1304
23358W        W39542   4.820  11.364   2.415  0.3258  0.2186 -0.0619
23359W        W39543  14.019   2.300   4.022  0.1843 -0.2324  0.3996
23360W        W39544  18.922  13.411   5.131  0.1711 -0.0127 -0.0653
23361W        W39545   7.688   3.528   4.286 -0.0954  0.0647 -0.0151
23362W        W39546   3.653   0.477   3.268 -0.0479  0.3118  0.0383
23363W        W39547   3.499   6.758   5.865 -0.0463 -0.3333 -0.2117
23364W        W39548   0.682   5.904   2.934  0.0364 -0.1567 -0.2223
23365W        W39549  11.453  15.010  14.004  0.5372  0.3245  0.0477
23366W        W39550  12.916  14.427  11.235  0.0205 -0.1775  0.0766
23367W        W39551  15.330  12.781   3.512  0.2058 -0.2334  0.0793
23368W        W39552   4.909   4.050   2.268  0.1565  0.1514  0.2502
23369W        W39553   7.682   4.702   3.187  0.2268  0.1015 -0.3359
23370W        W39554  12.352   2.842  11.688 -0.2435 -0.2138  0.3248
23371W        W39555  15.231   3.890   0.432 -0.4732  0.0396 -0.2176
23372W        W39556  11.065   0.907   5.503  0.0698  0.0152  0.1309
23373W        W39557   9.640   6.908   1.726  0.2207  0.0530  0.0376
23374W        W39558   6.587   1.496  12.292  0.1697  0.1637  0.0234
23375W        W39559   1.371  13.390   5.415 -0.3623  0.2661 -0.0109
23376W        W39560   2.864   8.759  11.532 -0.3024 -0.0057  0.0188
23377W        W39561   8.730   8.668  13.206  0.0240 -0.1249 -0.2872
23378W        W39562   3.408  14.476   0.933 -0.1808 -0.1084  0.2518
23379W        W39563  14.766  11.249  12.265 -0.2612  0.2661 -0.1456
23380W        W39564  14.937  14.545  11.129 -0.0424 -0.1966  0.0825
23381W        W39565  14.512   9.963  12.165  0.0471 -0.0308  0.2596
23382W        W39566  13.374  12.492  13.721 -0.2461 -0.0998  0.3045
23383W        W39567   6.782   2.242  12.141 -0.2402  0.0294  0.2693
23384W        W39568   7.122  11.021   3.114 -0.1024  0.3317 -0.1791
23385W        W39569  10.962  17.362  10.887 -0.0639  0.1796  0.0461
23386W        W39570  17.744   2.414   5.229  0.2461  0.1610 -0.1073
23387W        W39571  14.544   1.591  11.341  0.2264 -0.0982  0.2268
23388W        W39572   7.633   8.825  10.743  0.2348  0.0315 -0.1234
23389W        W39573   5.400   7.966  10.313  0.0032  0.3613  0.1220
23390W        W39574   4.244   2.206   0.882  0.4520  0.1610  0.3228
23391W        W39575   1.501  13.191   3.057 -0.1595  0.2203  0.0179
23392W        W39576   4.484   2.079   3.149 -0.4447  0.0856  0.0106
23393W        W39577   0.051  11.051  12.677  0.4128 -0.4368 -0.4769
23394W        W39578  10.115   6.345  13.294  0.0730 -0.5087  0.3262
23395W        W39579  14.830   4.618  15.076  0.0393  0.1352 -0.1225
23396W        W39580  11.406   9.704   5.309 -0.0824  0.1473 -0.1429
23397W        W39581   0.603  15.977   4.228  0.0501 -0.1439 -0.0840
23398W        W39582   8.211   7.047   3.089 -0.0657  0.0729 -0.0091
23399W        W39583  15.598   6.400   3.338  0.0276  0.2127  0.2149
23400W        W39584  12.288   7.943   1.828 -0.0096  0.1950  0.3169
23401W        W39585  17.177   5.668   2.952  0.0011 -0.1437 -0.2636
23402W        W39586  10.115  17.019  10.063  0.0947 -0.0964  0.0980
23403W        W39587  11.794   8.255  11.630 -0.3129 -0.0762 -0.0081
23404W        W39588  11.106  12.624  13.806 -0.0314  0.1740 -0.0210
23405W        W39589   3.331   4.808  15.259 -0.3242  0.3439  0.0200
23406W        W39590  15.416   8.527  11.630  0.2600 -0.1178 -0.0666
23407W        W39591  13.352  11.634  12.900  0.3879 -0.0946 -0.1592
23408W        W39592  14.596  14.834  12.859  0.2292 -0.0435 -0.1532
23409W        W39593   2.653   0.611   0.732 -0.1058 -0.2359 -0.0728
23410W        W39594   0.536  15.085   2.429  0.0447  0.0968 -0.0504
23411W        W39595  12.268  14.583   2.952  0.3255  0.3474 -0.0222
23412W        W39596  10.698   1.668   0.036  0.1301 -0.0427  0.2464
23413W        W39597   9.366  11.142  14.703  0.3732 -0.3215 -0.0004
23414W        W39598  12.500  17.179  14.116 -0.2365  0.2853 -0.1026
23415W        W39599   5.830  11.221  14.405 -0.0328 -0.0321  0.0249
23416W        W39600   3.392   9.779   0.764 -0.0669  0.1052 -0.2570
23417W        W39601  17.107   9.291   9.772 -0.0443  0.3854  0.2805
23418W        W39602   8.459  12.373  11.207 -0.2416 -0.1594  0.0468
23419W        W39603  17.880   7.950  13.445 -0.0769 -0.5517  0.1430
23420W        W39604  13.968   4.939   2.184 -0.3486  0.0413 -0.3131
23421W        W39605   2.885   0.844   0.273 -0.0086 -0.1927 -0.2719
23422W        W39606  10.530   7.554  13.284 -0.2086 -0.0447 -0.0315
23423W        W39607  17.817  10.305   0.745 -0.0623  0.2852 -0.2453
23424W        W39608   2.414  12.558   0.346 -0.2108  0.0977  0.1957
23425W        W39609   9.130  14.522   1.581  0.1193 -0.0040  0.1639
23426W        W39610  10.341  15.033  10.720 -0.0357 -0.1448 -0.0261
23427W        W39611   0.453   0.671  13.551 -0.3880  0.0358  0.1205
23428W        W39612  14.300  12.712  11.187 -0.1753  0.1195  0.2313
23429W        W39613   5.290   5.364  15.159  0.2903 -0.1580 -0.1164
23430W        W39614   4.401   4.480  12.635  0.1447 -0.3054 -0.2076
23431W        W39615  16.741   7.655  13.737 -0.1358 -0.1459 -0.0813
23432W        W39616   8.442  11.241   5.204 -0.1622  0.4878  0.1786
23433W        W39617  17.808   8.824   4.456  0.3930 -0.0618  0.1028
23434W        W39618  13.806   5.996   0.886 -0.0726  0.5032 -0.0085
23435W        W39619  15.695  13.715   1.502  0.2328  0.1518 -0.2335
23436W        W39620   3.236  11.455   4.168  0.1664  0.1336  0.1130
23437W        W39621  10.110   1.487   0.410 -0.1460  0.2506  0.1768
23438W        W39622  11.517  12.966  11.347 -0.2293 -0.2316  0.0761
23439W        W39623   9.905   5.717   4.677 -0.0426  0.1530 -0.2418
23440W        W39624   1.796  11.554   5.243  0.2991  0.1637 -0.0101
23441W        W39625   9.695   7.110   5.291 -0.1324 -0.0982 -0.1684
23442W        W39626   2.471  15.105  14.995 -0.1231  0.7793  0.0517
23443W        W39627   6.891  12.675  15.319 -0.0470 -0.1469  0.0816
23444W        W39628  16.796  17.803   2.886  0.3086 -0.4672  0.1660
23445W        W39629   3.097  12.188   0.088 -0.3636  0.2403 -0.1290
23446W        W39630  15.190  14.145   0.296  0.0242 -0.1988 -0.0778
23447W        W39631  10.272   6.938   2.123  0.0001  0.2554  0.2727
23448W        W39632  16.754  17.993   2.171 -0.0467  0.1220 -0.0815
23449W        W39633   6.653   0.462  13.159  0.1569 -0.2079  0.3293
23450W        W39634   1.474  10.984   4.109  0.1612  0.0740  0.2272
23451W        W39635  11.298   1.156  15.294 -0.1437  0.1171  0.2436
23452W        W39636  15.133   8.516  11.195 -0.0942  0.1101 -0.1553
23453W        W39637   5.603   2.459   0.611 -0.2641  0.1240  0.0979
23454W        W39638   1.572   4.121  14.339  0.2173 -0.0111 -0.0461
23455W        W39639  15.700   3.150   4.324  0.0840 -0.1405  0.1146
23456W        W39640   5.237   7.168   2.419  0.1311 -0.2266  0.3183
23457W        W39641  10.394   8.469   3.813 -0.0927 -0.1683 -0.3249
23458W        W39642  18.954   2.451  14.723 -0.2528  0.1492  0.1167
23459W        W39643  12.085  11.214  13.287 -0.2848 -0.2103 -0.1540
23460W        W39644   5.521   7.433   4.236  0.1149  0.0220  0.0093
23461W        W39645  14.259   8.438  12.258 -0.3319  0.1115 -0.3335
23462W        W39646  16.177  13.267  12.141 -0.0723  0.1183  0.1654
23463W        W39647  16.144  12.313  11.403 -0.1585  0.1487 -0.2489
23464W        W39648  15.457  14.881   1.469 -0.1327 -0.0763  0.1878
23465W        W39649   3.287   6.915  11.664 -0.2478 -0.0004 -0.1093
23466W        W39650   1.307  15.475   0.135  0.0779  0.3776  0.1098
23467W        W39651  18.314   9.001  14.794  0.2027 -0.0336 -0.3037
23468W        W39652  10.349  18.062  14.006 -0.1678  0.2062  0.4556
23469W        W39653  11.067  15.806  14.837  0.0573 -0.0965 -0.2334
23470W        W39654   9.159  15.896  12.211  0.1258 -0.0563  0.1180
23471W        W39655  16.043  11.325  11.846  0.0417  0.0606 -0.0190
23472W        W39656   0.210  14.145   2.098  0.1185  0.3035  0.0971
23473W        W39657   3.698   2.194  13.213  0.0532  0.1843 -0.1422
23474W        W39658   9.539  14.076   2.872 -0.0426 -0.0920  0.2889
23475W        W39659   7.657   5.812  13.597  0.0113 -0.0388 -0.0801
23476W        W39660  18.566   3.586   2.879  0.4634 -0.1729  0.1483
23477W        W39661   0.155   7.884   3.811  0.2487 -0.0380 -0.1083
23478W        W39662  12.300  13.600  10.946 -0.4065 -0.1272  0.1953
23479W        W39663   5.655   8.843   0.217 -0.2154  0.0949  0.1756
23480W        W39664  17.086   9.656   2.770  0.1893 -0.1522  0.1611
23481W        W39665   8.431   3.626   0.419  0.0300 -0.3756  0.1270
23482W        W39666   3.011  16.119  12.953 -0.0885 -0.1381  0.3354
23483W        W39667   0.039   2.673   2.022 -0.1252  0.0983 -0.2336
23484W        W39668  17.272   9.839   3.825  0.1552 -0.1380  0.1538
23485W        W39669   2.674  11.008   3.971  0.0204 -0.2616  0.0760
23486W        W39670  12.370   5.439   2.083  0.0312  0.0449 -0.1001
23487W        W39671   7.618  10.864  12.111 -0.1023 -0.4542 -0.0778
23488W        W39672   0.902   5.583  15.084  0.0735  0.1212  0.3363
23489W        W39673  12.376  16.441  11.547  0.4403  0.2106 -0.0236
23490W        W39674  11.670   9.581   3.778 -0.0288 -0.3239  0.0009
23491W        W39675   9.155   0.608   0.256 -0.3568  0.0303  0.1049
23492W        W39676  10.287   9.330   3.540 -0.0343 -0.0334 -0.2927
23493W        W39677   0.474  18.525   9.826 -0.2263 -0.2571 -0.0093
23494W        W39678  15.530  14.875  14.083 -0.1286  0.0678 -0.0851
23495W        W39679   0.542  13.798   2.975  0.2855 -0.1332  0.0304
23496W        W39680  13.009  16.428  12.294  0.0606 -0.0038  0.1312
23497W        W39681  12.619  13.140   0.451  0.0566 -0.2520  0.1940
23498W        W39682  10.047  13.703  12.830 -0.1833  0.1148 -0.2318
23499W        W39683  12.867   4.042  14.120  0.1402 -0.0188 -0.0388
23500W        W39684   7.285   6.529   4.422 -0.0762  0.1323  0.0731
23501W        W39685  14.787   8.354  11.507 -0.1703  0.0911 -0.1551
23502W        W39686  12.004  16.606   4.997  0.0374  0.1748 -0.3237
23503W        W39687   3.209  11.611   3.163  0.0265 -0.2979 -0.0678
23504W        W39688  17.257   3.587  13.116  0.0707 -0.1782  0.0226
23505W        W39689  17.372   3.095  12.877 -0.1303 -0.3256  0.1418
23506W        W39690   4.068  12.204  15.287  0.0803 -0.1824  0.0121
23507W        W39691   9.314  17.524  12.931 -0.2827  0.0299 -0.3687
23508W        W39692  10.103   2.540  13.779 -0.4644 -0.1040  0.2312
23509W        W39693  11.761   1.333  14.051 -0.0147  0.3006  0.2345
23510W        W39694   6.257  17.295   4.953  0.1484 -0.1209 -0.1361
23511W        W39695  14.066   6.613   1.326  0.0240 -0.1196 -0.2385
23512W        W39696   2.960   0.755   2.502 -0.2511 -0.0956  0.2909
23513W        W39697  12.897  18.186  12.010  0.0872  0.1746  0.0362
23514W        W39698   7.317  18.806   4.130  0.0986  0.1598 -0.1419
23515W        W39699  18.473  13.557   0.183 -0.2981  0.0824 -0.0169
23516W        W39700   3.847   7.312   5.835 -0.2399 -0.1455  0.3415
23517W        W39701  10.775   7.953   4.486  0.0469  0.2264  0.1817
23518W        W39702   7.120  15.945  14.774  0.0453  0.2226  0.1775
23519W        W39703   3.120  12.991  12.883 -0.1164 -0.1804  0.0940
23520W        W39704   8.952   9.250   2.860 -0.2654 -0.0537 -0.1975
23521W        W39705   3.455  10.156   4.893 -0.1474 -0.0404  0.2238
23522W        W39706   9.665  16.539  13.112  0.2253  0.0935 -0.0800
23523W        W39707   5.680  13.416  12.499 -0.0754  0.0844  0.0182
23524W        W39708   4.930   5.163  11.106  0.0402  0.1721  0.1419
23525W        W39709   1.439  14.349  11.704  0.2736  0.1646 -0.1118
23526W        W39710  10.575  15.845  10.564 -0.1946 -0.2379 -0.3691
23527W        W39711  14.382   4.242   0.913 -0.0874  0.3991 -0.0858
23528W        W39712  18.681   4.171  10.798  0.2383  0.0521 -0.0168
23529W        W39713  16.886  16.021   1.584  0.1400  0.0956  0.2516
23530W        W39714  12.109   6.263  11.226 -0.2796 -0.0326  0.3770
23531W        W39715   0.326   3.092   4.692  0.0894 -0.3930  0.2910
23532W        W39716   7.983   5.339   0.482  0.2715 -0.1367 -0.1338
23533W        W39717   5.227  13.230  12.216  0.0040  0.3105  0.2417
23534W        W39718  12.556  16.816  13.676  0.1006 -0.4290 -0.0288
23535W        W39719   3.314   7.693  15.372  0.0196  0.1216 -0.0036
23536W        W39720  15.392   1.163   2.126 -0.0938  0.2138  0.1239
23537W        W39721  17.817   9.820   0.839  0.1546  0.0249  0.0229
23538W        W39722  17.265  17.105   4.747 -0.1766 -0.1282  0.1680
23539W        W39723  13.743  10.998   4.357  0.0686  0.0799 -0.2691
23540W        W39724  15.756   7.311   4.277  0.2078  0.1219  0.1429
23541W        W39725   5.106  16.710  14.906 -0.4612 -0.3562 -0.4978
23542W        W39726  12.122   1.863  12.021 -0.0811 -0.1057  0.0131
23543W        W39727   8.850   0.333   2.263 -0.1149 -0.2041  0.3483
23544W        W39728   1.244  15.630  12.434  0.4159  0.0789  0.0795
23545W        W39729   2.741   1.614   5.412  0.1278  0.3669  0.0550
23546W        W39730  13.600   9.702  11.985  0.0743  0.0898 -0.1260
23547W        W39731  16.265  16.165   0.398  0.0099 -0.1133 -0.2340
23548W        W39732  17.011   0.701   1.392 -0.0257  0.1589  0.4264
23549W        W39733  11.059  11.513   1.655 -0.1455 -0.1318  0.1894
23550W        W39734   1.807   4.920  13.803 -0.2630 -0.0737 -0.2436
23551W        W39735   7.583  17.111   1.283  0.0027 -0.1022 -0.1130
23552W        W39736  14.669  17.481   1.917  0.1843  0.2097 -0.0998
23553W        W39737  12.529  14.764   4.409  0.3427  0.0293  0.2072
23554W        W39738   8.375  12.358   2.912  0.0947 -0.1521  0.1951
23555W        W39739   2.946  13.582  15.253 -0.1453 -0.2483  0.0134
23556W        W39740   4.791  17.384  14.258 -0.2189 -0.1273 -0.2830
23557W        W39741   3.907   3.369  14.157  0.0361 -0.0776 -0.3366
23558W        W39742  13.640   1.171  11.149  0.0815 -0.1457 -0.1732
23559W        W39743   2.114   7.550   0.330 -0.1652  0.0736  0.0526
23560W        W39744  17.473   8.837   5.343  0.1852  0.1499 -0.0615
23561W        W39745   5.141   1.413   1.735  0.0231 -0.1355  0.1838
23562W        W39746   3.116   5.585   0.462  0.0811  0.0793 -0.0820
23563W        W39747   8.707  10.038   1.176 -0.2840  0.1276 -0.2639
23564W        W39748  14.754  15.021   1.121  0.1852 -0.2902  0.1343
23565W        W39749   5.371  15.929   2.180  0.0013  0.1548  0.1848
23566W        W39750   1.619   5.914   1.967 -0.0026 -0.1554 -0.1316
23567W        W39751   7.608   5.241  13.542  0.0048 -0.2256  0.1005
23568W        W39752  12.572   4.633  11.127  0.1165 -0.0821 -0.2301
23569W        W39753  12.211  18.810   0.137  0.0928  0.2321 -0.1058
23570W        W39754  11.264  14.571   4.113 -0.1711  0.0492  0.0631
23571W        W39755   4.150   5.985   1.923 -0.1416  0.1129  0.0880
23572W        W39756   2.800  11.950  15.103 -0.0598 -0.0381  0.0624
23573W        W39757  12.850  11.441   1.952 -0.1820  0.1708 -0.2866
23574W        W39758  10.570  12.456  11.116 -0.0636 -0.2841 -0.1547
23575W        W39759  10.817   3.335   1.747 -0.0609  0.0033 -0.1315
23576W        W39760  15.696   7.177   3.687 -0.0667  0.1712  0.0918
23577W        W39761  13.055   8.978   3.920  0.2333 -0.0866 -0.1091
23578W        W39762   0.727  18.493  14.837  0.1905 -0.0386  0.1130
23579W        W39763  10.974  11.045   5.232  0.0899 -0.0358 -0.5198
23580W        W39764  18.298  11.635  12.653 -0.1722  0.3022  0.0248
23581W        W39765   6.825  15.275   4.567 -0.0285 -0.1349  0.0046
23582W        W39766   7.482   2.427   2.512  0.1064  0.1628  0.3374
23583W        W39767  14.346   2.831  10.608  0.1668  0.0592 -0.0490
23584W        W39768  14.206   0.976   9.454 -0.0300 -0.0048 -0.1624
23585W        W39769  10.921   5.310  12.659  0.0903 -0.0586  0.0449
23586W        W39770   8.442   0.654  14.826  0.1882  0.2234  0.1357
23587W        W39771  12.013  16.542  15.337  0.1252  0.0368  0.2178
23588W        W39772   0.724   4.477  11.155  0.2199 -0.0687 -0.1660
23589W        W39773  11.450  18.556   2.813  0.0920  0.0489  0.4748
23590W        W39774   0.238  12.446   5.570 -0.2426  0.3999  0.0307
23591W        W39775  12.645   7.038  13.037  0.0045  0.1668 -0.2200
23592W        W39776  10.589  17.650  10.459 -0.1807  0.1054 -0.2405
23593W        W39777  16.697  11.989  13.388  0.0852 -0.0670 -0.2923
23594W        W39778   8.762  12.112   2.646  0.0867  0.0471  0.0959
23595W        W39779   3.003   6.576   2.432  0.0955  0.1412 -0.0888
23596W        W39780   8.919  17.234   4.343  0.2334 -0.0202 -0.1905
23597W        W39781  17.921   9.140  12.046 -0.1329 -0.0247 -0.4505
23598W        W39782   7.144  13.890  14.617  0.1755  0.0841 -0.1970
23599W        W39783   9.314  17.145   4.651  0.0527  0.0213 -0.0146
23600W        W39784  12.629  13.462  11.237  0.1737  0.1714 -0.1017
23601W        W39785  10.279   8.716  11.497 -0.1344 -0.1658 -0.0593
23602W        W39786   4.756  12.852  15.296  0.1646 -0.1111  0.3557
23603W        W39787  14.532  15.104  12.474 -0.3355 -0.3823  0.0831
23604W        W39788   7.657   9.592  12.752  0.2838 -0.0037 -0.1149
23605W        W39789   0.612   0.950  12.654 -0.1786 -0.2618 -0.0262
23606W        W39790  18.480  14.871  11.586  0.4365 -0.0699  0.0397
23607W        W39791   1.993  13.254  11.526  0.2256 -0.0140 -0.0908
23608W        W39792   6.206  11.544  13.802 -0.4228 -0.2246 -0.2038
23609W        W39793  14.759  18.797  10.916 -0.3361 -0.0324  0.3478
23610W        W39794   8.220  16.249   1.647 -0.3164  0.0908  0.1702
23611W        W39795   3.483  15.267  14.561  0.0635  0.1082 -0.0765
23612W        W39796  11.890  11.579   1.515 -0.3586  0.0942  0.3465
23613W        W39797   6.300  16.247   3.634 -0.0546  0.0411  0.1922
23614W        W39798   8.764  14.955   5.446  0.0599 -0.2604  0.1161
23615W        W39799   2.286   7.596   2.215 -0.0811 -0.0030  0.0728
23616W        W39800  16.349  16.683  11.283 -0.2053  0.2129  0.0183
23617W        W39801   3.055  17.193   5.923  0.1658 -0.0529 -0.2854
23618W        W39802  13.059   2.790   4.110 -0.2057  0.0665  0.0780
23619W        W39803   2.202  14.598  11.107 -0.2801  0.5103  0.0485
23620W        W39804   9.216  16.332   0.448 -0.0393  0.1146 -0.0828
23621W        W39805   2.877  17.533  10.839 -0.2326  0.1129  0.1583
23622W        W39806  11.749   4.518  14.197  0.2421 -0.0570  0.0497
23623W        W39807   3.314   2.568   4.171  0.0584  0.1884  0.2697
23624W        W39808   8.326   6.510  15.359  0.0932  0.1284  0.0131
23625W        W39809   6.987   6.046  12.061 -0.1336 -0.3558 -0.0707
23626W        W39810   0.743   1.774   3.276  0.0415 -0.2624  0.2536
23627W        W39811   7.806  14.319  10.400  0.1520 -0.3573  0.0335
23628W        W39812   9.303  15.631   0.010 -0.0973 -0.1046 -0.2570
23629W        W39813  18.972   7.686  11.623 -0.1258  0.1471  0.0703
23630W        W39814   8.843   5.939  13.164 -0.0869  0.0033 -0.3961
23631W        W39815   6.062   8.864  11.091  0.0044 -0.1165  0.3076
23632W        W39816   0.865  13.536  14.171 -0.0577 -0.1005  0.2621
23633W        W39817   1.333   9.075   4.523  0.0272 -0.0810 -0.1261
23634W        W39818   7.167   8.690  11.944  0.0472  0.2557  0.1257
23635W        W39819   6.002   3.861   0.813 -0.2743  0.0626  0.0295
23636W        W39820   3.270   1.998  12.019  0.0878  0.1427  0.0360
23637W        W39821  10.428  12.753  11.907  0.0292  0.2930  0.3377
23638W        W39822   8.410   7.842   2.727 -0.1544  0.0884 -0.1750
23639W        W39823  14.845   3.309   2.112 -0.2724 -0.1654  0.1173
23640W        W39824  12.979  17.170   1.998  0.3304 -0.0141  0.1097
23641W        W39825  10.525   9.161   0.346  0.2527  0.1391  0.0217
23642W        W39826  17.388   4.011   2.494  0.1087 -0.2101  0.1822
23643W        W39827   0.596   6.616   0.954  0.0856 -0.2203  0.3768
23644W        W39828   2.511   5.925   3.508 -0.1314  0.1145  0.0559
23645W        W39829  12.791  15.259  11.943 -0.2644 -0.1960  0.1837
23646W        W39830  10.063   7.050  13.918  0.0124 -0.0911 -0.0077
23647W        W39831   8.922   1.304  15.028  0.0252  0.1973 -0.2791
23648W        W39832  11.102   8.749   3.576 -0.3787 -0.1313  0.0754
23649W        W39833   1.923  13.068  12.405  0.0751  0.2466 -0.2076
23650W        W39834   2.686   4.949   1.889 -0.3460  0.0192  0.1308
23651W        W39835  13.320   4.969   1.537 -0.3600 -0.0281  0.1091
23652W        W39836   5.607   2.947   2.240  0.5086 -0.1480  0.0176
23653W        W39837   0.499   4.978   2.890  0.0592 -0.2207 -0.1468
23654W        W39838   1.520  11.077  11.517  0.0782 -0.1519  0.0087
23655W        W39839  11.289  18.275  13.511 -0.2175 -0.1485  0.3286
23656W        W39840   7.639   7.335  12.826  0.1575 -0.1517 -0.0419
23657W        W39841  10.996   2.787  15.216  0.2417 -0.0947 -0.1164
23658W        W39842   9.892  16.597   2.312 -0.1358  0.0957  0.1079
23659W        W39843   2.390   1.176  11.318  0.0363 -0.1150 -0.3377
23660W        W39844  13.641   9.771  10.989 -0.3331 -0.1477  0.0561
23661W        W39845   0.669   4.584  14.031 -0.0442  0.0996  0.0088
23662W        W39846  17.795  16.090  15.034 -0.0278  0.0255  0.2432
23663W        W39847  14.349  18.843   2.318  0.0325  0.2250 -0.1272
23664W        W39848   7.902   7.747   1.217 -0.0687 -0.2212 -0.1556
23665W        W39849  12.500   9.085   4.571 -0.1382 -0.1731 -0.0239
23666W        W39850  11.199  17.291   1.403 -0.1137 -0.1234 -0.2488
23667W        W39851   1.328   7.963  14.969 -0.1282 -0.1262 -0.3323
23668W        W39852  12.333   7.614  12.125 -0.0902  0.1350  0.0215
23669W        W39853  10.867   2.027   0.489 -0.3718 -0.0192 -0.0163
23670W        W39854   0.733  14.604   2.665  0.0547  0.0340  0.1987
23671W        W39855   2.761   5.650   2.689  0.0005  0.1993  0.1793
23672W        W39856  13.144   6.496   3.200 -0.0671 -0.0646 -0.0726
23673W        W39857  17.734  10.855   1.008 -0.1569 -0.1850  0.0511
23674W        W39858  15.499   5.385  13.538 -0.0369 -0.1016 -0.1919
23675W        W39859   9.043   0.889   4.778  0.0390 -0.2309 -0.1263
23676W        W39860   9.275  18.826  14.465  0.0383 -0.2368 -0.1590
23677W        W39861   7.836  11.666  11.186 -0.1122 -0.0143  0.0364
23678W        W39862  16.126   0.825  14.083  0.1864  0.0700  0.0023
23679W        W39863   1.573  17.275  14.054  0.1485 -0.2237 -0.1566
23680W        W39864  12.266   5.167  10.445 -0.2198 -0.4440 -0.0146
23681W        W39865   9.354  15.471   3.009  0.0587 -0.0082 -0.0596
23682W        W39866   5.343   6.253   0.740 -0.0045 -0.0402  0.0398
23683W        W39867   0.524  15.251  13.107 -0.2353  0.3329  0.2334
23684W        W39868   7.538  13.093   1.172  0.4611  0.0401 -0.0630
23685W        W39869  13.189  15.639   2.076  0.0193  0.1350 -0.2376
23686W        W39870   1.917   7.414  11.261 -0.0249 -0.1332  0.6333
23687W        W39871  15.071   8.101   0.607  0.2416 -0.0600 -0.1502
23688W        W39872   4.580   9.594  11.594 -0.4510 -0.1373 -0.0670
23689W        W39873  14.952  12.818  11.425  0.1041 -0.1640 -0.1190
23690W        W39874  14.219   8.813   2.370 -0.1652  0.0808 -0.2687
23691W        W39875   4.231   7.555  11.644  0.2325  0.0543 -0.2203
23692W        W39876   4.376  11.199   4.181 -0.0996  0.0831 -0.5260
23693W        W39877  18.161  13.990   0.367 -0.0212 -0.1804 -0.3080
23694W        W39878   8.543  12.410   1.579  0.1325  0.0591  0.0942
23695W        W39879  10.565   2.958  12.183 -0.1429 -0.0173 -0.0335
23696W        W39880   1.532   8.288  14.631  0.1180  0.0456 -0.0706
23697W        W39881  17.474  10.520   4.044  0.3571 -0.0092  0.1931
23698W        W39882  11.559  18.708  13.464 -0.2119  0.1094  0.0512
23699W        W39883   8.944   3.138  10.735 -0.1679 -0.1019 -0.3105
23700W        W39884   1.243  13.340  14.398 -0.1862  0.1937  0.0189
23701W        W39885   9.882   1.066   3.741 -0.1044 -0.0051  0.2125
23702W        W39886  10.534   1.573   2.851  0.0152  0.3194  0.0679
23703W        W39887  11.848  15.244  12.069 -0.0392 -0.1995 -0.2655
23704W        W39888   6.356   7.147   1.246 -0.1050 -0.2529  0.0231
23705W        W39889  14.163   0.774   0.113 -0.2303 -0.0931  0.2391
23706W        W39890  15.079  12.651  10.584  0.0192 -0.0878 -0.3303
23707W        W39891   8.473   3.619   3.707  0.0550 -0.1755 -0.2021
23708W        W39892  14.607   3.046   2.890  0.2943 -0.1349  0.3155
23709W        W39893  18.633   6.734   4.242  0.0976  0.0681 -0.0070
23710W        W39894   8.308  13.470   1.432 -0.3686  0.0894  0.1423
23711W        W39895   6.577  17.398   1.146 -0.3115 -0.0662 -0.1834
23712W        W39896   9.156  14.564  11.836 -0.3229 -0.1325 -0.1890
23713W        W39897   3.599   0.953   2.187  0.0451 -0.0001  0.2163
23714W        W39898  17.980   1.753  13.930 -0.2092 -0.1165 -0.1998
23715W        W39899   6.882  11.978  14.681  0.0067 -0.2828 -0.2177
23716W        W39900  11.243   4.547   4.882  0.1908 -0.0296 -0.3055
23717W        W39901  17.672   7.145   5.269  0.3624  0.0385 -0.0129
23718W        W39902  15.617   5.092  15.189  0.0781 -0.1600 -0.2101
23719W        W39903   0.614   7.298   5.004 -0.3919  0.1804  0.3064
23720W        W39904   6.242  12.271   3.098  0.0665 -0.1389  0.0388
23721W        W39905  17.271  15.644   1.723 -0.1800 -0.0871 -0.1132
23722W        W39906  10.458  15.730  12.400 -0.2225 -0.1646  0.0547
23723W        W39907   0.894   0.242   4.313 -0.2218 -0.2622  0.2715
23724W        W39908  10.496   0.039   0.502  0.1839  0.0039 -0.0859
23725W        W39909  18.059  12.819   3.485 -0.3934  0.0521  0.1290
23726W        W39910   8.209  16.602  12.812 -0.1124  0.1124  0.1725
23727W        W39911   4.700  14.870   3.701  0.2995 -0.2064 -0.2775
23728W        W39912   8.962  14.063  12.905 -0.0067 -0.1436  0.0679
23729W        W39913   6.165  18.340  10.608  0.3328 -0.0069 -0.2164
23730W        W39914   7.473   4.712  14.884  0.1984  0.1860  0.0956
23731W        W39915  12.206   1.296   3.351  0.1220  0.1938  0.1829
23732W        W39916   7.220   2.056  13.741 -0.2845 -0.0228  0.0308
23733W        W39917   8.355  12.811  15.072 -0.0783 -0.2325  0.3003
23734W        W39918  16.686   2.551   2.208  0.1622  0.1255  0.1427
23735W        W39919   4.799   2.574  14.547 -0.0729 -0.1289  0.0803
23736W        W39920   3.422   2.673  13.074  0.3451  0.2010 -0.1636
23737W        W39921  17.197  16.877  13.777 -0.0265 -0.0453 -0.1367
23738W        W39922  15.382   6.894  12.300  0.1214  0.0251 -0.0226
23739W        W39923  15.909  18.398  10.226 -0.2791 -0.1176  0.3590
23740W        W39924   7.250   6.662  12.185  0.2542 -0.2536  0.0328
23741W        W39925  11.410  17.401   5.010 -0.2304 -0.2687 -0.3482
23742W        W39926  15.275   1.457   2.522  0.3618  0.1586  0.0763
23743W        W39927   0.717  17.524  10.598 -0.1931  0.1405  0.0090
23744W        W39928  15.345   7.121  14.367  0.1458 -0.3355  0.0118
23745W        W39929  15.926  11.300   1.413  0.2335 -0.1397 -0.1083
23746W        W39930   7.707   7.372  10.649  0.1106  0.0011  0.0838
23747W        W39931   2.348  10.722  11.641 -0.2077  0.2321 -0.0559
23748W        W39932  16.496  10.775   6.198 -0.1124 -0.0447  0.0644
23749W        W39933   3.630   1.338  13.206  0.2694  0.2634  0.1312
23750W        W39934   4.533   0.962  13.281  0.1750  0.0837  0.2015
23751W        W39935  15.290   0.820  14.485  0.2368 -0.2440 -0.1788
23752W        W39936   6.361  14.827   0.477  0.0823  0.0825  0.0475
23753W        W39937   6.247   3.162  12.384  0.0462 -0.3474  0.0842
23754W        W39938  18.707  10.006   0.429 -0.1324  0.0088  0.1367
23755W        W39939  18.585  16.796  12.913 -0.1304  0.3412  0.2583
23756W        W39940   6.468  17.599  13.651 -0.1012  0.0381  0.3482
23757W        W39941  12.811   7.023   1.851  0.2459  0.0695  0.3662
23758W        W39942   7.435  10.259  12.628 -0.0009 -0.0388 -0.2536
23759W        W39943   9.256   8.649  14.032 -0.2820  0.1358  0.0158
23760W        W39944   9.494  16.699  12.209  0.1900  0.0679  0.0477
23761W        W39945   3.801  13.951   1.912  0.4204  0.1922 -0.1634
23762W        W39946   2.451  16.857  14.876 -0.0817  0.2128  0.0476
23763W        W39947  18.844   1.499  15.188 -0.2149  0.4602  0.0629
23764W        W39948   2.536  13.513  13.951  0.3091  0.3951 -0.4259
23765W        W39949   1.929   7.497  12.106  0.0552  0.1930 -0.0684
23766W        W39950   5.701  14.517   5.520  0.2030 -0.0269  0.0280
23767W        W39951  13.170  18.411  11.160  0.0569  0.0019  0.2565
23768W        W39952  18.904  16.865  14.281 -0.0242 -0.1301 -0.1287
23769W        W39953  10.351   5.366   1.860 -0.0188 -0.2644  0.2882
23770W        W39954   6.622   4.864   3.543 -0.1864 -0.0445 -0.0852
23771W        W39955   2.629  12.890  11.943  0.1399  0.1325  0.0026
23772W        W39956  14.981  12.673  11.888 -0.4514  0.4804 -0.0068
23773W        W39957   1.485   9.458  14.868 -0.0331 -0.3009 -0.2411
23774W        W39958  10.840   2.746   2.673  0.0779  0.1558 -0.1905
23775W        W39959  10.038   3.481  11.130 -0.4750  0.2829 -0.0650
23776W        W39960   7.367   6.227   1.936 -0.1712 -0.2713 -0.0183
23777W        W39961  11.879  13.521   4.796  0.1215 -0.0274  0.1584
23778W        W39962   7.483  18.662  13.431  0.3921  0.3762 -0.0246
23779W        W39963   8.346  11.976  12.243  0.3914  0.0879 -0.1494
23780W        W39964   9.841  15.312  11.686  0.4695  0.0275 -0.0897
23781W        W39965   4.272   4.391  14.161 -0.3974  0.2890 -0.1124
23782W        W39966  17.754  12.242  13.720 -0.1142  0.4041  0.0290
23783W        W39967  15.501  10.372   1.266 -0.1440  0.1587  0.0387
23784W        W39968   9.768   1.772   9.573 -0.0457 -0.0614  0.2560
23785W        W39969  15.131   4.639   3.312  0.2279 -0.1293 -0.0843
23786W        W39970   0.532   5.781  14.696  0.3936  0.0756 -0.3493
23787W        W39971  18.989  15.297  11.986 -0.1688 -0.1784  0.0750
23788W        W39972   3.548   1.627  12.761  0.1274  0.1553  0.2537
23789W        W39973  18.267   3.808   3.351  0.0126  0.1594 -0.1035
23790W        W39974  12.413  15.552   2.565 -0.2440  0.2522 -0.0692
23791W        W39975  17.609   3.382  11.200  0.0294  0.2254  0.3132
23792W        W39976   4.443   6.088   1.158 -0.1969  0.4505  0.0700
23793W        W39977   4.551  16.703  13.462 -0.1752  0.0881 -0.1003
23794W        W39978   9.700   4.928  11.221  0.2288  0.1308  0.3398
23795W        W39979  13.519   9.724   2.261  0.2464  0.5544 -0.0430
23796W        W39980   6.698  11.242  14.277  0.0391 -0.2058  0.5290
23797W        W39981  13.921  14.228  14.999 -0.0854  0.0957  0.0257
23798W        W39982   6.455   2.391  13.336 -0.2507  0.1889 -0.1270
23799W        W39983  18.242   1.801   5.754 -0.5000 -0.1206 -0.1425
23800W        W39984  11.069  12.420  15.332  0.0373  0.4256  0.1510
23801W        W39985  11.731   9.367  15.073 -0.2701 -0.1348  0.2225
23802W        W39986  14.593  12.189   0.893 -0.0325  0.1911  0.0259
23803W        W39987  16.597   8.086   0.352 -0.2515 -0.0214  0.1255
23804W        W39988  17.835   3.070   5.132  0.4400 -0.0871 -0.1600
23805W        W39989   7.413  10.361   4.291 -0.0915  0.1784 -0.1323
23806W        W39990  11.502  15.084   2.888 -0.0177  0.0739  0.4807
23807W        W39991  18.102   7.157   2.602 -0.0147  0.0182  0.2343
23808W        W39992   7.266   5.289  11.872 -0.1170  0.0592 -0.0139
23809W        W39993  12.482   9.827   3.668 -0.3371 -0.2952  0.0532
23810W        W39994   1.307  11.393  12.802 -0.1494  0.1428 -0.1266
23811W        W39995   4.427  12.149   4.174 -0.2612 -0.0416  0.2761
23812W        W39996  15.661   9.080   3.374 -0.1219  0.1018  0.0024
23813W        W39997   5.788   8.972   3.374  0.3760 -0.0581 -0.1345
23814W        W39998   2.090  10.015  11.274  0.0165 -0.0978 -0.0644
23815W        W39999  18.290  11.060   1.019  0.0651  0.2063 -0.3670
23816W        W40000  10.437  16.780  11.737 -0.2819  0.2560  0.0288
23817W        W40001  17.819   4.759   3.353  0.0505 -0.1450  0.1602
23818W        W40002   6.242   4.408  15.037  0.3600  0.3388  0.3207
23819W        W40003  14.063   8.904   4.796 -0.1783  0.2788 -0.0455
23820W        W40004  11.089  17.430  11.924  0.1428 -0.1780  0.1245
23821W        W40005   7.885   1.295  13.745  0.0675 -0.1110 -0.0364
23822W        W40006  18.521   0.045  10.791 -0.0173  0.0527 -0.1950
23823W        W40007   9.114  18.436  11.178  0.1023 -0.3025  0.0501
23824W        W40008  16.478  13.040  15.354  0.1651 -0.3011  0.1555
23825W        W40009  13.460  10.567  11.482 -0.1428  0.0720 -0.1817
23826W        W40010  10.713   2.958  11.638 -0.3002  0.2509  0.1937
23827W        W40011  17.736  11.032  14.948  0.0623 -0.2211 -0.0907
23828W        W40012   2.750   8.547  10.613 -0.1879  0.1156  0.0625
23829W        W40013  16.932   4.597   4.836  0.0470  0.2612  0.0466
23830W        W40014   9.497  10.576   1.093  0.1488 -0.1158 -0.0077
23831W        W40015  10.117   4.186   3.822  0.3905  0.1540  0.1742
23832W        W40016  11.297  10.751   2.881  0.1871  0.1089  0.2429
23833W        W40017   8.380  12.022   0.169  0.2120 -0.0735  0.1096
23834W        W40018  18.046  16.733   3.896 -0.1944  0.0320 -0.2804
23835W        W40019   5.185  10.625   4.886 -0.1180  0.1398  0.1267
23836W        W40020   2.885   6.123  14.991  0.0618 -0.1086  0.2245
23837W        W40021  16.435  11.118   5.501 -0.0519 -0.1088 -0.1531
23838W        W40022   8.561  15.186   4.979 -0.1425  0.0046  0.0508
23839W        W40023   8.541   6.149   4.947 -0.0570  0.1540 -0.0185
23840W        W40024  13.753  15.338   4.594 -0.0031  0.0687  0.0109
23841W        W40025  12.907  12.126   0.775  0.0497  0.0091 -0.1009
23842W        W40026  14.132   8.508  14.054 -0.0832  0.3403 -0.1143
23843W        W40027  16.058   0.350  13.338 -0.3292  0.0501  0.1339
23844W        W40028  14.006   4.390   0.315 -0.0747  0.0935  0.0863
23845W        W40029   1.750   5.692  12.068 -0.1721  0.0974  0.2040
23846W        W40030   4.040  15.493   2.421  0.0467  0.2989  0.0062
23847W        W40031   7.324   7.497   3.261 -0.0387 -0.1660  0.2992
23848W        W40032  18.148   6.966   3.971  0.0838 -0.0185  0.1060
23849W        W40033  10.930  18.663   5.237 -0.1676  0.1430  0.2211
23850W        W40034   0.193   6.971   3.542 -0.3663  0.1322 -0.0214
23851W        W40035  11.287   2.651   3.943 -0.0760 -0.0182 -0.0321
23852W        W40036  11.428  13.080  10.143 -0.0437 -0.1445  0.2541
23853W        W40037   4.627   5.672   4.635 -0.0384  0.0950 -0.0600
23854W        W40038  10.725   2.034  11.899 -0.0273 -0.0917  0.1705
23855W        W40039   2.202  15.895  10.608  0.1011  0.0970  0.3825
23856W        W40040  12.641  18.276   0.533 -0.2059 -0.2044 -0.0961
23857W        W40041  12.952  14.064  14.341 -0.1776  0.0389 -0.1325
23858W        W40042  10.121   2.905   3.655  0.0269 -0.0839 -0.4047
23859W        W40043   8.045  17.410  12.620 -0.0312 -0.0930 -0.0857
23860W        W40044  13.865  12.348  12.982  0.0157 -0.2546  0.2293
23861W        W40045  11.237   3.436  14.101  0.1774 -0.0395 -0.2288
23862W        W40046  13.763  13.416   4.431 -0.1315  0.0624  0.2851
23863W        W40047  14.989   9.772  11.905  0.0631 -0.2485  0.0382
23864W        W40048  16.186   9.035  11.242 -0.0663  0.1469  0.0775
23865W        W40049   1.539   2.093  12.119 -0.0527 -0.2498 -0.0981
23866W        W40050  13.787  14.870   0.361 -0.0914 -0.0507  0.0549
23867W        W40051   5.226  10.238   1.749 -0.0442  0.1055 -0.4448
23868W        W40052  14.120   0.747  12.056 -0.1798 -0.0811  0.0350
23869W        W40053   2.181  10.838   3.730  0.0949  0.1198  0.1030
23870W        W40054   3.720   5.757  13.038  0.1793 -0.1651  0.0470
23871W        W40055   0.077   3.684   2.951  0.1199 -0.1945  0.0470
23872W        W40056  12.502   2.033  12.552  0.0700 -0.0407  0.0717
23873W        W40057  10.592   9.247   4.235 -0.0570 -0.0844  0.4382
23874W        W40058   0.235  13.097   3.462 -0.1547 -0.0307  0.0330
23875W        W40059   4.085  14.236   1.570  0.1762 -0.0806  0.0695
23876W        W40060  14.505   1.178  11.832  0.4524 -0.1374 -0.0923
23877W        W40061  16.194   7.968  11.864 -0.3224  0.1907  0.1914
23878W        W40062  13.124   9.892   0.594 -0.1158 -0.1614  0.2625
23879W        W40063  12.442   7.629   3.806  0.1766  0.2335 -0.0877
23880W        W40064   2.377  11.062   1.261  0.2460  0.0062  0.0923
23881W        W40065   0.207   4.662   3.695 -0.0708  0.0483 -0.1336
23882W        W40066   2.054   1.584  12.611  0.2380  0.0851  0.2561
23883W        W40067  11.520  10.895   2.109 -0.2477  0.2885  0.2125
23884W        W40068  11.796   1.831   0.691 -0.1060  0.1097  0.1663
23885W        W40069  13.825  13.753   3.330  0.0418 -0.1360 -0.3212
23886W        W40070  16.562   7.249   1.419  0.1770 -0.0172  0.1572
23887W        W40071   7.789   3.702  14.999  0.0333  0.1069  0.1113
23888W        W40072   2.220   0.805   3.880 -0.1451 -0.0622  0.1111
23889W        W40073   8.518   6.986   2.525 -0.0708 -0.1300  0.0687
23890W        W40074   0.096   8.302   0.023 -0.1716  0.0560 -0.0306
23891W        W40075   1.026   5.730   0.630 -0.2690 -0.6116  0.2652
23892W        W40076   7.551  14.562   3.759 -0.1602  0.0628  0.0401
23893W        W40077   4.589  10.323  13.950  0.0050  0.1257 -0.1429
23894W        W40078  18.171   5.948   4.418  0.2686  0.1071  0.1909
23895W        W40079   0.197  14.036   0.740 -0.2208  0.0406  0.2976
23896W        W40080  18.698  17.672   4.697 -0.1354 -0.3173 -0.3608
23897W        W40081   7.497   8.146   0.544  0.3026 -0.2725  0.0613
23898W        W40082  12.111  13.861  13.956  0.2104 -0.1350  0.0602
23899W        W40083   5.428   4.066   4.426  0.0754 -0.4151  0.1696
23900W        W40084  15.416  18.424   1.117  0.2899  0.1899 -0.0067
23901W        W40085   9.262  16.883  11.299 -0.2576  0.0787 -0.2647
23902W        W40086  13.207   7.935   3.636  0.0651 -0.0503  0.3146
23903W        W40087   3.160   3.175  14.245 -0.0082  0.1028  0.4492
23904W        W40088   7.276   9.589   4.164 -0.0819  0.1521  0.3123
23905W        W40089   6.702   7.091  12.912 -0.1090 -0.0760  0.0977
23906W        W40090   7.842   3.625   1.186 -0.1976 -0.1370 -0.0871
23907W        W40091   6.623  16.957  15.163 -0.0052 -0.0256  0.1459
23908W        W40092   3.388   3.393  13.855 -0.2721  0.0754 -0.1413
23909W        W40093   9.677   9.693  13.117  0.3064  0.0522  0.0249
23910W        W40094   5.396  10.680   1.520  0.2704  0.0988  0.0966
23911W        W40095   7.054  11.913  13.868 -0.2271 -0.1099 -0.1810
23912W        W40096  16.793   9.630   4.553  0.3461  0.5533 -0.2107
23913W        W40097   6.702  14.180   1.549 -0.0461  0.2872 -0.2227
23914W        W40098   1.018   7.533   3.136 -0.1376  0.2266 -0.0271
23915W        W40099   4.584  11.391  15.138  0.2102 -0.2605 -0.0014
23916W        W40100  16.187   3.837  11.181  0.2022  0.1292  0.0072
23917W        W40101  16.096   3.154  12.972 -0.0300 -0.0451  0.0893
23918W        W40102  11.445  16.040   0.854 -0.2623 -0.3521  0.0261
23919W        W40103   5.233  12.732  13.856 -0.0847 -0.3439  0.3605
23920W        W40104   0.271  17.793  10.494 -0.3432  0.1414 -0.1164
23921W        W40105  11.886   2.053   1.692  0.0583 -0.3814  0.1060
23922W        W40106  12.403  12.372  12.322  0.1729  0.0395  0.1667
23923W        W40107  11.354  17.720  15.112  0.0997  0.2400  0.1962
23924W        W40108  10.463  14.741  11.684  0.2540 -0.0573  0.2566
23925W        W40109   7.766   4.103   1.369  0.1103  0.0959 -0.0223
23926W        W40110   0.074   6.675   4.500  0.0106  0.0501 -0.0189
23927W        W40111   3.723  16.674   5.129 -0.0266 -0.0316  0.1785
23928W        W40112   4.978   3.410   3.178 -0.3377 -0.0545  0.2137
23929W        W40113   0.781  12.840   0.385  0.2276 -0.0754 -0.0769
23930W        W40114  10.148  11.280   9.277 -0.1546 -0.5394 -0.0164
23931W        W40115   4.073   8.133   1.055  0.1527 -0.0447  0.0870
23932W        W40116   1.957   5.706  13.600 -0.3581  0.1182 -0.6228
23933W        W40117   8.233  14.538  15.333 -0.2305 -0.3060  0.0821
23934W        W40118  13.552  13.368   3.451 -0.1825 -0.1135 -0.0576
23935W        W40119  14.663   4.607   1.720 -0.4308 -0.0550  0.0938
23936W        W40120  13.866   3.688  10.939  0.3318  0.2413  0.0056
23937W        W40121  12.219   8.141   5.045 -0.0237 -0.3101  0.0501
23938W        W40122   1.735   2.083  14.848 -0.2421  0.2860 -0.0226
23939W        W40123   2.238  12.983   0.605 -0.0852 -0.5358 -0.4409
23940W        W40124  10.959   2.005   1.953  0.1895  0.1562  0.0522
23941W        W40125   4.547   2.460  12.251 -0.5382  0.2725 -0.2036
23942W        W40126   0.794  14.760   1.439  0.1661  0.0540  0.1454
23943W        W40127  15.325   1.678  11.455  0.0744 -0.1126 -0.0441
23944W        W40128   0.700  17.839   4.004  0.2987  0.0750  0.0389
23945W        W40129   6.813  18.417   2.362 -0.3074 -0.0335  0.0545
23946W        W40130  13.246  15.129  13.491 -0.4330  0.5983 -0.0149
23947W        W40131  11.553   8.510   2.897  0.3538 -0.4358 -0.1066
23948W        W40132  15.187   1.980   1.096  0.0418 -0.2573  0.1637
23949W        W40133   7.994   3.474  10.870 -0.0381 -0.2875 -0.2175
23950W        W40134  12.608   0.486   0.881  0.0090 -0.0549 -0.0413
23951W        W40135   5.388   8.860  14.108  0.0759  0.1082 -0.5241
23952W        W40136   8.575   6.980   0.749  0.1196 -0.0358  0.0197
23953W        W40137   5.704   7.216  11.329 -0.3007  0.0230 -0.0856
23954W        W40138   3.021  18.343   2.929  0.0514  0.2100 -0.1082
23955W        W40139   9.336  13.324   2.565 -0.0574 -0.0709  0.1713
23956W        W40140   6.434   3.998   0.536  0.2424 -0.0207 -0.1659
23957W        W40141  15.983   2.837  13.688  0.1282  0.2027 -0.2895
23958W        W40142  12.140  15.787   5.561 -0.0444 -0.2494  0.2073
23959W        W40143   3.316  10.131   6.101  0.0450  0.0709  0.0171
23960W        W40144   3.680   5.542   1.028 -0.2448 -0.1885  0.0175
23961W        W40145  17.722  10.405   2.552  0.2186  0.2371 -0.0277
23962W        W40146   5.960  18.875  13.079 -0.0235 -0.0326 -0.1630
23963W        W40147   2.003  12.461  11.511 -0.0415  0.1701 -0.2423
23964W        W40148  16.799   3.044  15.216 -0.0686  0.2035 -0.0205
23965W        W40149  11.442   7.221  13.385 -0.0533 -0.4484 -0.0691
23966W        W40150  14.868   4.162   0.622 -0.2837 -0.0158  0.0029
23967W        W40151  12.703   6.176   4.976 -0.0026 -0.1500  0.1475
23968W        W40152  10.833  14.923   3.426 -0.0584 -0.0858  0.3602
23969W        W40153   2.067  16.441  11.060  0.1358  0.1750  0.2158
23970W        W40154   9.934  10.265   0.144 -0.0487 -0.3177 -0.2511
23971W        W40155   4.401  14.359   2.415  0.3028  0.0119 -0.1658
23972W        W40156   1.975   7.700  14.551  0.0095 -0.1266 -0.2276
23973W        W40157  12.539   6.222  11.665  0.0421  0.0136 -0.2692
23974W        W40158  14.273  16.812   3.608  0.2461  0.0098  0.4922
23975W        W40159  13.567  13.415  14.648  0.1493  0.1288  0.0325
23976W        W40160   0.530   5.158  15.357  0.0709 -0.0984 -0.2004
23977W        W40161   7.852  11.403  13.969  0.0655 -0.1773  0.0241
23978W        W40162   9.653   8.525  13.146  0.0841 -0.0449 -0.4526
23979W        W40163   4.527   6.778   1.815  0.1422 -0.1045 -0.2064
23980W        W40164   8.663   7.981  13.317 -0.3683 -0.4120 -0.1313
23981W        W40165  14.971   8.164  13.193  0.2292 -0.1187 -0.0198
23982W        W40166  13.448   0.712  14.519 -0.1640 -0.0136  0.0231
23983W        W40167   8.807  18.422   4.840 -0.0401  0.2960 -0.0338
23984W        W40168  14.567  18.589  14.724 -0.0866  0.1522  0.2621
23985W        W40169  15.033   5.389  12.001 -0.0101  0.1825 -0.1143
23986W        W40170  16.545  17.914   0.387 -0.2388 -0.1930  0.0024
23987W        W40171  13.349  15.189   1.439  0.0479  0.3015 -0.0400
23988W        W40172  11.989  13.923  12.682 -0.0143  0.1092 -0.2547
23989W        W40173  18.120   9.885   3.710  0.0487  0.0186  0.1383
23990W        W40174  16.658  13.038  12.661 -0.0133  0.0602 -0.2094
23991W        W40175   8.742  11.108   2.253 -0.1072 -0.3566  0.0315
23992W        W40176  14.849  18.390  11.514  0.1728 -0.0144  0.3487
23993W        W40177   3.019  16.875   4.624  0.0054 -0.0351 -0.0832
23994W        W40178  17.923  14.114   1.215 -0.0282 -0.0979  0.0785
23995W        W40179   6.563   0.529   3.212 -0.0814  0.2590 -0.2092
23996W        W40180  12.331   8.329   4.049  0.3694 -0.0017 -0.1191
23997W        W40181   9.972  13.497   0.518  0.0238 -0.2090  0.2028
23998W        W40182  16.619   9.968  11.252  0.1264  0.0352 -0.2210
23999W        W40183   1.053  17.072  11.987  0.3656  0.2197 -0.0571
24000W        W40184   5.514   7.529  11.032 -0.1787 -0.1292 -0.1947
24001W        W40185  11.399  16.101   3.920 -0.0856 -0.1239 -0.1006
24002W        W40186  11.607   3.942  14.808  0.0163  0.0852 -0.0247
24003W        W40187  15.624   0.022   0.218  0.0832  0.1437 -0.2647
24004W        W40188  12.026  10.244  13.136  0.0874 -0.2009  0.0620
24005W        W40189   1.330  14.028   5.290  0.0401  0.1003 -0.0163
24006W        W40190  17.052  10.535  13.227 -0.0614  0.0319 -0.0443
24007W        W40191   2.070  18.535   5.721 -0.0226  0.0362  0.1472
24008W        W40192  12.721   3.977  15.005 -0.0535 -0.2516  0.0634
24009W        W40193  13.734   9.938   2.797 -0.2014 -0.1851  0.0156
24010W        W40194  16.686   9.556  14.859 -0.2765 -0.0324 -0.1315
24011W        W40195   7.753  13.564  14.553 -0.2243 -0.1752  0.2687
24012W        W40196   1.322  14.155  10.788 -0.0491 -0.2466  0.0734
24013W        W40197  13.631   7.058  11.698 -0.2298  0.0306  0.1389
24014W        W40198   7.794  11.983   0.922 -0.0679  0.3658  0.0447
24015W        W40199   6.943  17.964  12.956 -0.0478  0.0469 -0.0966
24016W        W40200  17.459  13.642  11.616  0.2636  0.1609  0.1067
24017W        W40201   1.878  13.128  10.712 -0.0391  0.1626  0.0718
24018W        W40202  12.547  16.685   0.658  0.0397 -0.0394  0.1659
24019W        W40203   0.937   0.655  13.645 -0.3695  0.1523 -0.0572
24020W        W40204  14.905   0.550   0.483  0.1036 -0.1720  0.0729
24021W        W40205   2.457   2.020   1.131 -0.1828 -0.3421  0.1829
24022W        W40206  13.758  16.980  13.142 -0.3308 -0.0800 -0.0507
24023W        W40207   0.070  12.685   3.817  0.3213  0.1299 -0.0426
24024W        W40208  10.646  12.487  14.512 -0.0871 -0.0982  0.0567
24025W        W40209   6.948   3.993  12.166 -0.1624  0.0860 -0.1733
24026W        W40210  15.824   2.024  12.084  0.1040 -0.0989  0.0830
24027W        W40211   5.562   2.834  14.187  0.2645 -0.0592 -0.1640
24028W        W40212  11.007   8.638  13.493  0.0448 -0.0781 -0.3828
24029W        W40213   9.084  10.303  13.884 -0.0231  0.0379 -0.0144
24030W        W40214   5.388  12.051   0.493  0.1326 -0.0425  0.3123
24031W        W40215  11.807   4.978   3.513  0.2300  0.1387  0.0436
24032W        W40216   7.396   7.667  11.208 -0.2399  0.0323  0.0340
24033W        W40217  12.122   3.004   4.256 -0.3874  0.0319 -0.3043
24034W        W40218  11.010  13.672  15.176  0.0689  0.1356 -0.1410
24035W        W40219   7.241   7.597  10.729 -0.0766 -0.1965  0.0967
24036W        W40220  15.887   7.145  13.301 -0.1607 -0.0031 -0.0489
24037W        W40221   9.443  12.560   3.214 -0.0076 -0.2136 -0.0378
24038W        W40222  15.464   5.169  14.132 -0.0683  0.1549 -0.2178
24039W        W40223   8.199  12.878  12.942  0.0948 -0.0802 -0.1492
24040W        W40224   7.332  16.787   1.017  0.5397  0.0406  0.1105
24041W        W40225  12.824  14.795   5.578 -0.0182 -0.2216  0.0341
24042W        W40226   3.484  14.759   3.356  0.0589 -0.2447  0.0674
24043W        W40227   8.916  11.236  14.904 -0.2598  0.1845 -0.0549
24044W        W40228   0.587   5.664   9.935  0.1107 -0.0497 -0.3047
24045W        W40229   9.732   0.352   0.472 -0.0598 -0.3371 -0.0697
24046W        W40230  10.152  10.645  14.695  0.1157  0.2355  0.4706
24047W        W40231  15.752  16.723   3.241 -0.3626  0.1655 -0.1662
24048W        W40232  13.502  15.324   0.027  0.0287  0.1929 -0.0850
24049W        W40233  12.300   1.423  14.794  0.1143 -0.0843  0.1734
24050W        W40234   7.169  18.083  12.143  0.1325  0.3280 -0.0496
24051W        W40235   4.515   8.210   2.662  0.1060 -0.0327 -0.1844
24052W        W40236   7.216  15.220   0.635 -0.1245 -0.4481  0.1187
24053W        W40237   5.572  12.259  12.719 -0.3891 -0.0137  0.4645
24054W        W40238  16.956   3.660   2.570  0.2192 -0.3587  0.2873
24055W        W40239  13.037   6.471   0.413  0.1826 -0.0988 -0.0991
24056W        W40240   9.360   9.568   4.479  0.0701 -0.0208  0.2574
24057W        W40241   2.008   3.443   2.559  0.3610 -0.1726 -0.0734
24058W        W40242  16.331  12.993  14.375 -0.0541 -0.4116  0.1377
24059W        W40243   6.870  15.784   3.404  0.0759  0.2289  0.0454
24060W        W40244   9.486  15.715   4.895  0.0399 -0.0248  0.0003
24061W        W40245   7.309  11.491   1.449 -0.0255 -0.0960 -0.0389
24062W        W40246  12.692   7.416   5.188  0.1730 -0.0948  0.0891
24063W        W40247  13.900   6.934   4.085  0.1474  0.1579 -0.0910
24064W        W40248  18.812   4.256   2.479 -0.1075  0.0202 -0.5789
24065W        W40249  14.136   5.656   0.337 -0.0702 -0.0361  0.0214
24066W        W40250   4.626  16.526  12.996 -0.1117 -0.0274  0.1609
24067W        W40251   3.762   1.188   1.801 -0.4949  0.1049 -0.0504
24068W        W40252   2.178   4.040   3.611 -0.2808 -0.0355 -0.2916
24069W        W40253   7.783   5.678   4.545  0.0802 -0.0312  0.1229
24070W        W40254  13.791  16.159   3.413 -0.0638  0.1368 -0.4211
24071W        W40255   1.756   9.136   1.141 -0.0509  0.2313 -0.0531
24072W        W40256  17.508   8.460   1.644  0.1339 -0.0146 -0.0669
24073W        W40257   7.287  14.121   3.859  0.2630 -0.1583  0.1295
24074W        W40258   6.728  16.294   5.297  0.1586  0.0028 -0.0875
24075W        W40259  14.712  10.329  11.831  0.3231  0.0588 -0.0076
24076W        W40260   0.077   4.562  13.786  0.1143 -0.1218 -0.0808
24077W        W40261  15.394   1.067  11.028  0.1493  0.1623 -0.2060
24078W        W40262   4.636   0.187   1.855 -0.3807  0.2124  0.2563
24079W        W40263   3.668  14.180  12.378  0.1576  0.1171  0.1751
24080W        W40264   2.347  17.259  11.764  0.2404 -0.1676  0.0392
24081W        W40265  17.558   6.098   1.181 -0.2279  0.0998  0.0831
24082W        W40266  17.961   3.036  14.322 -0.2011  0.1223 -0.0388
24083W        W40267  10.445   6.084   4.031 -0.0418 -0.1812 -0.1876
24084W        W40268   0.176   5.260   0.716  0.1050  0.1817 -0.1776
24085W        W40269   1.686  11.172   4.947  0.0604 -0.2144  0.2030
24086W        W40270  18.286  11.014   6.048  0.3429  0.2313  0.1600
24087W        W40271   5.466  13.317   0.494 -0.3522 -0.0870  0.2881
24088W        W40272   7.934  12.952  14.392  0.2150 -0.2756  0.0312
24089W        W40273  16.825   5.040   3.161 -0.1727  0.0198 -0.1766
24090W        W40274   0.299   4.151   2.688 -0.0356 -0.3517 -0.0907
24091W        W40275   4.418   3.718  13.445 -0.2020 -0.3108  0.0958
24092W        W40276   8.324   8.987  10.186  0.0209 -0.1310 -0.1695
24093W        W40277   4.387   6.710  10.636 -0.0851  0.0524 -0.2370
24094W        W40278  15.975   3.565   4.259 -0.0769  0.2950  0.2012
24095W        W40279   5.023  13.509   0.408 -0.1754  0.1577 -0.0042
24096W        W40280  15.490  13.304  15.240  0.2498  0.0021 -0.1082
24097W        W40281   1.151  16.976  12.531  0.1134 -0.1465  0.1372
24098W        W40282  15.441  13.105   4.242 -0.3055 -0.0332  0.1507
24099W        W40283   1.566  14.580   2.123  0.5669  0.1577 -0.2754
24100W        W40284   4.101   0.991   4.627 -0.0785 -0.2181 -0.1129
24101W        W40285  17.000  10.486   5.463 -0.0100 -0.2002 -0.0074
24102W        W40286  10.655   2.358   1.130 -0.0081  0.0432 -0.0319
24103W        W40287  16.586  15.809  11.515 -0.1542  0.0694  0.0753
24104W        W40288   2.181   0.954   2.173 -0.3599  0.0108 -0.0054
24105W        W40289   4.653  16.336  11.075  0.2315 -0.0375  0.0417
24106W        W40290   8.801   5.539   0.529 -0.1305 -0.0995  0.0959
24107W        W40291  16.727  18.764  14.962  0.0132  0.0618 -0.0951
24108W        W40292   4.080   4.605   0.727 -0.1040  0.0728  0.2846
24109W        W40293   0.743  10.911   3.572 -0.0672 -0.4718 -0.2821
24110W        W40294   2.695  17.497  13.169  0.0352 -0.0830  0.1793
24111W        W40295  11.088  12.687  12.857 -0.0393  0.3228  0.0711
24112W        W40296  16.828  15.892  11.018 -0.0506 -0.1650 -0.0394
24113W        W40297  18.116  15.947   2.121  0.0805 -0.3397 -0.2236
24114W        W40298   6.088  14.513   4.549  0.0872 -0.1625 -0.0495
24115W        W40299  16.322   0.086   3.136 -0.0123  0.0443  0.1483
24116W        W40300  11.602   7.622   1.076 -0.1906  0.1861  0.0726
24117W        W40301   8.119   9.814   5.006  0.2121  0.2949 -0.2175
24118W        W40302  18.809   2.571  12.242  0.0968 -0.2701 -0.2496
24119W        W40303  18.571   5.766  14.130 -0.1292 -0.0931 -0.2179
24120W        W40304  18.380  18.007  11.792  0.2458 -0.3280  0.0877
24121W        W40305  16.764  16.554  13.744  0.2432 -0.0763 -0.1151
24122W        W40306   1.443   0.998   6.120  0.1226  0.2604  0.1935
24123W        W40307   8.149   3.533   3.036 -0.0923  0.0274  0.1361
24124W        W40308  11.854   1.348  12.629  0.0479 -0.0543 -0.1607
24125W        W40309   4.112  12.163  12.431 -0.0313 -0.0761 -0.2239
24126W        W40310   9.567   5.414   5.290  0.2855 -0.0501 -0.0976
24127W        W40311   8.131  17.304   5.203 -0.1706  0.0492 -0.0158
24128W        W40312   3.994  16.143  14.112 -0.1316 -0.1304 -0.0234
24129W        W40313   0.167   1.510  11.123  0.0913  0.2858  0.0096
24130W        W40314  10.001   3.333   3.860  0.0596 -0.1979  0.2902
24131W        W40315   0.556   0.733   0.409  0.0864 -0.1134  0.0705
24132W        W40316  15.448   4.447  10.346  0.1396 -0.0336  0.0782
24133W        W40317   8.360   3.800  13.202 -0.0143 -0.1096  0.0646
24134W        W40318  16.619   9.835   0.860 -0.1310 -0.0419 -0.1594
24135W        W40319  11.050   8.845   0.141  0.1984 -0.1637  0.0289
24136W        W40320  16.230  18.046   1.468  0.0399 -0.2215  0.0817
24137W        W40321   4.832   9.164   2.978 -0.2545  0.3350  0.3825
24138W        W40322  16.211   7.688  13.737 -0.1616  0.3961 -0.2861
24139W        W40323   7.898   3.287   5.881  0.0855  0.3386  0.1163
24140W        W40324   0.875   6.113   4.204  0.1252  0.1197 -0.1713
24141W        W40325   3.643  12.546   3.186 -0.1288 -0.1017 -0.1173
24142W        W40326  11.086   7.250   0.148  0.0198  0.1464 -0.2443
24143W        W40327  16.462  17.283   4.657 -0.1434  0.1983  0.1748
24144W        W40328  16.270   8.860   0.083 -0.2257 -0.0017 -0.1100
24145W        W40329   4.106  16.630   1.174 -0.0202  0.0859 -0.1417
24146W        W40330  16.447  17.034   0.204 -0.1214  0.0774  0.0340
24147W        W40331   6.518   0.953  11.717 -0.2658  0.0091  0.0283
24148W        W40332  12.303  14.527  14.547 -0.1065  0.2639 -0.0735
24149W        W40333  10.236  13.856   4.093  0.2660 -0.2134  0.2254
24150W        W40334  17.926  11.402   5.201  0.1248  0.0291  0.1243
24151W        W40335  12.707   1.327   5.969 -0.0700  0.4634 -0.2525
24152W        W40336  14.055  18.686   0.912 -0.4359 -0.2220 -0.2144
24153W        W40337   5.789  14.761  11.551 -0.0443 -0.1584  0.1966
24154W        W40338   3.790  13.792  14.185 -0.0203  0.1548  0.1784
24155W        W40339   7.227   9.024   4.257  0.0534 -0.0478  0.0435
24156W        W40340  14.915  16.133  12.598 -0.1721  0.2341  0.3180
24157W        W40341   5.843   2.001  13.671 -0.0352  0.2617 -0.2231
24158W        W40342   8.341   8.386  15.138  0.3539  0.1977 -0.0051
24159W        W40343   5.557  18.702   1.940 -0.1309 -0.0953  0.1936
24160W        W40344  16.869  15.110   2.769 -0.1937  0.2313  0.1807
24161W        W40345   4.372  12.198   0.301 -0.1348  0.0544  0.3369
24162W        W40346  12.605  15.691   3.012 -0.0841 -0.0581  0.1088
24163W        W40347  15.922   9.373   3.069 -0.0208 -0.1090 -0.2074
24164W        W40348   6.975   1.175   4.199 -0.0766  0.2510  0.1426
24165W        W40349  18.582   5.094   0.475  0.0959 -0.1066  0.0049
24166W        W40350   4.294  14.058   2.019 -0.0268  0.1370  0.0148
24167W        W40351  15.750  13.016   3.345 -0.0577  0.2571  0.0044
24168W        W40352  17.339   3.048  13.826  0.0991 -0.1198 -0.1749
24169W        W40353  17.044  15.934  11.453 -0.3919  0.0235 -0.2408
24170W        W40354  11.494  18.142  14.476 -0.1892 -0.3976 -0.2638
24171W        W40355   8.312  12.579   2.044 -0.1911 -0.0356  0.3379
24172W        W40356  17.525  18.418  13.051 -0.0181 -0.2682 -0.1296
24173W        W40357  12.021   8.562   2.050  0.2135 -0.1654  0.1453
24174W        W40358   4.079  10.958   1.277 -0.1843  0.0482  0.4569
24175W        W40359  18.165   9.570  12.507  0.0445  0.1656  0.1264
24176W        W40360  11.858   5.661   3.396  0.3039  0.2087 -0.1997
24177W        W40361   5.784  18.458   4.278 -0.2204 -0.1470 -0.3116
24178W        W40362   9.085   6.348   4.389  0.1562 -0.5058  0.1485
24179W        W40363  14.649   8.694  12.652 -0.2294 -0.1317 -0.0095
24180W        W40364  14.308  13.754   3.442  0.3518  0.1699 -0.1324
24181W        W40365   0.986   2.570  10.862  0.0014  0.0906 -0.1857
24182W        W40366  11.671   6.801  13.163  0.0219  0.1457  0.1242
24183W        W40367   1.337   3.116   9.992  0.1471  0.0027 -0.0560
24184W        W40368  13.123  11.368  11.484 -0.0367 -0.1866 -0.3643
24185W        W40369   1.134  10.176  10.549 -0.1249  0.0887  0.1662
24186W        W40370   6.540  18.787  15.314 -0.2018 -0.0323 -0.2695
24187W        W40371  11.506   7.301  14.786  0.2720 -0.1043  0.1588
24188W        W40372   9.719   3.480  14.594  0.1416  0.2201  0.1467
24189W        W40373  13.709  10.987  10.690  0.4523  0.0762  0.1398
24190W        W40374  14.834   8.350  15.095 -0.0638 -0.0223 -0.1821
24191W        W40375   6.091  13.324   1.828 -0.0485 -0.0065 -0.2221
24192W        W40376   1.821   8.425   1.351  0.1099  0.0457  0.0453
24193W        W40377  14.407   3.638   2.116  0.2258  0.2076 -0.2223
24194W        W40378  15.089   5.136   3.045 -0.0104 -0.1006  0.0523
24195W        W40379   1.000   4.643   4.851  0.4306 -0.0296 -0.0934
24196W        W40380  15.143  13.294   1.658  0.1098 -0.3944 -0.0090
24197W        W40381  18.639   8.991   4.308 -0.1996 -0.0943  0.0004
24198W        W40382  10.093   5.685   2.290  0.0409  0.1977  0.1493
24199W        W40383   6.053  16.267   2.602 -0.0986  0.2275 -0.1554
24200W        W40384   0.639   1.538  14.353  0.2255 -0.3083  0.0236
24201W        W40385   7.569   6.556   2.523  0.1885  0.1028  0.1295
24202W        W40386  14.720  14.838   0.617  0.1052  0.2788 -0.2253
24203W        W40387   4.756   0.703  12.848 -0.0801 -0.1055  0.1669
24204W        W40388   9.854   8.764   3.854  0.0603  0.0589 -0.2942
24205W        W40389  18.085  11.597   1.804  0.0672 -0.0978 -0.2481
24206W        W40390  14.302   7.985  13.870  0.0721 -0.1408 -0.0166
24207W        W40391   3.996   7.748  13.550 -0.2451 -0.2451 -0.0246
24208W        W40392   0.372   3.326  13.658  0.1982 -0.2365 -0.1397
24209W        W40393   4.959  13.414   3.858 -0.0731 -0.3575 -0.1304
24210W        W40394   8.904   1.089   3.520 -0.1349  0.6523 -0.1134
24211W        W40395  12.319   0.748   0.573 -0.1233 -0.0306 -0.1481
24212W        W40396  16.672   5.603   5.603 -0.4410  0.2118 -0.2156
24213W        W40397   3.488   9.923   3.899  0.2115 -0.1146  0.0147
24214W        W40398  16.858   0.979   1.852  0.0182 -0.1177  0.0546
24215W        W40399   3.300   6.107   4.433 -0.1511 -0.0809 -0.0729
24216W        W40400  18.230  13.940  13.118 -0.1257 -0.4757  0.1659
24217W        W40401  10.709   4.546  15.113 -0.0889 -0.0165 -0.1157
24218W        W40402   4.949  11.046   0.227 -0.1495 -0.1922  0.0918
24219W        W40403  11.140   6.032  14.825 -0.0949 -0.1093  0.0307
24220W        W40404   6.261  17.452   5.546 -0.1267 -0.0610  0.0995
24221W        W40405  14.678  10.033  12.663 -0.1642  0.1270 -0.1350
24222W        W40406  13.823  11.073   1.813 -0.1024 -0.1361  0.1134
24223W        W40407  11.672   6.187  12.381  0.2288  0.1339 -0.0568
24224W        W40408  10.513   7.226  14.647 -0.3975 -0.1852 -0.4872
24225W        W40409  18.549  16.368   5.061 -0.1243  0.0479  0.1173
24226W        W40410  12.749  10.191  10.097  0.0701  0.0032  0.0815
24227W        W40411  16.247   6.522  11.929 -0.2998 -0.2047  0.0070
24228W        W40412   4.150   0.020  11.624 -0.0642  0.1377  0.1652
24229W        W40413   3.392   5.411   1.959  0.2153  0.1203  0.2676
24230W        W40414   5.470   3.715  10.645  0.1901 -0.3617 -0.0636
24231W        W40415   2.687   2.240  11.037 -0.1820  0.1272  0.1539
24232W        W40416   4.767   2.858  12.076  0.2587 -0.1559 -0.1265
24233W        W40417   4.445   1.938   1.726  0.0275  0.0995 -0.0315
24234W        W40418   6.677  16.481   1.600 -0.3342  0.2167  0.0190
24235W        W40419  12.004   8.568  10.658 -0.2605 -0.1826 -0.1130
24236W        W40420   9.611   5.304   1.350  0.0307  0.0953  0.0780
24237W        W40421  16.997  17.209  12.190 -0.1807  0.1605 -0.0019
24238W        W40422  10.946  18.387  10.835  0.2050  0.0873 -0.1488
24239W        W40423  18.881  18.668  14.669 -0.1447  0.0696  0.1036
24240W        W40424   9.872   7.348   3.030  0.0826 -0.0101 -0.2543
24241W        W40425  18.002   0.956  15.372 -0.0515  0.2544 -0.2939
24242W        W40426  15.133  10.453   0.062 -0.0577 -0.3466  0.0474
24243W        W40427   7.306  14.822  14.120  0.3885 -0.2224  0.0529
24244W        W40428  16.406   4.402   2.588 -0.1094 -0.1682 -0.1972
24245W        W40429   2.957   6.782  12.465 -0.1665 -0.1615 -0.1592
24246W        W40430   9.609  12.996   4.736 -0.0195 -0.1919 -0.0788
24247W        W40431   9.437   0.961   2.269  0.1324  0.2463 -0.2484
24248W        W40432  11.607  10.602   1.557  0.1050  0.0867 -0.0544
24249W        W40433  14.209  10.394  11.968 -0.1840 -0.0301  0.5880
24250W        W40434   3.054  18.348  11.265  0.0989 -0.1186  0.1793
24251W        W40435   5.850   5.949  14.101  0.0546 -0.0677 -0.0565
24252W        W40436   0.618   5.889   2.442 -0.2014  0.3224 -0.0875
24253W        W40437   7.840  14.030  13.904  0.1240  0.1262 -0.2457
24254W        W40438  11.642   6.742  10.712 -0.1178 -0.0291 -0.0924
24255W        W40439  18.509  11.142  14.645 -0.1898 -0.0102 -0.0130
24256W        W40440   1.110   5.893   2.351 -0.1575 -0.2421  0.3410
24257W        W40441  11.360   6.377  10.983 -0.0091  0.0881 -0.3439
24258W        W40442  13.244   1.221  10.814 -0.1902 -0.0147 -0.0225
24259W        W40443   3.053   2.844   1.708 -0.0710 -0.1512 -0.0032
24260W        W40444  13.904  10.339   4.862 -0.2502 -0.1867 -0.0684
24261W        W40445   6.283   2.174   2.996 -0.2829 -0.0254  0.1418
24262W        W40446   9.004  15.167  10.622  0.0069 -0.3461 -0.0329
24263W        W40447   1.332  15.854   2.001  0.0152  0.1458 -0.0509
24264W        W40448  12.674  17.767   4.660 -0.1001 -0.2277  0.1208
24265W        W40449   5.804   8.977  11.538  0.1508 -0.3989  0.1564
24266W        W40450   9.879  16.968   4.794  0.2129  0.1624  0.0569
24267W        W40451   9.703   3.179   5.372  0.1916  0.0740 -0.0808
24268W        W40452   4.151  15.408  11.675 -0.0566 -0.0239  0.1333
24269W        W40453   6.567   8.250   3.986  0.1152 -0.1038  0.0009
24270W        W40454   8.005  17.947   1.597  0.1110  0.0281 -0.0039
24271W        W40455   4.065  10.810   0.242  0.2016 -0.1363 -0.1127
24272W        W40456   0.609   7.220  12.435 -0.1624  0.1440 -0.3433
24273W        W40457   7.854   2.007   2.310  0.0227 -0.0656 -0.1270
24274W        W40458   3.706   8.464   3.652 -0.0325  0.0658 -0.0435
24275W        W40459  17.838  15.728  11.792 -0.0853  0.1591  0.2598
24276W        W40460   2.477  18.829  12.821  0.2353 -0.0148  0.0955
24277W        W40461  17.887   7.975   2.371  0.0012 -0.1556 -0.0106
24278W        W40462  14.547   9.748   5.902 -0.1860 -0.0301 -0.1365
24279W        W40463   7.416   1.528  14.551 -0.4096 -0.1108  0.1545
24280W        W40464   6.869  13.115  11.117  0.2580 -0.1757 -0.0601
24281W        W40465  15.785   9.742   3.567  0.1050  0.3953 -0.0521
24282W        W40466   7.118   3.996  12.766  0.0649 -0.1376 -0.1717
24283W        W40467   4.294   2.427  10.813  0.1274 -0.0947 -0.2095
24284W        W40468   4.678  18.090   4.862 -0.2920  0.1283 -0.1650
24285W        W40469   9.638  18.744  14.817 -0.2575 -0.0806 -0.0009
24286W        W40470   5.749   8.392  13.343 -0.0731 -0.1926  0.1854
24287W        W40471   2.052   8.075   1.041 -0.1224  0.3400  0.2121
24288W        W40472  16.331   7.478   4.090 -0.1279  0.3881 -0.1787
24289W        W40473   5.320   9.260  11.043 -0.0571  0.0720 -0.1657
24290W        W40474  18.001  11.352  14.751  0.2633 -0.1717 -0.0384
24291W        W40475  18.298  18.231  14.302  0.0414 -0.0943 -0.0299
24292W        W40476  12.981  10.547  11.568  0.0154  0.1111 -0.2040
24293W        W40477  12.866   1.416   3.523 -0.3046  0.3738 -0.3481
24294W        W40478   9.290   8.187  12.801  0.1365 -0.1656  0.1774
24295W        W40479   0.148   1.494  14.543 -0.1451  0.2094  0.1874
24296W        W40480   9.746   7.916   3.986 -0.1404 -0.2107 -0.1658
24297W        W40481   4.190  14.312   4.010  0.0379 -0.1769  0.0871
24298W        W40482   9.199  10.139  15.080 -0.1083 -0.2398  0.0771
24299W        W40483   1.805   2.159   0.439 -0.1289  0.1267 -0.1770
24300W        W40484   3.461  18.637   2.609  0.1091  0.0008 -0.1539
24301W        W40485  15.794  16.521   4.918 -0.1686 -0.0252  0.2107
24302W        W40486  14.523   9.877   3.499  0.1167  0.0876 -0.0857
24303W        W40487  16.820  16.823   3.046 -0.2341  0.2399  0.2261
24304W        W40488   5.518  15.699   1.772 -0.3855  0.2515 -0.0923
24305W        W40489   0.893  11.190  13.085  0.0289  0.0020 -0.0616
24306W        W40490   0.174   0.981  11.155  0.0876 -0.3944  0.3174
24307W        W40491  17.776  11.709  12.331 -0.1871  0.0148  0.0023
24308W        W40492   1.120   5.893  13.999  0.1049 -0.1269  0.1256
24309W        W40493   1.226  12.288  14.966 -0.1453  0.0217 -0.4527
24310W        W40494  18.543  18.101  10.935 -0.1759  0.0738  0.3618
24311W        W40495   0.352  16.197  12.760 -0.0271  0.0256  0.1090
24312W        W40496  11.319  13.620   4.503 -0.0676  0.1166 -0.0634
24313W        W40497  17.142  15.826   1.201  0.1512  0.1752 -0.0131
24314W        W40498  12.839   0.093   1.178 -0.1119  0.4832 -0.1151
24315W        W40499   0.758   6.629  13.029  0.0563 -0.0308 -0.4134
24316W        W40500   9.476   4.886  11.738 -0.1024 -0.1373 -0.0227
24317W        W40501  17.005   3.178  13.311  0.2338 -0.2739 -0.1782
24318W        W40502   6.792  14.066   3.475 -0.1028 -0.0822 -0.1033
24319W        W40503  13.714   6.216  13.634 -0.0050  0.1359 -0.2085
24320W        W40504  11.243  11.898  14.144  0.0437 -0.3082  0.0097
24321W        W40505  16.280  15.055   5.419  0.2239  0.0245 -0.1476
24322W        W40506  12.119   8.325   1.560 -0.1613 -0.0956  0.0397
24323W        W40507   6.004   1.477   4.581 -0.0137 -0.3423  0.3687
24324W        W40508   2.212   4.248  11.765  0.3435 -0.2896  0.0217
24325W        W40509  14.774  10.666   1.016 -0.1115 -0.3203 -0.1703
24326W        W40510  13.269   2.434   4.611  0.0376  0.1131 -0.3144
24327W        W40511  15.847  15.976  15.000 -0.2509 -0.1480  0.0228
24328W        W40512   4.064   4.818  14.903 -0.0196 -0.2414 -0.2251
24329W        W40513   7.321   6.902   1.340 -0.2836  0.2462  0.0357
24330W        W40514  11.574  12.909   1.499  0.1198 -0.0707 -0.2783
24331W        W40515   0.344   2.575   0.126 -0.1368  0.0613 -0.0393
24332W        W40516  18.873   3.456   0.205  0.1336 -0.1802  0.2374
24333W        W40517   1.201   9.361  15.308 -0.0553  0.0416 -0.4409
24334W        W40518   9.661   3.839  14.238 -0.3206 -0.1004  0.2664
24335W        W40519   2.433  13.394  13.456  0.1359 -0.2946 -0.2650
24336W        W40520  16.780   1.336   1.400  0.1719 -0.0072  0.3075
24337W        W40521  11.235   8.295  15.373 -0.0486  0.0072  0.0876
24338W        W40522   2.315   9.995   4.407 -0.0060  0.5390 -0.1253
24339W        W40523   8.868  10.774   4.094  0.3202  0.2127  0.0478
24340W        W40524   1.383  11.682  14.221  0.1765 -0.0785  0.1576
24341W        W40525   6.073   1.122  12.844  0.3275 -0.1829 -0.0364
24342W        W40526   9.932  10.758   1.824 -0.0302 -0.2208  0.2996
24343W        W40527  18.636   1.643  11.146 -0.3570 -0.1251 -0.1226
24344W        W40528   0.902  15.949  15.241  0.0360  0.1615  0.0555
24345W        W40529  16.691   8.067   3.028 -0.0056  0.1435 -0.1766
24346W        W40530  14.496  10.815   3.946 -0.1592 -0.2642 -0.2955
24347W        W40531   3.078   4.589  13.310 -0.1175 -0.0843  0.1012
24348W        W40532  10.254   5.630   0.641 -0.2089  0.0150  0.0132
24349W        W40533   4.942  16.609   1.384 -0.0508  0.1420  0.1044
24350W        W40534  15.093   9.786   0.883  0.0729 -0.1464 -0.0565
24351W        W40535  12.916  16.417  11.292 -0.1926 -0.1255 -0.1227
24352W        W40536   6.114   0.714  11.172 -0.0580  0.2892  0.0041
24353W        W40537   0.317   6.533  13.673  0.2819  0.1844 -0.1769
24354W        W40538  12.399  13.880  13.553  0.1085  0.0257 -0.0926
24355W        W40539   6.281  11.705  12.895 -0.0616  0.2122 -0.1736
24356W        W40540  15.559  11.224  12.963 -0.1030 -0.2926  0.0493
24357W        W40541  12.841  16.166  14.317 -0.2356  0.1031 -0.6126
24358W        W40542   4.957   5.295   4.444 -0.0820 -0.1943 -0.0167
24359W        W40543   1.596   2.859   5.930  0.0031  0.0941  0.1717
24360W        W40544   1.800   8.953   4.371 -0.0827  0.1594  0.1762
24361W        W40545  17.891   3.108   1.901  0.1158  0.0012 -0.0695
24362W        W40546  13.897   7.804   4.683 -0.2286  0.0990  0.2143
24363W        W40547   0.542  15.626  12.508  0.0951 -0.0117  0.2048
24364W        W40548   0.560  12.162   0.139  0.0008 -0.1245 -0.1026
24365W        W40549  15.973  18.518   1.395  0.0404  0.2235 -0.0422
24366W        W40550  18.491   4.263   3.377 -0.1666 -0.2852 -0.0196
24367W        W40551  15.853   7.517  15.219 -0.2263 -0.0825  0.0238
24368W        W40552   2.514  17.577  11.319  0.1183  0.0582 -0.0629
24369W        W40553  11.828   2.670  13.092  0.0109  0.3909 -0.0338
24370W        W40554   0.477  10.489  12.717 -0.0257  0.0931 -0.2022
24371W        W40555  11.403  10.974  14.670 -0.0120  0.2297 -0.0176
24372W        W40556   7.042   5.738   0.351  0.2854  0.2210  0.0804
24373W        W40557   2.771   0.537  15.323 -0.0782  0.0756  0.2177
24374W        W40558  12.914   2.738   0.002 -0.0497 -0.0307 -0.2345
24375W        W40559   1.045  10.612   3.244  0.1461 -0.0333 -0.1537
24376W        W40560   4.890   4.311   0.734  0.0175  0.3002  0.0637
24377W        W40561  17.965   2.482   2.451 -0.0459 -0.1997 -0.1030
24378W        W40562  13.796  12.203   0.596  0.0694 -0.1233  0.2396
24379W        W40563  13.170   9.308   2.034 -0.1468 -0.0415 -0.1591
24380W        W40564  18.847  13.273  11.087  0.1720 -0.2550 -0.0309
24381W        W40565   9.834   2.004   4.139 -0.3357  0.0729 -0.1642
24382W        W40566  11.219  10.411  10.032  0.1194 -0.2408  0.1363
24383W        W40567  14.145   0.973  11.016 -0.1806  0.0376 -0.0207
24384W        W40568   0.492  17.498   0.145  0.2377 -0.0088 -0.2877
24385W        W40569   5.200   3.030   1.915 -0.1698 -0.1209 -0.2004
24386W        W40570   9.695  17.610   1.133 -0.1516  0.2360  0.1797
24387W        W40571  17.414  16.221   3.639 -0.2218 -0.0022 -0.0720
24388W        W40572  15.885   3.790  10.724 -0.1128  0.1147 -0.0099
24389W        W40573   5.877   5.352  10.045 -0.3618 -0.0795 -0.1679
24390W        W40574   4.197   7.433  12.547  0.1446  0.1217  0.2672
24391W        W40575  13.646   5.830  10.811 -0.0866  0.2123  0.2734
24392W        W40576  15.348   1.859   3.361  0.0265 -0.0847 -0.1334
24393W        W40577  17.420   1.237  12.778 -0.1701  0.0723 -0.0248
24394W        W40578   8.301   3.141   2.742  0.1138  0.0402 -0.0451
24395W        W40579   7.275   8.968   2.996 -0.3469  0.2376 -0.1509
24396W        W40580   2.163  17.285   2.973 -0.0740  0.2099  0.1868
24397W        W40581  14.281   7.053  12.746 -0.0275 -0.1098  0.0709
24398W        W40582  17.466  15.628   3.451 -0.0217 -0.2090  0.0854
24399W        W40583  13.696   9.572   1.311 -0.1247 -0.0467  0.0962
24400W        W40584  10.505  17.645   1.813  0.0698  0.0137 -0.1727
24401W        W40585   3.163   9.399   2.216 -0.2133 -0.2705 -0.0682
24402W        W40586   5.008   2.093  11.660  0.1368  0.2797 -0.1667
24403W        W40587  13.399  12.889   0.927  0.1387  0.0977  0.6136
24404W        W40588   9.583   3.351  11.316  0.3174  0.2035 -0.1013
24405W        W40589  15.115   1.626  12.377 -0.1392  0.3777 -0.0695
24406W        W40590  14.235   3.900  12.590 -0.0493 -0.2717 -0.7485
24407W        W40591   7.188   8.503   0.963 -0.0670 -0.2080  0.0170
24408W        W40592  13.035   6.247  13.198 -0.0214  0.1176  0.1064
24409W        W40593   3.364   0.040   1.957  0.0176 -0.0582 -0.2253
24410W        W40594   8.503   1.596   0.519  0.4147  0.2025 -0.1760
24411W        W40595   6.041   0.003   3.903 -0.3346 -0.0339  0.1085
24412W        W40596  13.905   1.033   1.860 -0.3927 -0.1560  0.0788
24413W        W40597  10.209  16.292  13.656  0.0301  0.3301  0.3932
24414W        W40598  10.800   8.152  11.334 -0.0224 -0.0717  0.0317
24415W        W40599  13.165   2.794   4.923  0.2319 -0.1099 -0.1439
24416W        W40600  16.066  14.131   1.532 -0.1301 -0.1192  0.0966
24417W        W40601   7.231   8.385   4.569 -0.2708 -0.3306  0.2888
24418W        W40602   0.142  14.465  12.230  0.0039 -0.0739  0.0859
24419W        W40603   7.990  13.658  11.490 -0.1906 -0.2977 -0.1592
24420W        W40604   1.153   0.629   1.349  0.1113  0.2463  0.1189
24421W        W40605  16.461  14.525   2.905  0.1783  0.1435  0.1071
24422W        W40606  12.249  14.332  13.707 -0.2584  0.3237 -0.2102
24423W        W40607  12.300  14.183   3.579  0.0357 -0.0077  0.0484
24424W        W40608   5.394  15.890   1.062 -0.1504 -0.2449  0.1808
24425W        W40609  14.183   5.065  10.719 -0.2173 -0.2021 -0.0068
24426W        W40610  16.102  10.078  11.449 -0.2482 -0.1284 -0.2027
24427W        W40611   0.002   4.771  11.854  0.3437  0.2662 -0.1128
24428W        W40612  14.295  16.862   1.735 -0.2311  0.0255 -0.1041
24429W        W40613  14.988   7.470  11.028  0.1254 -0.0827  0.0593
24430W        W40614   7.002   6.275   3.506 -0.1308 -0.2674 -0.2049
24431W        W40615   4.408   5.458  14.380  0.2086 -0.3531 -0.0763
24432W        W40616   7.571   7.323   5.036 -0.0250 -0.0431 -0.1125
24433W        W40617  14.193  17.260  12.233  0.1552  0.1014 -0.0041
24434W        W40618   1.469  17.756   4.646 -0.1857  0.2934 -0.1284
24435W        W40619   4.493   9.507   5.712  0.1616  0.3181 -0.1770
24436W        W40620  17.861   5.380  12.348 -0.1037 -0.0373  0.0196
24437W        W40621   4.075   3.675  12.902  0.1876 -0.2160 -0.0861
24438W        W40622   1.091   8.504  12.323 -0.1449 -0.1716 -0.2328
24439W        W40623   3.358   4.450  14.564 -0.0603 -0.1116 -0.1212
24440W        W40624   1.262  10.978   0.361 -0.0181  0.0956 -0.2195
24441W        W40625   5.486  14.213  12.172  0.0701 -0.3390  0.1696
24442W        W40626   9.560   3.530  13.125  0.0581 -0.0891  0.1333
24443W        W40627   3.952  14.315   1.049  0.0126 -0.0356  0.0035
24444W        W40628  11.378   3.784   3.509  0.2441 -0.1809 -0.1584
24445W        W40629   3.926   5.353   2.788 -0.1004 -0.1263  0.4208
24446W        W40630   9.269   5.862   2.218  0.0990 -0.0330  0.2791
24447W        W40631   8.261  15.885  14.736  0.1070 -0.0690  0.1113
24448W        W40632   0.480  11.811   3.338 -0.3604  0.0963 -0.0176
24449W        W40633  16.817   3.006  13.844 -0.0904 -0.0868  0.1826
24450W        W40634   7.958  16.247   1.175  0.2407  0.1732 -0.1895
24451W        W40635  17.097   0.336   1.057 -0.0243  0.0179 -0.0754
24452W        W40636  14.887   1.930   4.946 -0.2199  0.4016  0.3083
24453W        W40637  18.410   5.567  11.050  0.0754  0.1741 -0.0822
24454W        W40638   5.069   6.415   2.983  0.2199 -0.4361 -0.2407
24455W        W40639   2.240   4.470   4.328 -0.2040  0.1863  0.0519
24456W        W40640  15.402  11.126  11.206  0.1710  0.2689  0.2261
24457W        W40641  16.902   9.784  11.618  0.3152 -0.1020 -0.1169
24458W        W40642  10.825  11.579   2.482  0.0724 -0.3278  0.2707
24459W        W40643   4.886  12.398  12.629  0.0198  0.2249  0.0712
24460W        W40644  14.602   2.189   1.671 -0.0524  0.0097 -0.0938
24461W        W40645   3.109   0.021   0.149  0.0792 -0.2073 -0.4167
24462W        W40646   8.282   5.457  15.295  0.1456 -0.2080 -0.2934
24463W        W40647   3.405  17.393  12.301  0.0495  0.0410  0.0761
24464W        W40648  18.777   7.213   0.021  0.4105 -0.1140 -0.0576
24465W        W40649  13.657   8.428  10.988  0.1732  0.1097 -0.0716
24466W        W40650  16.194   0.809  14.630 -0.0518 -0.0785  0.2904
24467W        W40651   6.472  12.053  11.857  0.1049 -0.0138 -0.2749
24468W        W40652   5.125  15.286  12.675  0.0471  0.1787 -0.2050
24469W        W40653  10.891  18.387   0.898  0.2173 -0.0080 -0.0224
24470W        W40654  13.612   3.485  14.235  0.1252 -0.0844  0.0461
24471W        W40655   8.097   8.181  12.571 -0.2554  0.2717 -0.0813
24472W        W40656   2.368  16.532   3.285 -0.1455 -0.1192  0.2251
24473W        W40657   8.357  15.881   4.335  0.2315  0.1524  0.0502
24474W        W40658  11.824   7.142   2.969  0.0411  0.3214  0.0505
24475W        W40659   4.119   4.257  11.023 -0.0332 -0.1259 -0.0314
24476W        W40660   7.513  13.815   2.319  0.0647 -0.0885  0.1484
24477W        W40661  17.854   9.404  13.707  0.1116  0.0437 -0.0734
24478W        W40662  12.755   5.547   4.167 -0.1762 -0.0567  0.0475
24479W        W40663  12.724   9.491   0.955  0.0930 -0.1521 -0.0519
24480W        W40664   5.833  15.320   4.259  0.0397  0.2230 -0.0918
24481W        W40665  17.719   8.406  12.762 -0.1164  0.1845  0.1328
24482W        W40666   6.994   7.556  13.499 -0.2358  0.1700 -0.0070
24483W        W40667  15.790  17.922  10.111 -0.0620 -0.2403 -0.1122
24484W        W40668  14.182   5.853  15.262  0.2417  0.1005  0.1317
24485W        W40669  12.784  16.677  14.133  0.0015  0.2515 -0.2715
24486W        W40670   0.298   4.497   3.095  0.0090 -0.1640  0.1994
24487W        W40671   8.895   3.752  11.951 -0.0091  0.3562 -0.1433
24488W        W40672   0.307   8.749  14.429 -0.1085 -0.0770  0.1982
24489W        W40673   4.260   2.560   4.357 -0.2233  0.2341 -0.5311
24490W        W40674  13.948   2.090  15.134  0.2446 -0.1281 -0.4606
24491W        W40675  15.283  12.924   4.715 -0.1091 -0.0544 -0.3849
24492W        W40676  11.361  18.772  12.550  0.0932 -0.1515  0.2762
24493W        W40677   6.433   8.086  15.190 -0.1641  0.1729 -0.2063
24494W        W40678  11.374   0.472  13.885 -0.3874  0.1605 -0.1485
24495W        W40679  13.085   6.686  14.782  0.4805  0.1160  0.2326
24496W        W40680  15.287  15.451  11.290  0.0152  0.0527  0.0615
24497W        W40681   7.536   0.617   5.229 -0.1087 -0.0677 -0.1572
24498W        W40682  13.397  17.254  10.908 -0.2760  0.1005  0.0588
24499W        W40683   1.725  12.452   4.700  0.0479 -0.2435  0.1671
24500W        W40684  13.375   5.170  12.409 -0.1643 -0.0660  0.2764
24501W        W40685   4.159   5.023   0.927  0.0510  0.0451 -0.0958
24502W        W40686   2.769  18.474  12.095 -0.1887  0.1883  0.2293
24503W        W40687  14.348   0.013  11.237  0.2992  0.2767  0.1381
24504W        W40688   8.074   8.536   4.306  0.1399 -0.2063 -0.0556
24505W        W40689  12.814  18.641   0.913  0.0041 -0.2804 -0.1636
24506W        W40690  18.395   6.206   3.197 -0.3578  0.1667  0.0882
24507W        W40691   7.143  18.546   0.425  0.2973 -0.0332  0.2149
24508W        W40692  13.839   9.671  11.526  0.0056 -0.2576 -0.1564
24509W        W40693   7.928  11.049  13.518  0.1841  0.0171 -0.5462
24510W        W40694   2.770   1.105  13.131  0.1879  0.1280  0.1728
24511W        W40695   7.326  16.354  12.295  0.1452  0.0001 -0.2951
24512W        W40696   1.445  16.289   3.237  0.1296  0.2603 -0.3042
24513W        W40697  17.004  15.999   5.978 -0.0696 -0.0885  0.0363
24514W        W40698   2.715   8.004   0.762 -0.2251 -0.0666  0.0390
24515W        W40699  16.332  17.688  14.236 -0.3551 -0.1335  0.0108
24516W        W40700   6.960  14.621  10.815 -0.0575 -0.0923 -0.0179
24517W        W40701  17.935  12.180   1.508  0.0704  0.2432  0.1032
24518W        W40702  13.844  11.502   5.132 -0.1582 -0.0385 -0.0637
24519W        W40703   4.630  16.493  14.786  0.4203  0.0803 -0.2981
24520W        W40704  14.204   7.238   4.322  0.2432 -0.1700  0.0658
24521W        W40705  18.862  10.994  15.166 -0.0546 -0.4025 -0.2930
24522W        W40706   5.781   3.822   2.255  0.0124  0.2661 -0.0204
24523W        W40707  15.240   0.720   0.900  0.1994  0.0249 -0.1650
24524W        W40708  11.968   0.506   3.536 -0.0893  0.1313  0.3361
24525W        W40709   1.929  11.909   3.142 -0.2303  0.1607  0.1532
24526W        W40710  18.558  17.624   3.834 -0.1351  0.0863 -0.2248
24527W        W40711  16.616   1.169   2.251  0.1743 -0.1860 -0.1260
24528W        W40712  17.955  17.884   1.742 -0.5478  0.1922  0.2461
24529W        W40713   8.029   0.967  11.655 -0.3498 -0.1240  0.1999
24530W        W40714   4.719  10.152   2.952  0.4023  0.0296 -0.0168
24531W        W40715  12.623   6.562   3.078  0.0121  0.2180  0.0316
24532W        W40716   6.649  15.720  12.105  0.1133 -0.0832  0.0478
24533W        W40717   1.373  15.788  13.622 -0.2691  0.1850 -0.1967
24534W        W40718   2.301  16.543  12.845  0.0726 -0.0390  0.1690
24535W        W40719  17.912  14.640  14.937  0.0919 -0.0613  0.4137
24536W        W40720   1.141   0.668  12.715  0.4531 -0.0446 -0.3450
24537W        W40721  17.668  18.116  14.926  0.1609 -0.1954 -0.0501
24538W        W40722  18.741  14.050  10.637  0.1850  0.0184 -0.2272
24539W        W40723   8.738   9.171  11.626 -0.2144 -0.0874  0.4325
24540W        W40724   4.992  16.161   2.474  0.0267 -0.0278 -0.0323
24541W        W40725   0.005  15.152   1.533  0.2733 -0.2732  0.1006
24542W        W40726  15.283  18.329   1.798  0.1609  0.1582 -0.1011
24543W        W40727  10.468   1.413  10.980  0.0169 -0.1244 -0.1573
24544W        W40728  12.121  17.941   4.555  0.0285 -0.1642 -0.0769
24545W        W40729   3.207  14.033   3.884  0.2299  0.1123  0.0346
24546W        W40730  12.082   9.700   3.462 -0.0549 -0.1600 -0.1029
24547W        W40731   6.428  18.727  10.828  0.0199 -0.0366 -0.1242
24548W        W40732   5.905   2.978   4.701 -0.2429  0.3358  0.2703
24549W        W40733   7.507   7.748   1.561 -0.1308 -0.1713 -0.0181
24550W        W40734  11.421  18.662  11.581 -0.0114 -0.0441  0.0224
24551W        W40735  12.060   3.235  14.088  0.1722 -0.0017 -0.1418
24552W        W40736  18.873  10.616   1.079  0.2477 -0.0972 -0.0387
24553W        W40737   0.849  15.534  12.007  0.1488 -0.2153 -0.1836
24554W        W40738  14.404   2.371  15.260  0.0777 -0.0093  0.0817
24555W        W40739  10.064  14.823   0.459 -0.0593 -0.0172  0.1280
24556W        W40740  11.299   2.710   1.799 -0.2950 -0.1415  0.2603
24557W        W40741   5.838   6.153   3.296 -0.1080  0.1969 -0.1615
24558W        W40742  18.690  16.329   5.619  0.1220  0.1873 -0.2175
24559W        W40743  12.339   4.624   2.278  0.0513  0.3391  0.1217
24560W        W40744  10.973  14.999   0.104 -0.1112  0.1745 -0.2120
24561W        W40745  14.295   5.028   1.110  0.4949 -0.0295 -0.0891
24562W        W40746  10.024  12.207   2.472  0.0466 -0.0296 -0.0104
24563W        W40747   8.696  16.410   5.003 -0.0034 -0.2104  0.0830
24564W        W40748   5.840  14.617  14.652  0.1750  0.0160  0.0784
24565W        W40749  10.129  18.940  10.230 -0.0731  0.1823  0.1244
24566W        W40750  14.543  16.621   1.112  0.2614  0.2911 -0.3396
24567W        W40751   0.876  13.669   2.610  0.4079  0.2363 -0.1918
24568W        W40752   9.390  11.050   0.270  0.1937 -0.0424  0.0086
24569W        W40753   1.420   5.200   4.153 -0.0097  0.0740  0.0473
24570W        W40754  17.800  15.995   3.426 -0.2282  0.0415 -0.0816
24571W        W40755  17.122   3.932   1.241  0.0191 -0.3906  0.0434
24572W        W40756   2.369   2.418  12.977 -0.5293  0.2837  0.0840
24573W        W40757  11.011   6.149  10.048  0.2339 -0.0336  0.0410
24574W        W40758   4.816   8.492  12.052  0.1386  0.3020  0.4476
24575W        W40759   8.528  16.569  12.008  0.1521  0.1848 -0.0812
24576W        W40760   9.750  17.566  11.773  0.0539  0.0976 -0.1446
24577W        W40761  15.719   7.898  14.068  0.2372 -0.1218 -0.1457
24578W        W40762   4.289   2.935   1.984  0.2095 -0.2439  0.2207
24579W        W40763  10.731   1.020  14.495 -0.0891  0.3112  0.4173
24580W        W40764  12.859  10.345   4.252 -0.0535 -0.2043 -0.0953
24581W        W40765  13.029   3.288  14.855  0.5754  0.2403  0.1481
24582W        W40766  13.912   3.934   2.095 -0.0449  0.0195  0.0309
24583W        W40767  13.192  13.757  12.988 -0.0955 -0.0564 -0.0263
24584W        W40768   4.944  12.208  14.366 -0.2755  0.1029 -0.0096
24585W        W40769  13.874  13.581  11.864  0.1710  0.1796  0.0390
24586W        W40770  12.364  13.801   2.166  0.0815 -0.2068  0.0402
24587W        W40771  13.058   3.454  11.429  0.2941 -0.0587 -0.1008
24588W        W40772  12.567   1.745  12.975 -0.1200 -0.1506 -0.1162
24589W        W40773   5.142  17.599  10.335  0.1564  0.0993  0.2267
24590W        W40774   2.858  14.252   2.512 -0.0947  0.1720 -0.0003
24591W        W40775  12.162   2.359   1.348  0.1518 -0.0931  0.1298
24592W        W40776  17.211   5.723   0.529 -0.2370  0.4563  0.1782
24593W        W40777   0.225   4.660  14.271  0.1817  0.0644  0.0974
24594W        W40778   4.919  15.682  11.298  0.0747 -0.1314  0.1231
24595W        W40779   0.480  10.271  13.404 -0.0355  0.0173 -0.0684
24596W        W40780  16.155   0.303  14.060  0.0957  0.1952  0.2081
24597W        W40781  15.482   7.374   0.159 -0.0689 -0.4645  0.1273
24598W        W40782   0.977   9.467  14.777  0.0565  0.4302  0.2291
24599W        W40783   1.697  12.559  13.079 -0.4072  0.6687 -0.0462
24600W        W40784  11.807   3.362   5.084  0.0353 -0.1831 -0.1088
24601W        W40785   6.061   5.727   0.196  0.3349 -0.0067 -0.0946
24602W        W40786   5.931  10.187  14.431 -0.1155 -0.0637 -0.0934
24603W        W40787  11.577   9.041   1.170  0.1943 -0.1485 -0.1045
24604W        W40788   5.870   8.557   5.272  0.1248  0.1120  0.0558
24605W        W40789   4.828   0.914  14.060 -0.2534 -0.0968  0.1025
24606W        W40790   8.084   3.976   4.056 -0.2652  0.1529  0.3597
24607W        W40791   0.930  18.708  11.815  0.2400 -0.3440 -0.5343
24608W        W40792   1.946   1.633  15.161  0.2776 -0.2529  0.0013
24609W        W40793  11.060   2.665  13.081 -0.1766  0.0502  0.0302
24610W        W40794  11.761  12.998   2.474 -0.0775 -0.0052 -0.0351
24611W        W40795   3.852  12.347  10.966 -0.1256 -0.0022 -0.0663
24612W        W40796   3.259  16.292  13.786  0.1417  0.1293 -0.0134
24613W        W40797   8.747   6.812   2.972 -0.1579 -0.1778 -0.2067
24614W        W40798  10.049   7.301   0.159 -0.0757 -0.0296 -0.1487
24615W        W40799   1.959   5.493   1.808 -0.0258  0.1216 -0.1391
24616W        W40800  15.941  12.352  13.124 -0.0441 -0.0070  0.2346
24617W        W40801   2.460   5.966   2.385  0.0440 -0.0787  0.2415
24618W        W40802  15.105  18.659   1.464 -0.4113  0.1234  0.2876
24619W        W40803   9.293  10.961   3.362 -0.2217 -0.0420  0.0452
24620W        W40804   0.288  14.808   2.891  0.0142 -0.2982  0.1302
24621W        W40805   2.624  16.397  14.777 -0.3661  0.0544  0.1796
24622W        W40806   3.430   3.954   2.542  0.1532 -0.0383 -0.1355
24623W        W40807   4.207   6.322   4.374  0.0173 -0.1212  0.0598
24624W        W40808   6.294   7.987  12.707  0.0716  0.1020 -0.1732
24625W        W40809  14.809   3.464   4.665  0.1170 -0.0995 -0.0971
24626W        W40810  18.294   2.074   0.370 -0.0111 -0.0566 -0.1875
24627W        W40811   7.583   1.687  12.952  0.0235 -0.2594 -0.0123
24628W        W40812   5.280   7.551  11.456 -0.0439 -0.1106 -0.1855
24629W        W40813   2.011  18.081   1.616 -0.0372  0.2019 -0.0187
24630W        W40814  15.021   6.538  12.331  0.1081 -0.2003  0.2094
24631W        W40815   2.849  14.762   4.586  0.0128  0.2946  0.1940
24632W        W40816  10.973   7.563   1.779 -0.0262  0.0241 -0.1838
24633W        W40817  14.294   2.412   1.301 -0.3306  0.0333  0.0886
24634W        W40818   4.187  13.658   0.780 -0.3140  0.0771  0.0877
24635W        W40819   1.744  13.643   2.203 -0.0658  0.1582  0.1286
24636W        W40820  10.336   6.256  14.282 -0.0082  0.0896  0.4304
24637W        W40821   8.503   5.505  14.227 -0.0777  0.1348  0.0322
24638W        W40822  14.176   9.401   1.591  0.0644 -0.1233 -0.3856
24639W        W40823  16.254  18.002   1.979  0.0774 -0.0267  0.0665
24640W        W40824   5.231  18.384  12.205 -0.1528 -0.2197 -0.1941
24641W        W40825   9.086  12.417  11.081  0.2261 -0.2834 -0.0994
24642W        W40826   7.136   1.445  12.423 -0.1304 -0.1886  0.1053
24643W        W40827  17.590   8.288   1.171  0.2948 -0.0055  0.2758
24644W        W40828  15.977   9.734  13.523  0.0441 -0.0323 -0.1399
24645W        W40829   7.783  18.982  10.718 -0.0919 -0.3006 -0.1583
24646W        W40830   2.735  15.721  14.219  0.0149 -0.2605 -0.0316
24647W        W40831   5.940  16.797  11.903 -0.2048  0.1879 -0.2588
24648W        W40832  15.592   1.837   3.872 -0.0525 -0.0026 -0.0721
24649W        W40833  17.025  13.389  11.826  0.3592 -0.0707  0.0351
24650W        W40834  16.596  16.609   1.078 -0.0646  0.0061 -0.3220
24651W        W40835  18.954  15.609  13.787 -0.0640  0.1389  0.0828
24652W        W40836   0.264   5.168  14.125  0.1936  0.0909  0.0463
24653W        W40837  11.964  17.178  15.350 -0.3178 -0.2301 -0.1039
24654W        W40838  14.102   7.911  12.416  0.0671 -0.3339 -0.0460
24655W        W40839  12.599  12.614   1.565 -0.4033 -0.1297  0.0753
24656W        W40840   3.310  16.513  12.692 -0.2026  0.1852  0.0118
24657W        W40841  11.100  13.422   1.090  0.1296  0.1713  0.0088
24658W        W40842  14.339   5.928   6.196 -0.1710 -0.0660  0.1441
24659W        W40843  14.779   0.117   4.485  0.2016  0.0296 -0.4913
24660W        W40844   4.548  15.655   1.887  0.2406  0.2338  0.0712
24661W        W40845  14.133   6.628   1.838  0.0278 -0.3004 -0.3438
24662W        W40846   1.588  18.954   1.686 -0.2429  0.1970  0.6103
24663W        W40847  12.324  10.503  15.273  0.1162  0.0107  0.4510
24664W        W40848  13.430   1.254   4.145  0.1640 -0.4243 -0.2258
24665W        W40849   6.479  14.910   3.680 -0.0358 -0.1830 -0.0672
24666W        W40850   6.756   5.890  12.482 -0.0139  0.1589 -0.1079
24667W        W40851  11.689   1.963   4.728 -0.1855 -0.0624  0.1916
24668W        W40852   3.243  12.904   5.899 -0.1688  0.3448 -0.4823
24669W        W40853   9.153   9.042  12.026 -0.1174  0.2601 -0.1471
24670W        W40854  15.432   4.299   1.592 -0.0234 -0.0206  0.0881
24671W        W40855   0.052   9.737   1.216  0.1096 -0.0022  0.2923
24672W        W40856  13.049  17.462  14.636 -0.0447 -0.2262 -0.4064
24673W        W40857   0.720   9.370   3.094 -0.2056 -0.2281  0.1055
24674W        W40858   7.532   2.185  11.791 -0.2690  0.2309  0.0895
24675W        W40859  18.882   0.629   3.769  0.0163  0.0731 -0.5666
24676W        W40860  12.534  17.000  10.714  0.2724  0.0308  0.1184
24677W        W40861   6.356  16.028  13.125  0.3753  0.2416 -0.0026
24678W        W40862   1.058   1.339   3.677 -0.0798  0.0931  0.0339
24679W        W40863   2.003  15.046  11.367  0.0227 -0.2675 -0.1055
24680W        W40864  11.985  12.944  15.356  0.1649 -0.1136  0.0120
24681W        W40865   2.451  16.224  14.260  0.0682  0.3475  0.1739
24682W        W40866  10.115  11.674   1.336 -0.0235 -0.1329 -0.1463
24683W        W40867  15.896  14.155  11.377  0.0001 -0.0079  0.0528
24684W        W40868  13.532   3.925  12.859 -0.0988 -0.2666  0.1360
24685W        W40869  10.159   5.734   3.510 -0.0442  0.0480  0.0673
24686W        W40870  18.624  14.317   3.690 -0.2649 -0.0456 -0.0154
24687W        W40871   5.907   7.086   3.828 -0.3113 -0.3775  0.0792
24688W        W40872  16.976   2.263  13.730  0.1979 -0.2841 -0.3335
24689W        W40873   9.630   1.172  13.513  0.2398 -0.1157  0.1745
24690W        W40874   6.190   0.861   1.820 -0.0511  0.0324 -0.1554
24691W        W40875  14.064  11.739   2.232 -0.1885 -0.1742  0.1780
24692W        W40876  12.944  10.104  11.354  0.0306 -0.0608 -0.1200
24693W        W40877   6.098   4.609   1.840 -0.5667  0.1629 -0.5440
24694W        W40878  17.022   7.344   3.488 -0.0834 -0.2121  0.0649
24695W        W40879  17.241   0.547   4.104  0.0657 -0.0053  0.1915
24696W        W40880  10.945  12.213  14.830  0.0414 -0.2572 -0.3884
24697W        W40881  14.654  18.343  10.637  0.0474  0.0127  0.1266
24698W        W40882  16.641  16.350   3.229  0.0109 -0.3114 -0.1706
24699W        W40883   0.164  18.890   3.115  0.0285 -0.1221  0.0474
24700W        W40884   2.562   5.096  12.962  0.0762  0.0204 -0.0450
24701W        W40885  13.728   5.655   2.780  0.0004  0.1254  0.1185
24702W        W40886  16.741   5.896  14.017 -0.1257  0.2424  0.6626
24703W        W40887   9.238   8.906   9.932 -0.0401  0.0699 -0.0257
24704W        W40888   2.062   4.228   3.102 -0.1894  0.0645 -0.0016
24705W        W40889   3.931  12.123   4.341  0.1392  0.0273 -0.1204
24706W        W40890  16.738  15.353  11.002  0.2543 -0.0789 -0.4589
24707W        W40891   5.453  16.626  11.806  0.0035  0.1473  0.8426
24708W        W40892  11.211  12.420  13.355 -0.0806  0.2893  0.2469
24709W        W40893   6.361   8.267   3.533  0.1723  0.1923  0.0787
24710W        W40894   3.049   6.819   4.243 -0.2283  0.1257 -0.3215
24711W        W40895   9.527   6.178   0.801 -0.2148 -0.1776 -0.1922
24712W        W40896   7.228   2.031  13.000  0.1959  0.3366  0.2225
24713W        W40897   4.634   6.308  13.357 -0.0707 -0.0987 -0.1655
24714W        W40898  14.347   0.038   4.115 -0.0950 -0.5224 -0.1587
24715W        W40899  13.209  11.902   4.269 -0.0703 -0.0902 -0.0394
24716W        W40900   2.678   1.947  15.368 -0.0628 -0.0998 -0.2822
24717W        W40901   2.258   9.221  11.074 -0.1568  0.2266 -0.0788
24718W        W40902  16.574  18.919  11.528  0.1907 -0.0117  0.1073
24719W        W40903  14.104  16.099   4.215  0.2009 -0.0802  0.0754
24720W        W40904  13.292   5.231   0.750 -0.3299 -0.0851  0.3210
24721W        W40905   5.740   2.730   1.824 -0.0031 -0.0135 -0.0581
24722W        W40906   3.240   6.775   1.514  0.0969  0.0868  0.0805
24723W        W40907  13.413   5.825  12.789  0.2251 -0.0393  0.3881
24724W        W40908   9.288  15.322  13.536  0.0287 -0.3497  0.0393
24725W        W40909   4.425   7.256   5.751  0.2710 -0.0387 -0.1372
24726W        W40910  17.977   2.058   4.051 -0.1266 -0.1565 -0.0695
24727W        W40911   3.203  14.660   2.914  0.1978  0.2371 -0.1414
24728W        W40912  13.613   7.824  12.514  0.0356 -0.0703 -0.2083
24729W        W40913  12.358  15.162  12.232  0.0507 -0.2433  0.1607
24730W        W40914   8.597   5.349  11.475  0.0175  0.3442 -0.2135
24731W        W40915  12.739   6.288  14.794  0.0460  0.0572 -0.4258
24732W        W40916  17.985   1.122  12.563  0.2446  0.1402  0.1140
24733W        W40917  16.509   3.635   0.791 -0.0850  0.2203  0.0060
24734W        W40918   1.200   4.778   4.393 -0.1047 -0.4785 -0.0136
24735W        W40919  16.972   8.852   5.299  0.1005 -0.1839  0.1425
24736W        W40920   9.872   8.383   5.290  0.0739  0.1682 -0.1005
24737W        W40921   2.452  17.948   0.660 -0.1748 -0.3076  0.1861
24738W        W40922  17.016   6.369   3.957 -0.2161  0.2261 -0.2014
24739W        W40923  16.012  17.633   5.502  0.0722 -0.4100 -0.1930
24740W        W40924  12.143  16.463   0.465  0.4051 -0.1012 -0.1144
24741W        W40925   2.199  13.939   2.030  0.0737  0.4276 -0.1983
24742W        W40926   1.077  12.868   3.721 -0.2793  0.3029 -0.1594
24743W        W40927  12.495   3.702   4.646  0.0523 -0.1292 -0.0773
24744W        W40928  16.156   7.741   3.109  0.2743  0.1474  0.1946
24745W        W40929   0.917  17.585  11.102  0.3445 -0.2229  0.0655
24746W        W40930  15.772   0.189  12.881  0.2410  0.2204  0.2288
24747W        W40931   3.635  15.501  14.981 -0.0524  0.0295 -0.0076
24748W        W40932   9.037  13.369  13.929 -0.1231 -0.1391  0.1888
24749W        W40933  18.318  13.446  11.113 -0.1219  0.0856  0.1073
24750W        W40934   7.267   7.183  14.270 -0.0141 -0.4477 -0.2069
24751W        W40935   5.637   5.295   2.205  0.0539  0.0820 -0.1738
24752W        W40936  10.807   8.962  14.134 -0.0276 -0.2216 -0.3923
24753W        W40937   1.101  14.089  10.235 -0.0875 -0.0845 -0.0980
24754W        W40938   7.537   6.744  14.069 -0.2987  0.0293 -0.3842
24755W        W40939  13.861  12.227  13.817 -0.0283 -0.2073 -0.1565
24756W        W40940  10.060   3.198  14.786  0.0564  0.2598 -0.0919
24757W        W40941   0.169  17.087   1.587  0.4191 -0.1567  0.2105
24758W        W40942   1.126  11.483   2.229  0.1272  0.2287 -0.4248
24759W        W40943  11.554   4.659  10.627  0.1035  0.1570  0.1238
24760W        W40944   4.898   8.594  11.536 -0.0607  0.1106 -0.0774
24761W        W40945  14.988  15.047  11.527  0.2184  0.0226 -0.0348
24762W        W40946  15.912   5.557  13.412  0.0582 -0.4144 -0.0565
24763W        W40947   9.617   7.565  13.318 -0.2489  0.0786 -0.1307
24764W        W40948  14.060  17.804  13.231 -0.3554 -0.2046 -0.0372
24765W        W40949  18.025  14.796  10.110 -0.2267 -0.0508 -0.0669
24766W        W40950  11.616  12.251  10.211 -0.0723  0.4690 -0.1212
24767W        W40951   1.279   6.974   4.437  0.0753 -0.4329 -0.2443
24768W        W40952   4.487  16.898  14.442 -0.2469 -0.0088  0.2957
24769W        W40953   5.302  15.174  12.204 -0.1234 -0.5177  0.0847
24770W        W40954  14.927   0.440   4.100 -0.1167  0.0092  0.1439
24771W        W40955  12.251  10.283   0.980  0.0107 -0.0407 -0.0154
24772W        W40956   0.600   1.644   0.751  0.0039 -0.0224 -0.1704
24773W        W40957   6.513   8.502   5.094  0.1452 -0.0937  0.1230
24774W        W40958   3.369  14.336   2.502 -0.1121  0.1397 -0.0723
24775W        W40959  12.069  11.130   4.404  0.2459  0.2220  0.3222
24776W        W40960   0.903  14.268   3.609  0.0415 -0.1519 -0.0219
24777W        W40961  16.154  13.320  13.534  0.0962  0.1302  0.2160
24778W        W40962  15.596  12.317   3.691  0.2948  0.3519 -0.0157
24779W        W40963  11.970   6.957   0.300 -0.2236  0.2185  0.0091
24780W        W40964   4.132   1.423  15.319  0.0779  0.2103  0.3005
24781W        W40965  10.193  15.616   1.106 -0.0740 -0.1107  0.2185
24782W        W40966   9.781   4.733  15.245  0.4125  0.2507  0.0246
24783W        W40967  15.231  16.574   4.041  0.0486  0.2928 -0.0840
24784W        W40968   6.636   0.234   5.732 -0.1614 -0.1606  0.0936
24785W        W40969  16.333   7.650  11.052 -0.0220 -0.2276 -0.0848
24786W        W40970  11.177  16.361  10.620  0.3466 -0.1183  0.2285
24787W        W40971  14.201  13.442  13.363 -0.0307 -0.1468 -0.4798
24788W        W40972  18.162   3.297   2.766  0.2268  0.0454 -0.2756
24789W        W40973   9.236   3.034   3.975  0.1478  0.0889  0.4416
24790W        W40974   6.614  14.247  12.394  0.1855 -0.1249  0.0476
24791W        W40975   9.756   2.364   0.765  0.0809 -0.4381  0.0189
24792W        W40976   8.785   7.969  12.690 -0.1932  0.3304  0.4035
24793W        W40977  11.850   1.563   1.585 -0.2706 -0.1712  0.0943
24794W        W40978   9.423  10.509   5.217 -0.2399 -0.3697 -0.0856
24795W        W40979  10.286  17.423   3.510  0.0882  0.0603  0.0448
24796W        W40980  11.848   7.608   0.305  0.0149  0.0945  0.2144
24797W        W40981  12.977  18.578  13.018 -0.0596 -0.3526  0.1009
24798W        W40982   6.340  14.991   4.399 -0.3499  0.3276 -0.1475
24799W        W40983  10.593  17.159   3.121  0.1920  0.0429  0.0394
24800W        W40984  11.701   9.750  11.774 -0.0632 -0.0999 -0.0321
24801W        W40985   3.211  18.324   4.360 -0.1079 -0.1865  0.4596
24802W        W40986  17.385   3.816   0.279 -0.2892  0.3455  0.4200
24803W        W40987   6.463   9.194   2.698  0.2572  0.0879  0.1515
24804W        W40988   0.814   3.270  13.934  0.1842 -0.1227  0.2193
24805W        W40989   2.283  12.734  11.102 -0.1895 -0.0758 -0.0053
24806W        W40990   6.876  13.366   4.673 -0.1181 -0.1423  0.1186
24807W        W40991  11.346   5.713  14.467 -0.0799  0.2024 -0.0489
24808W        W40992  10.082  16.540  10.008  0.0524 -0.0431  0.1054
24809W        W40993  14.329  10.470   1.211 -0.0032 -0.2810 -0.0944
24810W        W40994   4.131   8.376   3.925 -0.3941 -0.1285 -0.1282
24811W        W40995  17.157   0.760   2.158 -0.0877 -0.1686  0.0182
24812W        W40996   2.334  10.288  12.999 -0.0942 -0.0044  0.4049
24813W        W40997   5.664   8.708   2.929 -0.0137  0.1195 -0.0482
24814W        W40998  17.448  14.694  13.968  0.2117  0.1417  0.0569
24815W        W40999  10.987  13.353   9.406 -0.2401 -0.1827  0.2404
24816W        W41000  14.017   9.941  10.717 -0.3305  0.1875  0.0180
24817W        W41001   4.903   8.409   0.057 -0.2932  0.0794  0.0672
24818W        W41002  16.127   1.704   0.954 -0.0875 -0.2706  0.0625
24819W        W41003   7.190  12.816  10.873 -0.1805 -0.1111 -0.0336
24820W        W41004   0.625   5.068   1.410 -0.4632  0.0710  0.3073
24821W        W41005   6.477   6.250   3.441 -0.2071 -0.1395  0.0139
24822W        W41006  10.812   6.521   1.416 -0.2494  0.1350 -0.6431
24823W        W41007  11.213   1.161  11.619 -0.1618 -0.0243  0.1983
24824W        W41008  14.820  18.895   2.384  0.0828 -0.2387  0.1662
24825W        W41009   3.205   1.878   1.804  0.1779 -0.0411 -0.2013
24826W        W41010   5.000   3.481  11.005  0.3311 -0.2137 -0.1360
24827W        W41011   8.472   8.339   9.736 -0.1323 -0.3574  0.2248
24828W        W41012   3.139   3.175   1.317 -0.3057 -0.1683 -0.1352
24829W        W41013  10.517  12.923  14.802  0.0821 -0.2649  0.1240
24830W        W41014   7.777  16.499  12.614 -0.1426  0.0927  0.1765
24831W        W41015  18.076   1.002   2.673 -0.0885 -0.0057  0.5175
24832W        W41016  11.964  12.230  14.895 -0.0252  0.2251  0.1603
24833W        W41017  16.780   6.701   2.857  0.1581  0.2312  0.0615
24834W        W41018  14.357  16.404  14.413  0.0378  0.0044 -0.0462
24835W        W41019  15.602   5.836  12.430 -0.0610  0.3939 -0.1955
24836W        W41020   3.137  13.664   4.852  0.0993  0.2065 -0.0965
24837W        W41021  13.265   0.592   2.745 -0.3826  0.3619 -0.0389
24838W        W41022   8.489   3.472   1.775 -0.3252  0.0143 -0.1729
24839W        W41023   4.669  13.919   2.725 -0.0547  0.3572 -0.1266
24840W        W41024   0.695   8.014  13.447 -0.0594  0.1623  0.0214
24841W        W41025  11.267  15.881   0.013 -0.0710 -0.3048  0.2187
24842W        W41026  16.597  18.413   0.553  0.0574  0.0504 -0.2510
24843W        W41027   9.966   4.166  13.941  0.1420  0.0982  0.3364
24844W        W41028   2.418   6.919  14.717  0.0759 -0.0163 -0.2014
24845W        W41029  16.100  17.362  11.171 -0.1681 -0.2481 -0.1513
24846W        W41030   6.876   0.196   2.057  0.0599 -0.0086  0.2277
24847W        W41031  18.446   0.982   2.218  0.0983 -0.0288  0.2100
24848W        W41032   1.561  12.414  14.532  0.1623 -0.0465  0.1413
24849W        W41033  17.267   6.638   1.903 -0.1492 -0.3791  0.2058
24850W        W41034   9.196  10.408   4.287 -0.0043 -0.3913  0.1296
24851W        W41035  17.514   8.142  13.691  0.0713 -0.0322  0.1513
24852W        W41036   3.559   1.482   9.928  0.0974  0.1585 -0.2094
24853W        W41037   5.049  13.671  12.534 -0.1489  0.1398 -0.4189
24854W        W41038  12.364  11.939  14.940  0.1609 -0.1167  0.2303
24855W        W41039  10.426   0.080  15.372 -0.2633  0.0168 -0.0092
24856W        W41040   5.163  13.283  10.329  0.3066 -0.0420 -0.0859
24857W        W41041   8.457   5.226   1.604  0.0920 -0.2366 -0.0552
24858W        W41042   5.066  16.598  13.524 -0.1126  0.0296 -0.0180
24859W        W41043   4.543  10.555  15.038 -0.0019  0.0091 -0.1972
24860W        W41044  10.987  14.734   2.172 -0.2409 -0.2248 -0.0093
24861W        W41045   2.470   9.740   1.015  0.0080 -0.0168  0.0095
24862W        W41046   9.589  13.485   4.667 -0.0833 -0.2212  0.2026
24863W        W41047  14.006   5.187   3.077 -0.2716  0.2533  0.1625
24864W        W41048   6.498   2.669   1.442  0.0692  0.2238 -0.2397
24865W        W41049  18.163  10.772   0.495 -0.0262  0.1460  0.0968
24866W        W41050  14.758  14.238   3.924 -0.3335  0.2269 -0.2572
24867W        W41051   7.644  14.032  14.899  0.1647  0.2021 -0.0094
24868W        W41052   9.354   9.200   5.175  0.0105 -0.1272 -0.1252
24869W        W41053   6.611  18.880  13.014 -0.0939 -0.1294 -0.2476
24870W        W41054   6.017   6.768  11.339  0.0844  0.1267  0.1095
24871W        W41055   3.728   5.672   5.567  0.1487  0.1918  0.0073
24872W        W41056   4.261   7.232   2.393 -0.0738  0.0242 -0.1244
24873W        W41057   6.932  16.060   4.278 -0.0629 -0.2728 -0.0721
24874W        W41058   3.592   2.500   2.857  0.0756  0.1607 -0.0562
24875W        W41059   5.354   6.932   1.420  0.2630 -0.0600  0.2666
24876W        W41060  17.549  10.801  13.140  0.0826  0.5152 -0.1869
24877W        W41061  17.390   4.820  14.959  0.0266  0.0456 -0.0865
24878W        W41062   4.663   4.342   1.453  0.0074 -0.4535  0.1061
24879W        W41063  12.093   9.742  11.390  0.0008  0.0383 -0.0710
24880W        W41064   4.582   2.388  11.725 -0.2573 -0.2001  0.0473
24881W        W41065  12.745   3.734   2.258  0.0378  0.1893  0.3989
24882W        W41066   8.321   1.104   4.466 -0.0576 -0.0000  0.0931
24883W        W41067  12.671  14.968   5.147  0.0476 -0.1212 -0.0974
24884W        W41068  16.260  14.754   0.971  0.0377  0.0135  0.0238
24885W        W41069   4.248   2.345   3.888  0.0110 -0.1244  0.3287
24886W        W41070  17.313   3.905  12.091  0.2185 -0.1894 -0.1359
24887W        W41071  11.320   7.145  10.523  0.1976  0.1600  0.0195
24888W        W41072   6.694   8.130  11.262  0.0247  0.0166  0.2219
24889W        W41073   5.580   7.959  10.800 -0.1263  0.0865 -0.3973
24890W        W41074  13.217  12.558   5.685  0.0124 -0.2758 -0.1158
24891W        W41075  13.243   4.618  12.371  0.1544  0.1326 -0.3171
24892W        W41076   4.640   0.110   5.083  0.1439 -0.3019 -0.2072
24893W        W41077   8.467   2.239  13.278 -0.1961 -0.1922 -0.1478
24894W        W41078   6.202  12.259   9.778  0.1703 -0.0694 -0.0755
24895W        W41079   9.498  18.266  15.212 -0.0066  0.1457  0.1663
24896W        W41080   3.027  17.531   5.154 -0.1692 -0.0354  0.1096
24897W        W41081  18.958  14.211   1.302  0.1264 -0.1419  0.1594
24898W        W41082  18.460   4.564   0.416 -0.2270  0.1996  0.0985
24899W        W41083  12.516  13.100   5.038  0.0411  0.3786 -0.2301
24900W        W41084  12.243  10.273  14.179  0.1787  0.1237  0.0998
24901W        W41085  11.134   1.550   1.198  0.4837  0.1018  0.0119
24902W        W41086   5.829   7.670  11.390  0.1341 -0.2409  0.1406
24903W        W41087   0.961   1.214   1.374  0.0921  0.0905 -0.0139
24904W        W41088  13.963  17.316  13.617  0.0801  0.2553 -0.0620
24905W        W41089   1.449  10.228   5.483 -0.0483  0.2685  0.0458
24906W        W41090  17.597  13.997   0.308  0.0819  0.0161  0.1044
24907W        W41091   7.584  14.225   2.956  0.0840  0.2065  0.2260
24908W        W41092  17.038   1.286  12.374 -0.0787 -0.0183 -0.1406
24909W        W41093  14.779   2.679  13.467 -0.0065 -0.3106 -0.2053
24910W        W41094   2.845   4.129   2.548 -0.1438  0.0109  0.2809
24911W        W41095  16.191   9.437   0.591 -0.1210 -0.1140 -0.1001
24912W        W41096   4.731   8.822   4.993  0.2630 -0.2839  0.1533
24913W        W41097  16.920   7.100  14.295  0.1920 -0.1949 -0.0524
24914W        W41098   5.817  17.488   0.710 -0.1784 -0.1558 -0.5087
24915W        W41099  18.071  15.523  12.242 -0.2929 -0.1566 -0.1885
24916W        W41100  12.811   3.881  12.132  0.0438 -0.0212  0.3760
24917W        W41101   1.108   0.722  11.742 -0.1894 -0.2338 -0.1320
24918W        W41102   7.605  17.346   2.596  0.0698 -0.2813 -0.1293
24919W        W41103   0.544   6.381  10.724 -0.0829 -0.1274 -0.1190
24920W        W41104  11.473   2.259   1.430 -0.1652 -0.2406 -0.0360
24921W        W41105   5.913  18.781   2.943  0.2553  0.0039 -0.0100
24922W        W41106  10.312  15.668   0.157 -0.0114  0.0008  0.0523
24923W        W41107  10.218   4.506   1.790  0.1087  0.0763 -0.1601
24924W        W41108  10.774  12.089   0.659  0.0592  0.1605  0.2131
24925W        W41109   3.502  17.476   1.287 -0.1874  0.2894 -0.0429
24926W        W41110   3.686  16.517   1.481  0.0196 -0.1912  0.1528
24927W        W41111  14.255   9.900   4.033 -0.2306  0.3260 -0.0792
24928W        W41112   5.891   9.658  13.197 -0.1738 -0.2253 -0.0147
24929W        W41113   7.649   9.491  14.293  0.2114 -0.0380  0.2792
24930W        W41114  15.648  18.318  12.506  0.0557 -0.1136 -0.2666
24931W        W41115   9.434   6.809   3.647  0.2651  0.1923  0.0500
24932W        W41116   6.072   5.855  12.027  0.2899  0.3763 -0.0467
24933W        W41117  18.768  17.159   3.602  0.1231  0.0118  0.1293
24934W        W41118  17.109  17.491  15.011  0.0267 -0.3877  0.0664
24935W        W41119   1.982  13.093   2.941  0.0179  0.0577 -0.1271
24936W        W41120  11.151   7.908  14.495 -0.0366  0.1946  0.2142
24937W        W41121   0.293   2.621  15.024 -0.0231  0.0282  0.1030
24938W        W41122   8.537   4.991   1.180 -0.1571  0.1758 -0.1196
24939W        W41123   3.705   1.737   1.719 -0.0326  0.0714 -0.0339
24940W        W41124   0.606   9.170  15.258 -0.2472 -0.1186 -0.1432
24941W        W41125   8.460   7.031   4.950  0.0826 -0.2430  0.1530
24942W        W41126   2.653   1.187  13.615 -0.2594 -0.2621  0.1255
24943W        W41127  14.482  12.404  15.299 -0.0294 -0.0922 -0.2064
24944W        W41128  12.207  15.058   3.569  0.0451  0.3727 -0.1389
24945W        W41129  11.089   9.465  13.447 -0.2280 -0.1707 -0.1093
24946W        W41130  12.641   2.658   9.985 -0.0620 -0.1435  0.0062
24947W        W41131  18.820   7.676   1.402 -0.0183 -0.0543 -0.4124
24948W        W41132   2.650  15.666   4.681  0.0296  0.1009 -0.0062
24949W        W41133   3.769   8.996  15.022  0.1305  0.4519  0.1526
24950W        W41134   4.657  11.604   5.866  0.0374 -0.1659 -0.1352
24951W        W41135   5.209  15.010   0.419  0.0513  0.1745  0.2345
24952W        W41136  12.585   9.392  13.610  0.0411  0.3598 -0.1006
24953W        W41137  13.762   6.531  14.279 -0.0305 -0.1626 -0.3674
24954W        W41138   4.246  10.324  13.024  0.0092  0.1577  0.1608
24955W        W41139   4.574  15.400  14.467 -0.3000  0.0243  0.0422
24956W        W41140   3.289   0.206   3.455  0.2072  0.1925 -0.0682
24957W        W41141   8.585  15.758   0.611 -0.1558 -0.1228  0.5244
24958W        W41142  13.610  12.167  13.340 -0.1391 -0.0316  0.3322
24959W        W41143   8.043   0.859   1.481  0.1615  0.0289  0.1530
24960W        W41144   8.141   6.208  12.451 -0.2336 -0.0797 -0.1666
24961W        W41145  12.830  14.755   2.912  0.2851  0.0461  0.0772
24962W        W41146  12.670  12.176   1.236 -0.2699 -0.3417 -0.2530
24963W        W41147   8.024   1.640   0.822 -0.3985 -0.2497  0.0341
24964W        W41148  13.558  17.611  15.277 -0.2098  0.0758 -0.2798
24965W        W41149   1.368  10.555  11.592 -0.1574  0.0649 -0.1923
24966W        W41150  13.328   6.183   3.704  0.0486 -0.0099 -0.0191
24967W        W41151   0.017  13.179   0.904  0.1698  0.1325 -0.0432
24968W        W41152   4.437  17.228   4.984 -0.0066 -0.0424 -0.1224
24969W        W41153   7.896   4.547  14.681  0.2025  0.1299 -0.2556
24970W        W41154   3.636   2.973  11.363  0.0347  0.0993  0.2228
24971W        W41155  17.221  14.701  14.662 -0.1925 -0.1476  0.0148
24972W        W41156  16.416  10.074   1.255 -0.0805  0.0448  0.0182
24973W        W41157  13.869  17.319  14.325  0.0249  0.3099 -0.0480
24974W        W41158   2.918  11.670   0.099 -0.0276 -0.1988 -0.1370
24975W        W41159  10.184   1.378  12.796 -0.4388 -0.2043 -0.1192
24976W        W41160  13.345  14.250   0.762 -0.5210  0.2086 -0.3551
24977W        W41161  14.817   4.410   2.413 -0.1980 -0.1077  0.0817
24978W        W41162   5.810  16.666  11.414  0.3300 -0.4994 -0.2010
24979W        W41163  15.424  10.522  14.575 -0.1174  0.0201 -0.1902
24980W        W41164   3.777  11.230   0.058 -0.1880  0.0089 -0.0156
24981W        W41165   5.452   5.505   4.528  0.2183  0.0081  0.1064
24982W        W41166  13.561   7.244  13.429  0.0122 -0.1336  0.0893
24983W        W41167   7.493   8.665   2.104 -0.2716 -0.0821 -0.4583
24984W        W41168  18.666   7.678   3.786  0.2493  0.3224  0.1546
24985W        W41169  14.851  18.263  15.174  0.3229 -0.1728 -0.0888
24986W        W41170   5.252   0.379  11.863  0.0985  0.0147 -0.2823
24987W        W41171  12.836  10.899   4.265  0.0107  0.1278  0.4448
24988W        W41172  16.675   0.240   5.329  0.0450  0.1545  0.2176
24989W        W41173  13.669   6.331  12.539 -0.1157  0.0726  0.2145
24990W        W41174   7.834  12.401   0.148  0.2366 -0.4370 -0.2097
24991W        W41175  11.026  17.885  10.652  0.1053  0.1472  0.0604
24992W        W41176   2.957  17.945  14.751 -0.0256 -0.3031 -0.0021
24993W        W41177   6.297  10.855   0.185  0.1245 -0.2372  0.1719
24994W        W41178  13.895  11.143  12.254  0.4451  0.3741  0.0364
24995W        W41179  11.583   8.186  15.023  0.1901 -0.0250  0.3046
24996W        W41180   2.310   8.283   2.132 -0.3175 -0.3309  0.2062
24997W        W41181  14.076   9.730   3.236  0.1168 -0.3483  0.0211
24998W        W41182   3.835   0.619  13.770 -0.0197  0.1685 -0.1019
24999W        W41183  18.022   3.391   3.189  0.4059 -0.0586  0.0432
25000W        W41184  17.992  18.627   3.516 -0.0635 -0.0098  0.0191
25001W        W41185  18.724  17.725  12.859  0.1462 -0.1835 -0.0377
25002W        W41186  11.743  14.282   2.431 -0.0329  0.0649 -0.0037
25003W        W41187  13.391   1.919   1.297  0.0984  0.1927  0.1489
25004W        W41188  13.384   7.886   0.888  0.0544 -0.1639 -0.0223
25005W        W41189   5.330  14.596  13.617 -0.0274  0.0614 -0.0605
25006W        W41190   8.131   5.504   4.031 -0.2968  0.2614 -0.1706
25007W        W41191  12.351  10.743   4.010 -0.0806 -0.1948  0.0066
25008W        W41192   2.980  15.011   1.292  0.2064 -0.1482 -0.2532
25009W        W41193  13.720   3.867  13.885  0.3141  0.3271 -0.0644
25010W        W41194   7.634   3.392  11.369 -0.0687  0.1687  0.1829
25011W        W41195   5.423  11.199  12.654 -0.3335  0.1834 -0.1552
25012W        W41196   1.839  12.436   4.189  0.0128  0.2162  0.0580
25013W        W41197   3.369  13.139   3.067 -0.5509 -0.4206 -0.2819
25014W        W41198   0.236  17.345   2.114  0.1237  0.4028  0.0082
25015W        W41199   1.578   2.362   4.485  0.0444 -0.0152  0.1591
25016W        W41200  17.203   8.577  11.547  0.2681 -0.1034 -0.0167
25017W        W41201  16.300  10.185   1.832 -0.4583 -0.2532  0.0257
25018W        W41202   9.668  15.208  11.257  0.0949  0.2171  0.0923
25019W        W41203   5.155   1.828  10.771 -0.1329  0.2748 -0.2258
25020W        W41204   8.885  18.874   0.914 -0.4072 -0.1164 -0.1098
25021W        W41205  12.133   3.074   1.172  0.0203 -0.2432  0.0165
25022W        W41206   5.897  10.453   2.454 -0.1168  0.1037  0.0506
25023W        W41207  16.033  13.424   3.889 -0.2048 -0.0408 -0.0348
25024W        W41208   5.714   0.711  13.653  0.2108 -0.1047  0.2978
25025W        W41209   0.055   4.773  13.333  0.1437 -0.2249 -0.0191
25026W        W41210  13.815  12.860   9.645  0.0297  0.2975 -0.1418
25027W        W41211   0.390  10.028  10.242  0.0985  0.1911  0.1678
25028W        W41212  16.289   9.072   3.289 -0.0024 -0.0912  0.2363
25029W        W41213   1.921   3.973  13.156  0.2413 -0.3764 -0.1024
25030W        W41214   2.919  14.042  14.103 -0.1991  0.0061 -0.0845
25031W        W41215   9.889  10.558  11.277 -0.1605  0.0191 -0.0146
25032W        W41216  17.857  16.351   1.947  0.0520  0.0777  0.2075
25033W        W41217  12.081  12.100   5.232  0.0605 -0.2257  0.1977
25034W        W41218  13.007  12.741   1.301  0.1595  0.3056  0.0578
25035W        W41219  15.768   0.877  13.500 -0.2840 -0.3534  0.1872
25036W        W41220  18.890   4.214   3.013 -0.1406 -0.0564  0.0183
25037W        W41221  10.823   9.548   0.683 -0.4526 -0.2639  0.0616
25038W        W41222  16.062  10.886   1.721  0.1788 -0.5338 -0.0951
25039W        W41223  15.751  10.489   2.316 -0.1238 -0.0679 -0.0079
25040W        W41224  11.897   9.523   5.269  0.1278 -0.1715 -0.0665
25041W        W41225   3.748   9.390   2.048 -0.4408 -0.1601  0.0679
25042W        W41226  11.139   3.842  10.858  0.2097  0.1558  0.3027
25043W        W41227  12.347  13.369   4.702  0.0823 -0.0058 -0.0398
25044W        W41228  11.315  15.318  14.862  0.0577  0.0331 -0.1215
25045W        W41229  17.290   1.521   4.392 -0.1513  0.2635  0.0666
25046W        W41230   8.260  17.856   3.718  0.0104 -0.3077  0.1849
25047W        W41231   6.419  14.637  12.837 -0.2247  0.0711 -0.0461
25048W        W41232  18.784  12.485  14.712 -0.2504  0.0262 -0.2254
25049W        W41233   4.173   8.678  14.823 -0.0153  0.0356  0.2355
25050W        W41234   8.896   1.795  11.896 -0.0152  0.2057 -0.2839
25051W        W41235   2.339  17.904  12.506 -0.2947 -0.1584  0.0348
25052W        W41236  12.525  15.844   1.749 -0.0659  0.0784  0.1102
25053W        W41237   5.882  11.228   2.963 -0.1034  0.2267 -0.1079
25054W        W41238  17.290  18.184   4.525 -0.0526  0.0707  0.0804
25055W        W41239   4.327  15.719   3.923  0.0206 -0.2637  0.0189
25056W        W41240  10.015   8.625   1.653 -0.1170  0.2931  0.1075
25057W        W41241  18.267   9.715   1.705  0.2229  0.1933 -0.1847
25058W        W41242  11.664  13.037  12.389  0.2218 -0.0888  0.0619
25059W        W41243   5.388   3.005   3.910  0.1606  0.2191  0.1738
25060W        W41244   1.919   8.875  11.232 -0.2231  0.3191  0.1393
25061W        W41245   8.906  11.209   4.364 -0.0092 -0.2541 -0.3238
25062W        W41246  18.878  17.286  13.726  0.0311  0.0115 -0.1520
25063W        W41247  16.331   2.155   1.674 -0.0196  0.3962 -0.0602
25064W        W41248  16.900  13.903  13.214 -0.1524  0.2969  0.1184
25065W        W41249  16.135  14.474  14.242 -0.3493 -0.1804  0.1680
25066W        W41250  18.001  13.309  15.216  0.3091  0.0004  0.0377
25067W        W41251   1.442   1.085   2.422 -0.0020 -0.1540  0.0828
25068W        W41252   9.145  14.926  14.067  0.0205  0.2396 -0.0263
25069W        W41253  10.907  15.528  12.625 -0.3067 -0.1548 -0.2429
25070W        W41254   4.202   4.029   3.398  0.0304  0.0466  0.0857
25071W        W41255  11.368  16.781  14.694 -0.0337  0.0299  0.0362
25072W        W41256  17.354   3.184   1.843  0.3071 -0.1394 -0.0174
25073W        W41257  15.864   2.520   2.803  0.0897  0.2623  0.2506
25074W        W41258  12.406   5.753   5.191 -0.0337 -0.1252  0.2331
25075W        W41259  14.089  12.542  12.585  0.0911  0.2181  0.0393
25076W        W41260  15.167   4.841  14.352 -0.1484  0.0259  0.3290
25077W        W41261   4.265   2.682  15.328 -0.2743 -0.3344  0.0683
25078W        W41262   1.189   9.363  12.871 -0.3613 -0.0474  0.0680
25079W        W41263   6.653   9.689   4.622 -0.5365  0.2794 -0.0305
25080W        W41264  15.635  12.668   5.009  0.1491 -0.2410  0.1302
25081W        W41265   0.088  17.111   3.212  0.2462 -0.0851  0.1229
25082W        W41266  15.054  13.129   2.080  0.1799 -0.0314  0.0127
25083W        W41267  11.991  11.363   2.070 -0.1685 -0.1107  0.0313
25084W        W41268  12.466   8.097  12.871 -0.0960 -0.0865 -0.2244
25085W        W41269   9.475   9.003  14.325 -0.2685 -0.0446  0.1898
25086W        W41270  13.658   0.252   2.770  0.0638 -0.0950 -0.1297
25087W        W41271   5.772   9.743  14.174  0.2257  0.0016  0.0345
25088W        W41272  16.752   6.748  13.450 -0.1790  0.1041 -0.0947
25089W        W41273   9.128  16.199  14.389 -0.2692 -0.0321 -0.1282
25090W        W41274   2.836   4.801   0.520 -0.1105  0.3291  0.0161
25091W        W41275  14.973   1.235   1.853  0.0348  0.0413  0.3898
25092W        W41276  18.623   5.897   4.183  0.1588 -0.0617 -0.0259
25093W        W41277   4.226  18.665  10.905  0.0184 -0.1992 -0.2550
25094W        W41278   2.388   0.457   1.849  0.0817 -0.4178  0.0175
25095W        W41279   1.218  12.859  11.829  0.2774  0.0878 -0.1352
25096W        W41280   2.382   4.964  11.974 -0.2188 -0.1524  0.1024
25097W        W41281   0.937  17.399  13.668  0.1478 -0.1206  0.2317
25098W        W41282   2.119  18.275  10.969 -0.3903  0.0321  0.1890
25099W        W41283   9.734  10.405   4.631  0.2952 -0.0024 -0.2194
25100W        W41284   4.258   3.465   2.027 -0.1446 -0.0903 -0.0695
25101W        W41285  13.109  13.214   3.175 -0.0353  0.0113 -0.1218
25102W        W41286   2.069   2.032   3.673 -0.0165 -0.0016 -0.2029
25103W        W41287  17.821   9.622  11.342  0.0002  0.0636  0.0679
25104W        W41288   7.169   3.938   4.354  0.0035  0.0607 -0.0764
25105W        W41289  17.516   5.595  13.876 -0.0158  0.1536 -0.0039
25106W        W41290  14.104   4.385  12.456 -0.0066  0.2287 -0.0275
25107W        W41291  10.885  10.367  12.926  0.1353  0.0889  0.2837
25108W        W41292  12.030  11.813   3.789 -0.0398  0.2008  0.2063
25109W        W41293   8.385  11.894  11.308 -0.0304 -0.0361 -0.0229
25110W        W41294  17.160  18.796   1.152  0.0693  0.1002 -0.1660
25111W        W41295  14.568  13.052  13.978 -0.0116  0.0405 -0.0954
25112W        W41296   7.287  12.491   2.665 -0.0848  0.3883  0.3280
25113W        W41297  10.079  15.891   9.599  0.1454  0.0948  0.2077
25114W        W41298   1.977   9.490  13.298 -0.1364  0.3518  0.0479
25115W        W41299  14.974   7.801   3.843 -0.2836 -0.1245  0.3380
25116W        W41300  16.386   3.243  13.977 -0.0552  0.0525  0.1217
25117W        W41301   2.317  13.371  10.495  0.0816  0.4675  0.1794
25118W        W41302  14.281  15.834  10.682 -0.2479 -0.1426 -0.5480
25119W        W41303  11.980  17.919   0.034 -0.0136 -0.2383 -0.2060
25120W        W41304   5.315  14.393   1.301 -0.0798 -0.2793  0.0931
25121W        W41305   5.251   2.903  12.261  0.4907  0.0956 -0.3129
25122W        W41306   8.882   7.769  12.234 -0.0694 -0.0967  0.1843
25123W        W41307   8.658  15.688   3.569  0.0709 -0.1861  0.0349
25124W        W41308   6.175   8.654   0.136 -0.2105  0.0999 -0.0247
25125W        W41309   2.525   9.354  13.419 -0.3186  0.4253  0.1665
25126W        W41310  14.930  15.564  14.398 -0.2403  0.1056  0.1048
25127W        W41311  17.542  15.825  13.032 -0.0809  0.0604  0.3772
25128W        W41312  18.998   6.031   1.137 -0.0797 -0.1687  0.0491
25129W        W41313  11.439  18.978   1.314  0.1018 -0.0172 -0.0279
25130W        W41314   0.688   0.896   4.183  0.0480 -0.1261 -0.1401
25131W        W41315  18.235   5.798  12.312 -0.0964  0.1420 -0.0191
25132W        W41316  15.120  16.783  11.684  0.1139 -0.4328  0.4091
25133W        W41317  11.771   3.066   1.837 -0.0659 -0.4666 -0.0143
25134W        W41318  12.262   1.615  12.417  0.0640 -0.0752 -0.4121
25135W        W41319  15.015   6.490   3.315  0.3191  0.7506 -0.2461
25136W        W41320   3.624   9.581   5.410  0.0593  0.3207  0.0842
25137W        W41321   1.274  17.431   5.053 -0.2203 -0.0299  0.0292
25138W        W41322  11.414  10.928  10.606  0.1312 -0.2017 -0.1918
25139W        W41323   1.712  16.182   0.485  0.1102  0.0002 -0.0725
25140W        W41324   2.026  18.524   4.929 -0.1053  0.1699 -0.2608
25141W        W41325  12.819  10.877   3.128 -0.0592 -0.2100  0.0018
25142W        W41326   7.273   9.330  15.184  0.0330 -0.0994 -0.0677
25143W        W41327   4.604  16.216  10.592 -0.2617 -0.1570  0.3843
25144W        W41328  17.833   1.617  12.513  0.0575 -0.2594 -0.1533
25145W        W41329  18.221   5.660   1.300  0.0711  0.0760 -0.1511
25146W        W41330   4.459  17.911   1.273  0.0719 -0.2409 -0.0199
25147W        W41331   8.727   9.613   2.464 -0.2773  0.1051 -0.0131
25148W        W41332   7.088  11.793   4.424  0.0373 -0.1478 -0.0746
25149W        W41333  15.000  16.218  10.637 -0.0231  0.1056 -0.0078
25150W        W41334   0.032   2.094   1.888  0.0411  0.2667  0.1621
25151W        W41335   7.053  11.932  12.902  0.0825 -0.2981  0.1673
25152W        W41336   9.607   4.207   5.896  0.3369 -0.1751  0.1643
25153W        W41337   6.904  16.937   4.829 -0.0360 -0.1956 -0.1595
25154W        W41338  17.030   9.844   1.382  0.1804  0.0627 -0.1930
25155W        W41339   1.546   3.850   4.413  0.2032 -0.1856 -0.1025
25156W        W41340  12.042  16.092   1.887 -0.1318 -0.0255 -0.3434
25157W        W41341  15.092   4.252   3.700 -0.2984  0.1164  0.1588
25158W        W41342   7.355   3.861  14.596  0.0436 -0.1780 -0.0621
25159W        W41343   9.876   3.834   4.710 -0.1127  0.0814  0.0538
25160W        W41344  10.942  15.164   0.610 -0.1909 -0.2106  0.1538
25161W        W41345   8.585   7.464   4.456  0.2672  0.0009 -0.1834
25162W        W41346  17.883   0.708  10.670 -0.1939  0.0414  0.3842
25163W        W41347  16.203  16.322  15.056  0.3677 -0.0674  0.3380
25164W        W41348  15.440  14.755   5.194 -0.0566 -0.3360 -0.0045
25165W        W41349   2.976   8.221  14.384 -0.0341 -0.0044  0.3316
25166W        W41350   9.718  15.247  12.605  0.1279  0.0612 -0.2467
25167W        W41351   4.190   8.984  12.068  0.1002 -0.1365 -0.1932
25168W        W41352   8.620  18.280  12.950 -0.0764  0.2936  0.1224
25169W        W41353  15.068   1.922  14.190 -0.1011  0.0517  0.2518
25170W        W41354   4.946   5.956  11.595  0.3990  0.2219  0.4195
25171W        W41355   7.564   1.897   3.250 -0.3910  0.1535  0.0387
25172W        W41356  10.635  14.635   9.931  0.5452  0.0963  0.3318
25173W        W41357  18.982   1.128   1.065  0.3365  0.1740  0.0270
25174W        W41358  16.840   3.783  11.388  0.2830 -0.2082 -0.0962
25175W        W41359   2.789  18.531   4.427 -0.0127  0.0891 -0.0576
25176W        W41360  17.163  10.143   4.190 -0.1117 -0.2935  0.1273
25177W        W41361  13.894  12.949   4.537  0.0249 -0.2756  0.4204
25178W        W41362   5.978  18.229   2.995 -0.0782  0.1125  0.0927
25179W        W41363  18.498   3.055  11.481 -0.2841 -0.0784  0.0462
25180W        W41364  16.116  16.506  10.820  0.1530  0.2001 -0.3675
25181W        W41365   3.411  12.780   4.688 -0.5585 -0.2987 -0.0076
25182W        W41366   1.809  16.020   1.685 -0.3625  0.0871 -0.0460
25183W        W41367  14.599   6.557  13.295  0.1814  0.0809  0.3522
25184W        W41368   3.984  14.632  13.508 -0.0560  0.3941  0.0960
25185W        W41369  11.819  14.210  13.451 -0.0367 -0.0357 -0.2429
25186W        W41370   3.010  16.185  14.199 -0.1691  0.3478  0.0982
25187W        W41371   9.632   3.861   9.801 -0.0907 -0.1332  0.1255
25188W        W41372  11.588   3.484  12.823  0.1960  0.0320  0.0311
25189W        W41373   3.438  11.051   0.414  0.1135  0.2012  0.1364
25190W        W41374  17.245   1.807  12.325  0.1494  0.0318  0.0558
25191W        W41375   6.389  12.920   0.981 -0.3351  0.1549  0.1488
25192W        W41376  12.778   6.946  14.452  0.1613 -0.1740 -0.2890
25193W        W41377  17.474  18.742   1.734 -0.1486  0.2494 -0.1741
25194W        W41378  14.052  11.745   3.916 -0.0934 -0.1788  0.1005
25195W        W41379   8.631  10.408  14.971  0.1846  0.2203  0.1456
25196W        W41380   4.077   9.599  11.892  0.1134 -0.0056  0.1730
25197W        W41381   4.885   5.941   2.058  0.1129 -0.3308  0.0157
25198W        W41382   1.720  15.107   3.949  0.2238  0.1713 -0.3332
25199W        W41383   0.481  15.543  13.983 -0.0862 -0.0783 -0.2591
25200W        W41384  11.743  13.163   3.950  0.1573 -0.2924 -0.0813
25201W        W41385  18.247   8.920   4.663  0.0226 -0.0618  0.0157
25202W        W41386   2.632  14.479  10.745  0.0263  0.0606 -0.0853
25203W        W41387   1.195  13.575  15.125  0.1757 -0.1791 -0.0114
25204W        W41388  15.088  11.845   4.177  0.2339  0.0559  0.2656
25205W        W41389  17.000  12.762  11.544  0.0341 -0.2659 -0.0459
25206W        W41390   4.654   3.765  10.642 -0.0677  0.0768  0.0878
25207W        W41391  16.238   1.829  13.480 -0.0851  0.1766  0.0650
25208W        W41392   9.871   4.831   1.084 -0.1146 -0.0515  0.0206
25209W        W41393  17.119   0.849  12.752  0.1667 -0.4417  0.1647
25210W        W41394  18.340   8.692  15.350  0.1665  0.0748 -0.1869
25211W        W41395   0.556   5.033  12.746  0.1651 -0.1081 -0.0813
25212W        W41396   9.229   4.039  14.166 -0.4431  0.5112  0.0266
25213W        W41397   8.193  17.008   2.636 -0.1106 -0.1320 -0.2630
25214W        W41398   4.540  13.040  13.195 -0.0462 -0.1832 -0.2252
25215W        W41399  18.730   9.220   1.461  0.3109 -0.1282 -0.2271
25216W        W41400  18.759   9.130   1.949  0.4637  0.0491 -0.2210
25217W        W41401   3.519   6.688   0.022 -0.0885  0.1627 -0.0683
25218W        W41402   8.657  11.483  14.364  0.0014 -0.1252  0.1700
25219W        W41403   3.476  10.634  10.526  0.3462  0.4023 -0.2015
25220W        W41404   1.951   5.166   1.433  0.0251  0.1747  0.2346
25221W        W41405   9.720  10.846   4.943  0.2021 -0.0277 -0.1262
25222W        W41406  14.589  10.114  13.994  0.2140  0.0089  0.0666
25223W        W41407  16.764  14.930  12.255  0.0289 -0.2978  0.0994
25224W        W41408   6.936   3.142   2.185  0.0723 -0.3572  0.2286
25225W        W41409   3.566   6.889   3.292 -0.2553 -0.0119  0.2939
25226W        W41410   3.242  18.732   3.206  0.0047 -0.1955 -0.2988
25227W        W41411   8.944   1.698   4.841  0.0236 -0.2331 -0.2886
25228W        W41412  17.384  17.458   4.384 -0.4033  0.1715 -0.2243
25229W        W41413   0.336  11.235  13.410 -0.0115 -0.2339  0.2230
25230W        W41414   7.655  15.324   3.906  0.0799 -0.0308  0.2418
25231W        W41415  14.031   3.817  14.374  0.0034 -0.1662  0.0889
25232W        W41416   8.029  10.612   0.085 -0.3958  0.1160  0.0947
25233W        W41417  10.634   8.454   2.690  0.0746  0.2867 -0.1886
25234W        W41418  10.701   3.628  15.267  0.3533  0.0317  0.0032
25235W        W41419  16.680  13.857  15.283  0.0712  0.2144 -0.2470
25236W        W41420   6.477   3.305   3.634  0.0750 -0.0590 -0.0965
25237W        W41421   7.704  10.450  13.624  0.0977 -0.2750 -0.1532
25238W        W41422  18.685   5.020  10.198  0.1257 -0.1951 -0.0397
25239W        W41423  14.786   4.731  12.946  0.0334  0.0291 -0.0907
25240W        W41424  13.748  18.631  12.151  0.0221 -0.2348  0.0441
25241W        W41425   0.628   1.380   3.982 -0.0074  0.4995  0.2198
25242W        W41426   0.986   1.189   5.333 -0.1660  0.4020 -0.1452
25243W        W41427  14.456   4.223  12.120  0.0562  0.1141  0.1184
25244W        W41428  10.395   6.773   3.772  0.2116  0.2240  0.1378
25245W        W41429  15.436   5.106   3.508  0.0560 -0.1036 -0.1411
25246W        W41430  11.327  18.889   4.525 -0.0686 -0.0809 -0.4163
25247W        W41431   2.620   9.821   3.504  0.2686  0.1519 -0.2287
25248W        W41432  15.336  15.410  15.293 -0.0013 -0.2242 -0.1594
25249W        W41433   1.625   6.333   1.623  0.1584  0.0789  0.1301
25250W        W41434  16.068   6.296  12.341  0.2073  0.2586 -0.2501
25251W        W41435   0.504   7.353   2.245 -0.1010  0.2051  0.0579
25252W        W41436  12.851   3.960   0.092 -0.0042 -0.3772  0.2602
25253W        W41437  16.740   4.147  13.150 -0.0095  0.1319  0.1162
25254W        W41438   4.257  11.270   0.837 -0.1411 -0.2939  0.1004
25255W        W41439   1.796  13.190  14.568 -0.1172 -0.3839 -0.0622
25256W        W41440   9.742   6.663  11.661  0.0212  0.0995 -0.0519
25257W        W41441  10.010  15.467  12.216  0.3638 -0.1848 -0.3365
25258W        W41442   3.049  11.184   2.230  0.0261  0.0631  0.1790
25259W        W41443  16.637  10.203   2.244 -0.2472 -0.0812  0.0321
25260W        W41444  16.910   5.559  10.998  0.0637  0.0615 -0.0409
25261W        W41445  15.825  17.412   4.522 -0.2172  0.0890  0.0967
25262W        W41446   4.606   8.171   3.626 -0.1377 -0.0977  0.0579
25263W        W41447   7.012  11.647  11.866  0.2731  0.2007  0.1832
25264W        W41448  10.790   0.450   0.361 -0.0975 -0.0919 -0.0686
25265W        W41449   1.299   2.745   1.953 -0.2904  0.1093 -0.0389
25266W        W41450   4.048  11.756   2.381 -0.0856  0.1752  0.0759
25267W        W41451   2.857   6.062   5.577 -0.2502  0.0086 -0.0731
25268W        W41452  13.099  12.152  13.475 -0.2837  0.0775 -0.0002
25269W        W41453  17.290  17.013   0.701 -0.1980  0.1692 -0.2336
25270W        W41454   7.405   9.149   9.892 -0.3064 -0.1524  0.2167
25271W        W41455   0.982  15.405  13.258 -0.1242  0.0809 -0.3841
25272W        W41456   2.332  11.783   4.413 -0.0184  0.0210 -0.1059
25273W        W41457  11.809   1.453  10.823  0.1541  0.2190 -0.2309
25274W        W41458   2.149   5.993   1.974 -0.1342  0.2004 -0.4673
25275W        W41459  18.105   1.319   1.028  0.3618 -0.1467  0.1045
25276W        W41460  13.191   2.971  11.270 -0.1141 -0.1059 -0.0607
25277W        W41461   1.692   4.751   1.217  0.1571  0.0021  0.0881
25278W        W41462   3.568   0.879  14.109  0.2735  0.0075 -0.3027
25279W        W41463  12.692   1.097   3.138 -0.0333  0.0054 -0.4098
25280W        W41464   0.434   5.622  15.259 -0.1675 -0.2023  0.0397
25281W        W41465   7.995  18.510   1.530  0.1764 -0.1397  0.2376
25282W        W41466   7.627  14.350  11.680 -0.0263  0.0746  0.1406
25283W        W41467  11.272  17.804   0.324  0.0159  0.0505  0.1748
25284W        W41468  11.019  12.686  14.807  0.0161 -0.0231  0.5199
25285W        W41469  11.577  18.522   4.280  0.3375 -0.0494  0.1643
25286W        W41470   9.395   3.947   1.250 -0.0501  0.0456  0.1358
25287W        W41471   0.528   0.705  14.075 -0.2457 -0.1048  0.2629
25288W        W41472   8.474  10.610   3.839 -0.2544  0.1553 -0.1983
25289W        W41473   3.183   4.424   2.075 -0.1506 -0.1982  0.1764
25290W        W41474  12.979  16.042   1.820  0.0312  0.0986 -0.0433
25291W        W41475   9.622   2.597  13.429 -0.1360  0.0936  0.1210
25292W        W41476  11.575  10.168   4.050 -0.3818 -0.1833  0.4206
25293W        W41477   0.813  15.060  11.262 -0.0297  0.0274  0.4333
25294W        W41478  14.796   4.922   0.556  0.1362  0.2845  0.0791
25295W        W41479   9.195  10.730   2.444 -0.1768 -0.0058  0.2483
25296W        W41480  15.209   9.204   3.539 -0.2869  0.3412 -0.2749
25297W        W41481  11.926  17.866  12.460 -0.0537 -0.0780 -0.1004
25298W        W41482   8.384  18.615   3.119  0.1249 -0.0326 -0.1104
25299W        W41483  10.101  11.825  11.410 -0.1718 -0.0711  0.1877
25300W        W41484  11.819  16.365  13.194  0.1280 -0.0291  0.3082
25301W        W41485   9.291   1.686   2.444 -0.2030  0.0790 -0.3353
25302W        W41486  16.777  11.991  11.142 -0.4729  0.0338 -0.1761
25303W        W41487   5.190   5.937   1.095  0.0323 -0.1352  0.1898
25304W        W41488   6.161   9.780  14.561  0.0163  0.1414 -0.0777
25305W        W41489   2.477  10.812   5.027  0.4471 -0.0192 -0.0267
25306W        W41490   5.588  18.023   5.731 -0.3049 -0.0496  0.1481
25307W        W41491   1.878  11.203   1.287 -0.0454 -0.1416  0.1281
25308W        W41492   5.412   6.595  13.728 -0.0829  0.0962 -0.0538
25309W        W41493  11.760   0.344   1.250  0.0028 -0.1771 -0.1768
25310W        W41494  13.276  12.698   0.164 -0.1813 -0.1988  0.0688
25311W        W41495   3.782   2.499  10.951  0.0307 -0.4161 -0.0131
25312W        W41496   6.251  16.051   5.910  0.3474  0.0433 -0.0224
25313W        W41497   9.084  12.418   5.016 -0.1748  0.0997 -0.0638
25314W        W41498   1.111  12.842   2.397 -0.1237  0.1704 -0.0207
25315W        W41499  14.291  15.851  13.883 -0.1736  0.1490  0.0845
25316W        W41500   8.238   1.015  12.181 -0.2620  0.2726 -0.0969
25317W        W41501  11.022  11.190   0.372  0.2147  0.2724 -0.1037
25318W        W41502  18.147  15.196   1.827 -0.0616  0.0612  0.2006
25319W        W41503  10.885   1.021   1.370  0.0458 -0.0465  0.0771
25320W        W41504   3.827   7.056   1.270 -0.2132  0.1516  0.1688
25321W        W41505   2.767  16.475  13.884 -0.0519 -0.0573  0.1044
25322W        W41506  12.677  11.960  12.516  0.1668 -0.0031  0.1172
25323W        W41507  14.095  10.862   0.960 -0.1749  0.2173 -0.1268
25324W        W41508  15.677   7.640   3.442  0.1354  0.0731 -0.1205
25325W        W41509   7.754   0.972  11.247 -0.2238  0.2224  0.2588
25326W        W41510   5.836   8.866  10.111 -0.1168 -0.2870 -0.0882
25327W        W41511  17.310  10.664  11.069 -0.3531  0.1240 -0.2588
25328W        W41512   9.475  13.747  15.113  0.1949  0.2052  0.2373
25329W        W41513   7.932   3.830   0.684 -0.0698 -0.1962 -0.0649
25330W        W41514  16.433   5.674  15.333  0.3460 -0.0912 -0.2585
25331W        W41515   5.522  15.409   1.274  0.1143  0.0173 -0.2912
25332W        W41516  13.049   9.559  13.735  0.0801  0.1115 -0.3074
25333W        W41517   1.915   3.433  11.851 -0.1551 -0.0221 -0.2247
25334W        W41518  11.009   5.562   4.533 -0.0987  0.0687 -0.3301
25335W        W41519  15.700  13.681   4.781  0.0027  0.2269  0.1449
25336W        W41520  16.180   4.650  11.849  0.0995 -0.3111 -0.0074
25337W        W41521   5.648   6.923   2.509  0.1272  0.0990  0.1510
25338W        W41522  10.063  14.466  11.520 -0.2647 -0.2340 -0.1305
25339W        W41523   4.237   5.218  10.247  0.2097  0.0968  0.2598
25340W        W41524  14.272   5.187   0.568  0.0465  0.1524 -0.0060
25341W        W41525   7.260   5.715   4.799 -0.4596 -0.2902  0.1615
25342W        W41526   7.871  15.192  11.612 -0.0647  0.3107  0.2221
25343W        W41527  14.373  11.701   0.509  0.3662  0.1335  0.0116
25344W        W41528  15.187   1.590  12.927  0.4033  0.0669 -0.1183
25345W        W41529   3.656   4.982   5.140  0.0214  0.2066  0.1043
25346W        W41530  18.360   6.023  10.847 -0.6328 -0.0635 -0.0958
25347W        W41531   2.938   4.722  14.381  0.0296  0.1566 -0.3647
25348W        W41532  18.489   6.829   1.154 -0.0436  0.1029  0.2639
25349W        W41533   8.458  14.097   1.779  0.3465 -0.0785  0.1447
25350W        W41534  11.110   6.114  11.448 -0.1374 -0.1508  0.1853
25351W        W41535   2.747   9.732  13.822 -0.1606 -0.0258  0.0137
25352W        W41536   8.815  18.713  15.380 -0.0278 -0.0227 -0.0066
25353W        W41537  11.688  17.968  11.427  0.2605  0.0910  0.3714
25354W        W41538  14.030  10.574  11.515 -0.0620 -0.1132 -0.3626
25355W        W41539   3.473  11.677   5.253  0.1341 -0.2925  0.1120
25356W        W41540   9.474  16.732   3.198  0.0115 -0.0165  0.3222
25357W        W41541  12.665  11.030   0.603  0.0757 -0.0026  0.2457
25358W        W41542  15.235  13.357  12.566 -0.1270  0.2174  0.0916
25359W        W41543   6.426   3.176   1.458  0.0330 -0.0602  0.3111
25360W        W41544   9.391   6.915   1.246  0.0166  0.0053  0.0042
25361W        W41545   7.726   5.610  13.067 -0.1124  0.0102  0.4368
25362W        W41546   5.128   5.153  14.187  0.0585 -0.2778  0.2094
25363W        W41547   3.213  18.303  14.420 -0.0203  0.0016 -0.1123
25364W        W41548   4.944   6.935   4.133 -0.1736  0.1115  0.1720
25365W        W41549   9.332  14.224  12.618  0.0800 -0.0222 -0.0221
25366W        W41550   5.663   8.158  12.220  0.0994 -0.3831 -0.0371
25367W        W41551   3.333  18.470   1.329  0.1563 -0.1715 -0.0080
25368W        W41552  10.737   0.565  14.711 -0.4498 -0.0436  0.2851
25369W        W41553  14.329   8.020   4.792  0.3035 -0.2981 -0.0841
25370W        W41554  17.383   4.541  10.535  0.2165  0.1902  0.2864
25371W        W41555  17.053  15.082   2.304  0.1234  0.2297  0.2956
25372W        W41556  18.135   8.852   4.083  0.1839 -0.1748  0.4440
25373W        W41557  14.771   6.417   1.231 -0.2518  0.0991 -0.1381
25374W        W41558  11.586  12.290   5.332  0.2454 -0.0069 -0.0545
25375W        W41559  17.880  11.230  11.682  0.1592  0.2130 -0.0333
25376W        W41560  17.101   0.524   3.528 -0.1426  0.1048  0.4207
25377W        W41561   2.045  16.859  10.383  0.1429  0.1271  0.1360
25378W        W41562   9.230  17.675   4.567  0.1204  0.2520 -0.0170
25379W        W41563   5.043   0.592  13.205  0.2698 -0.2198 -0.1699
25380W        W41564   0.257   2.232   0.547  0.3371  0.0956 -0.0297
25381W        W41565   8.231   0.598   4.562  0.4264 -0.1773  0.0086
25382W        W41566   4.710  14.561   2.074 -0.2856 -0.1203 -0.0954
25383W        W41567  12.944  16.990   0.584 -0.3474 -0.0586  0.0411
25384W        W41568  12.839   3.073  11.673  0.2513  0.2043 -0.0583
25385W        W41569   9.055  17.944  11.129 -0.1079 -0.1060  0.1336
25386W        W41570   0.865  15.958  13.737 -0.3638 -0.2503  0.0299
25387W        W41571  11.924   1.952   4.168 -0.0632  0.2054  0.2871
25388W        W41572  15.365  18.314   4.671  0.3620  0.1195  0.3118
25389W        W41573  12.251  18.343  14.742  0.4498 -0.0300 -0.2828
25390W        W41574   2.878   5.890  14.443  0.1593  0.3763  0.0218
25391W        W41575   3.762  15.726   2.013  0.4945 -0.3955  0.0267
25392W        W41576   1.998   4.013   4.178  0.0838  0.0449  0.0712
25393W        W41577  15.334  16.271  13.490 -0.0634 -0.0541  0.0839
25394W        W41578  16.984  16.889   3.509  0.3256  0.0301  0.2543
25395W        W41579  11.112  16.204   0.442 -0.2260 -0.1956  0.3948
25396W        W41580  12.146   3.543   2.701  0.1254 -0.2082 -0.2864
25397W        W41581   0.342   0.225  14.228  0.0043 -0.0085  0.1401
25398W        W41582   1.191  14.522  13.280  0.1828 -0.2490  0.0338
25399W        W41583   1.034   6.324   1.082  0.0225  0.0510  0.0652
25400W        W41584   6.444   8.207  10.628 -0.1204  0.0381 -0.2503
25401W        W41585  18.180  10.442  12.733  0.4289  0.0269 -0.1535
25402W        W41586  14.902   6.331   4.992  0.3176  0.3595 -0.0618
25403W        W41587   2.772   7.211   4.366  0.1267 -0.3176 -0.0327
25404W        W41588   1.034   6.628   3.774  0.2257 -0.1766  0.1579
25405W        W41589   6.101   9.170   6.056  0.0809  0.1220  0.2009
25406W        W41590  14.094   3.671   2.557 -0.1512 -0.2345  0.1435
25407W        W41591  15.270   5.433   1.140 -0.1332  0.0677 -0.0768
25408W        W41592   5.949   3.314   2.267 -0.1095  0.0863 -0.2149
25409W        W41593   5.820   0.201  12.750 -0.2625  0.1489 -0.1065
25410W        W41594   0.900   0.233   1.161 -0.1383 -0.0631 -0.3023
25411W        W41595   4.291  16.056  11.984 -0.1551 -0.0431 -0.0347
25412W        W41596   8.508  18.533   1.673 -0.0185  0.1254  0.3039
25413W        W41597   7.473   0.166  15.266 -0.0688  0.1719  0.2683
25414W        W41598  11.403   6.078  11.899 -0.0370 -0.2402 -0.0948
25415W        W41599  17.324   3.515  11.608  0.2470 -0.2802  0.2392
25416W        W41600  13.527  11.255   4.766 -0.2729  0.2328  0.0087
25417W        W41601  10.780  12.264   2.306  0.1545  0.1580 -0.1061
25418W        W41602  15.889   8.247   5.288 -0.0237  0.0434 -0.1645
25419W        W41603  11.828  17.166   4.824  0.0950 -0.1171  0.0642
25420W        W41604  15.430  15.995  12.354 -0.1360 -0.0009 -0.2007
25421W        W41605   1.655  14.963  14.058 -0.1713 -0.1649 -0.0638
25422W        W41606  17.428   2.475  12.860 -0.0258  0.0249 -0.1415
25423W        W41607   7.727   6.140  14.348  0.1955 -0.0246  0.2951
25424W        W41608   9.873  16.620  11.352 -0.0506 -0.2794  0.2278
25425W        W41609  14.712   1.117  15.280  0.5004  0.2593  0.1182
25426W        W41610   5.954  14.537   1.446  0.2384 -0.0285 -0.3177
25427W        W41611   4.409   4.694  10.043 -0.0684 -0.0315  0.3071
25428W        W41612  12.731   5.397  14.104 -0.2021  0.1852 -0.2825
25429W        W41613   1.166   4.421  13.180 -0.0929  0.4343 -0.2667
25430W        W41614  15.381  17.313  14.028 -0.1243 -0.0599  0.0001
25431W        W41615   1.459   4.747   5.341  0.1590 -0.2278  0.0085
25432W        W41616  10.826   2.490  14.392 -0.3758  0.0508  0.0056
25433W        W41617   4.998   2.249   3.350 -0.0490  0.2487  0.0252
25434W        W41618   6.765  18.987   4.910 -0.1723  0.0730 -0.1447
25435W        W41619  14.743   2.203  12.021  0.1184 -0.1025  0.1943
25436W        W41620   2.080  10.913   0.380  0.4173  0.0419  0.0896
25437W        W41621   1.147   4.713  11.008  0.0710 -0.2414  0.3234
25438W        W41622  15.460   3.994  11.912  0.1579  0.0329 -0.1851
25439W        W41623  16.613  10.745   2.279  0.0586 -0.1755  0.3168
25440W        W41624  18.792   0.790  15.219 -0.0304  0.0426 -0.0422
25441W        W41625  13.023  16.584   4.488 -0.0599  0.0311 -0.3631
25442W        W41626  10.223  18.746  11.448 -0.1689  0.0985 -0.0272
25443W        W41627   8.419  13.390  15.079 -0.1058  0.0205  0.0407
25444W        W41628   6.846   4.201   9.824 -0.1469  0.1772 -0.0257
25445W        W41629  13.864   0.721   3.625  0.0384  0.1002  0.2273
25446W        W41630  18.439  13.276   2.382  0.1966  0.2978 -0.1679
25447W        W41631  10.933   3.489   1.186 -0.2243 -0.0261 -0.0479
25448W        W41632   4.831   3.223  13.785  0.2837  0.1754 -0.0435
25449W        W41633  17.371   0.189   4.602 -0.3822  0.2076 -0.2103
25450W        W41634   9.742  17.895  12.880  0.2367  0.3354 -0.0584
25451W        W41635  14.726  15.029   1.800 -0.1091 -0.1017  0.0311
25452W        W41636  17.101   7.960   5.110  0.0519 -0.2217  0.0376
25453W        W41637  13.410   0.006  12.292  0.1928  0.0341  0.0989
25454W        W41638  18.513   7.632   0.068 -0.1122 -0.1021  0.5539
25455W        W41639  10.405   8.299   0.895  0.2575  0.1952  0.3121
25456W        W41640   8.946   6.251  14.486 -0.0634  0.1362 -0.0918
25457W        W41641   1.500   3.766  12.008  0.0774  0.3093 -0.4865
25458W        W41642  18.002   0.947  11.102  0.1949 -0.0016 -0.0556
25459W        W41643  10.969  10.170  10.942  0.1736 -0.0277  0.0143
25460W        W41644  12.526  13.333  15.331 -0.1547 -0.1127  0.2401
25461W        W41645  15.639  18.942   1.444  0.2449 -0.3203  0.0919
25462W        W41646   2.385   9.347  14.704 -0.3923 -0.0388  0.0631
25463W        W41647  14.390   2.557  13.741  0.3096 -0.1517 -0.0806
25464W        W41648   4.392   6.713  15.220 -0.0747  0.2129 -0.1097
25465W        W41649   4.428  13.907   5.361 -0.2678 -0.2351  0.1843
25466W        W41650  12.103   4.698  14.730  0.0729 -0.0407  0.0261
25467W        W41651   0.984  10.769  12.812 -0.1989  0.1204  0.2281
25468W        W41652  13.914   5.321  13.525 -0.1569  0.1562  0.0331
25469W        W41653   1.173  13.704   0.806 -0.1516  0.0938  0.3160
25470W        W41654   6.631  15.460  14.444 -0.1901 -0.1617 -0.0385
25471W        W41655   0.692  16.950  13.776 -0.4982 -0.1485  0.0266
25472W        W41656  15.262   1.527   5.808  0.1499 -0.1236 -0.1337
25473W        W41657   3.273  15.771   3.120 -0.0278 -0.2329  0.0210
25474W        W41658  15.574  11.024   4.660 -0.0951  0.0639 -0.3030
25475W        W41659   4.290  15.327   3.631  0.0014  0.3645  0.1125
25476W        W41660  13.739  17.670   1.841 -0.1722  0.1478  0.3920
25477W        W41661   9.349  15.210  11.725 -0.1203 -0.0256  0.2420
25478W        W41662  15.991   4.946   1.079 -0.0459  0.2023 -0.0775
25479W        W41663   1.480  13.282  13.551 -0.0435  0.0437  0.1330
25480W        W41664   4.899   4.321   3.770 -0.3181  0.0266  0.0750
25481W        W41665   1.555   2.548  15.053  0.1900  0.1484 -0.1662
25482W        W41666  14.619   4.023  13.578 -0.4023  0.0575 -0.2053
25483W        W41667  17.420  18.480  10.677  0.0890 -0.1691 -0.1970
25484W        W41668   3.278  11.893  15.107  0.0950 -0.0768  0.1005
25485W        W41669  11.014   2.545   3.524  0.0164  0.1811  0.1016
25486W        W41670   8.668  14.210  12.527 -0.2707  0.2803 -0.2109
25487W        W41671  17.882  12.110   2.966 -0.3187 -0.1275  0.1620
25488W        W41672  15.643  14.418  13.598 -0.1935  0.0177 -0.3134
25489W        W41673  10.323   1.387  11.487 -0.2246 -0.2200  0.0600
25490W        W41674  11.800  17.427  11.402 -0.2380 -0.1742 -0.1155
25491W        W41675   9.263  10.994  15.160 -0.0004 -0.0559  0.2538
25492W        W41676   3.564  14.692  13.089 -0.0229 -0.2431 -0.2518
25493W        W41677   6.522   2.699  12.754 -0.3238 -0.1095 -0.2436
25494W        W41678  17.853   7.588   3.323  0.0632  0.0865 -0.4078
25495W        W41679  12.047  15.620   1.625 -0.3230 -0.0079 -0.0859
25496W        W41680  15.765  18.985  11.991 -0.3408 -0.1056  0.2235
25497W        W41681   7.949   9.488  12.220  0.0077  0.1956  0.1362
25498W        W41682   7.420   4.955   3.519 -0.4820 -0.0402 -0.1817
25499W        W41683  13.900   5.078  11.218 -0.2551  0.3950 -0.1297
25500W        W41684  14.074   8.166   3.849 -0.1286 -0.0122  0.1088
25501W        W41685  18.415   9.782   0.792 -0.2493 -0.0633 -0.2957
25502W        W41686   0.765  11.595   4.249  0.0436 -0.1118  0.0949
25503W        W41687  16.431  12.495  13.826  0.2058 -0.0273  0.1197
25504W        W41688   5.854  16.629   4.351 -0.1579  0.0064 -0.0054
25505W        W41689   2.924  14.527   1.139  0.1474  0.0237 -0.2278
25506W        W41690  10.861  11.258   3.033 -0.0389 -0.3690 -0.3446
25507W        W41691   4.347   8.221   4.413 -0.0918  0.0649  0.1784
25508W        W41692   8.900   2.563  11.396  0.0676 -0.0331 -0.0106
25509W        W41693  11.705   6.819  11.706  0.1333  0.2316  0.0208
25510W        W41694  13.571   7.731  10.966  0.2837 -0.0518 -0.2164
25511W        W41695   4.216   0.813  14.714 -0.0175  0.0564 -0.1254
25512W        W41696   5.229   3.953   0.861  0.0975 -0.1885  0.0375
25513W        W41697  13.705  10.620  11.077  0.1956 -0.3215 -0.0430
25514W        W41698   0.237   0.266   4.464 -0.1345  0.1044 -0.0732
25515W        W41699   7.188   1.166   1.721  0.1559 -0.1396 -0.3671
25516W        W41700   6.718   1.831   0.623  0.4280 -0.0022  0.0765
25517W        W41701  14.002  16.073  12.981  0.1831 -0.1940 -0.1591
25518W        W41702   3.866  12.577  14.816 -0.0072 -0.0678  0.1736
25519W        W41703   6.104   8.321   1.764 -0.0178 -0.0541  0.1873
25520W        W41704  11.634   0.847  14.844  0.2137 -0.1247  0.0135
25521W        W41705  11.002   9.676   3.474  0.0107  0.0238 -0.0953
25522W        W41706  16.769   0.627  10.835 -0.0312 -0.1416  0.0561
25523W        W41707   8.506   7.832   9.695 -0.0314  0.1745 -0.1658
25524W        W41708   8.373   6.404  13.202 -0.4528 -0.2521  0.0719
25525W        W41709  15.740  18.757   0.950 -0.1676 -0.0240  0.0184
25526W        W41710   5.876  15.148  15.011 -0.2287 -0.0160  0.0321
25527W        W41711   7.155   1.287   5.402  0.1359 -0.3129 -0.2804
25528W        W41712   6.307   5.957   5.798 -0.1338  0.4820  0.1907
25529W        W41713  12.190  15.339   0.271  0.0703  0.3442 -0.2597
25530W        W41714   3.328  12.704   1.426  0.2170 -0.2140 -0.1816
25531W        W41715  13.647   8.859  12.740  0.4166 -0.0488  0.2740
25532W        W41716  14.959   1.186  10.927  0.2616  0.2846  0.1251
25533W        W41717  12.374  18.764  14.384 -0.4010 -0.0722  0.0674
25534W        W41718  14.387   6.880   4.634  0.2213  0.0492  0.0126
25535W        W41719  16.824  10.702  11.684  0.2308  0.0144 -0.0845
25536W        W41720   4.124  13.559   2.058 -0.1890  0.3452  0.1953
25537W        W41721   5.795   9.219  13.991  0.2347  0.0304 -0.0573
25538W        W41722   0.432  11.118  13.888 -0.2406 -0.1591 -0.1106
25539W        W41723   3.162  10.509   0.630  0.0249  0.0731 -0.0124
25540W        W41724  13.340  18.816   4.422 -0.0876 -0.1104  0.1152
25541W        W41725   3.635   4.906   3.773  0.1279  0.0731 -0.1497
25542W        W41726   4.501   7.315   1.967  0.0522  0.1614 -0.3070
25543W        W41727   4.882   2.292   9.557  0.2985  0.0408  0.2424
25544W        W41728   3.300   7.335   1.958  0.2898 -0.0891 -0.1447
25545W        W41729  18.277  18.550   0.556  0.0858 -0.1907 -0.2114
25546W        W41730  12.937   6.899  13.409 -0.0822 -0.0839 -0.0386
25547W        W41731  16.653  12.765   4.311  0.4577 -0.2727  0.1701
25548W        W41732  14.276  11.850  13.785 -0.2637 -0.2883  0.4217
25549W        W41733   1.287   2.505   1.484 -0.1449 -0.1615  0.1023
25550W        W41734   3.699   8.086   4.544 -0.1782  0.1330  0.1429
25551W        W41735  16.997   0.998  14.995  0.2919  0.0418  0.0810
25552W        W41736  12.945   2.328   4.260  0.0587  0.0461 -0.0770
25553W        W41737  13.879   8.029  14.251  0.1767  0.0567  0.0654
25554W        W41738   0.791  16.169  14.411  0.0238 -0.0992  0.1844
25555W        W41739   6.677  14.714  14.149  0.1710  0.1431  0.3215
25556W        W41740  15.962  10.478  14.379 -0.1734 -0.1725  0.1184
25557W        W41741  16.777  14.383  11.441  0.0723  0.0291  0.1775
25558W        W41742  16.267  10.256   2.967  0.1713  0.1652  0.0182
25559W        W41743  11.918   7.776  15.131  0.1189 -0.2171  0.1058
25560W        W41744  11.906  10.851   0.108 -0.0975  0.2145  0.1204
25561W        W41745  15.466   0.098  15.101 -0.3629 -0.0389 -0.1907
25562W        W41746  14.083   3.934   0.711 -0.0668 -0.2702 -0.2165
25563W        W41747  17.023   1.294  13.452 -0.0920 -0.1604  0.0566
25564W        W41748  17.805  13.708   2.973 -0.3196 -0.0804  0.3292
25565W        W41749  13.850   5.788   5.875  0.3060  0.3206  0.1308
25566W        W41750  10.980   2.955   1.468  0.1346 -0.0191  0.2662
25567W        W41751   5.141  16.372  13.060  0.0251 -0.0606  0.1976
25568W        W41752  13.280  15.979  13.633  0.0871 -0.3699  0.2203
25569W        W41753  15.763   0.422  11.643 -0.3444  0.2031 -0.1183
25570W        W41754  15.172   4.462   5.373  0.2902 -0.1596  0.1443
25571W        W41755   6.514   6.690  13.214  0.0990 -0.3127  0.0297
25572W        W41756  18.473  16.646   0.122  0.1563 -0.1609 -0.0440
25573W        W41757   9.427   3.505   4.090  0.0684 -0.1774  0.0954
25574W        W41758   9.152   2.639   4.592 -0.1806 -0.1112  0.3549
25575W        W41759   3.757  16.995   0.622 -0.0593 -0.1942  0.2525
25576W        W41760  17.718   5.613   0.414  0.1355 -0.0681  0.1871
25577W        W41761  14.635  14.203  12.726  0.4234  0.4832  0.2004
25578W        W41762  16.081   2.562  15.112  0.0452 -0.1555  0.0385
25579W        W41763   3.194   7.352  10.725 -0.2641 -0.0121  0.1049
25580W        W41764   3.866   7.285  11.091  0.3936  0.0456  0.2092
25581W        W41765  14.866  18.574   0.439  0.1079  0.0230 -0.0693
25582W        W41766  10.154  15.872  12.751 -0.1262  0.2517  0.0992
25583W        W41767   8.559   0.456   5.590 -0.2766  0.2066  0.1032
25584W        W41768  17.465  14.331  15.034 -0.0146  0.4624  0.1482
25585W        W41769   2.423   8.420   0.163  0.0639 -0.0819  0.0270
25586W        W41770   5.353   9.802  15.129  0.2509  0.0474 -0.1440
25587W        W41771  18.025   6.292  13.841 -0.1810 -0.4005  0.2126
25588W        W41772  15.391   6.984   1.700  0.0035 -0.2611  0.0724
25589W        W41773  11.798   2.911   3.861 -0.1384  0.0913  0.1330
25590W        W41774  13.630   7.403  11.320 -0.0899  0.3367  0.1119
25591W        W41775   9.458   5.103   3.450 -0.0707  0.1345 -0.3531
25592W        W41776  14.041   7.357  11.836  0.1711  0.3084 -0.0775
25593W        W41777  17.008   5.017   1.539 -0.1174 -0.1227 -0.5530
25594W        W41778   8.229   8.954   5.453 -0.5187 -0.1347  0.0795
25595W        W41779   4.312  17.315  14.237  0.1392 -0.0944 -0.0672
25596W        W41780  16.602  13.926  11.176  0.1241  0.0280 -0.1710
25597W        W41781  17.715   5.074   1.996  0.1827 -0.1076  0.1223
25598W        W41782   6.935   5.265   3.561 -0.0181 -0.1250 -0.0828
25599W        W41783  11.729  16.849   1.998  0.1988 -0.2979 -0.2265
25600W        W41784  16.617   8.454   3.933  0.2499  0.1339  0.0315
25601W        W41785  16.697   1.274   2.858  0.4587  0.0917  0.1711
25602W        W41786  10.623   5.158  10.203 -0.2188  0.1050 -0.3800
25603W        W41787   1.755   1.358  12.255  0.0278 -0.1287 -0.3925
25604W        W41788   8.940  13.228  13.336 -0.0316 -0.1898 -0.1573
25605W        W41789   0.319  10.806   1.368  0.3373  0.1269 -0.2205
25606W        W41790  11.884   5.949  13.767  0.0532  0.1275 -0.0783
25607W        W41791  10.431  14.083  12.880 -0.1665  0.0565  0.1345
25608W        W41792  14.522  17.989  14.876  0.2127  0.2261 -0.1972
25609W        W41793  18.142  17.807  13.013 -0.0298  0.2702  0.1150
25610W        W41794   0.865   5.819  12.752 -0.3946 -0.0297  0.3058
25611W        W41795   5.301  18.374   2.206 -0.2653 -0.2534 -0.0067
25612W        W41796   6.564   4.462   0.396  0.3019 -0.1558  0.1936
25613W        W41797  17.256   1.996   4.572 -0.0706  0.4345 -0.2435
25614W        W41798  16.517  12.485   4.756  0.3168 -0.1779 -0.0914
25615W        W41799   9.102  11.744  11.664  0.2901 -0.0091  0.0666
25616W        W41800   4.769  12.049   1.489  0.2459  0.3853  0.2118
25617W        W41801  10.203   5.586  10.756  0.0187  0.0499 -0.3459
25618W        W41802  12.298   5.105  13.270 -0.2300  0.5296 -0.0591
25619W        W41803  18.905   7.473  14.959 -0.1316  0.3192  0.1479
25620W        W41804   2.373  12.974   9.581 -0.0944  0.0539  0.1788
25621W        W41805  18.743   4.830  11.331 -0.1281  0.0565 -0.2560
25622W        W41806  15.713  13.097  12.024 -0.1984 -0.1160 -0.1481
25623W        W41807   4.172  10.879   2.990  0.0713 -0.1981  0.0361
25624W        W41808   8.774  17.342  14.289  0.1979 -0.1646  0.1195
25625W        W41809  18.276   9.502   4.631  0.0327  0.1241  0.1886
25626W        W41810   0.193   8.771   3.475 -0.3488  0.0923  0.1956
25627W        W41811  12.687  10.235  13.813  0.0568  0.0158  0.0250
25628W        W41812  12.722  10.134   1.131  0.3328 -0.2194  0.1763
25629W        W41813   5.864   1.070  10.834 -0.2224 -0.0641 -0.2082
25630W        W41814   2.636  11.304  13.428  0.1038  0.0282 -0.5252
25631W        W41815  14.311   0.531  14.846  0.2005 -0.2110 -0.2050
25632W        W41816   7.567   8.614   3.295 -0.0165 -0.0522 -0.1691
25633W        W41817   8.662  16.070  12.080 -0.0406 -0.1717  0.4516
25634W        W41818  11.226  13.089   3.742  0.0269 -0.2099  0.0689
25635W        W41819  10.266  12.268  14.131 -0.2335  0.1486  0.0364
25636W        W41820  12.622  11.211  13.321  0.2783  0.1052 -0.2042
25637W        W41821   3.490   4.667  11.437  0.2585  0.1906 -0.2224
25638W        W41822  14.732  14.827   2.261 -0.0752  0.1991  0.0265
25639W        W41823   3.662  12.455   1.672 -0.0229  0.3212 -0.0183
25640W        W41824   1.828  10.216  12.619 -0.3341  0.1704 -0.0817
25641W        W41825  10.656  16.250   3.036  0.2019 -0.1631  0.0798
25642W        W41826  12.672  10.875   9.429 -0.0787 -0.2539  0.0397
25643W        W41827   7.003   9.536  11.934 -0.4238 -0.0302 -0.0229
25644W        W41828  18.448  11.228  15.241 -0.2994  0.0271 -0.0234
25645W        W41829   3.974  11.472  12.040  0.1773  0.4260  0.0235
25646W        W41830   2.141   5.468  12.266 -0.2457  0.1308  0.0675
25647W        W41831  12.667  11.406   1.312  0.5560 -0.0679  0.1049
25648W        W41832  16.649   6.467  12.271 -0.2147  0.0834 -0.1002
25649W        W41833  11.082   4.002   1.190 -0.0443 -0.1903 -0.1592
25650W        W41834  18.099  16.206   4.949  0.2843  0.1345  0.2088
25651W        W41835  15.025   3.136   0.221 -0.2216 -0.0335 -0.1037
25652W        W41836   7.471  18.301  13.881  0.2500 -0.0744 -0.0411
25653W        W41837  16.650   2.851   0.347  0.3026 -0.2231 -0.1186
25654W        W41838   4.602   1.102   3.069  0.1305  0.2992 -0.1182
25655W        W41839   0.287   6.412   3.644  0.2665 -0.0630 -0.1813
25656W        W41840   1.384  16.718   2.314  0.0722  0.1903 -0.6830
25657W        W41841   8.589   6.047   2.739  0.0382  0.0470  0.1535
25658W        W41842  15.401  13.626   3.466  0.1270 -0.1183 -0.0583
25659W        W41843   8.387   0.900   2.196  0.1782  0.2556  0.0371
25660W        W41844   2.109   9.877   1.480  0.0533 -0.1117  0.1644
25661W        W41845   7.615   3.477  14.397 -0.1561 -0.1707  0.1698
25662W        W41846  13.586   9.308   5.138  0.0277 -0.0693 -0.2221
25663W        W41847   4.819  13.755   0.831  0.0858 -0.1682  0.0046
25664W        W41848   8.022  15.758   4.758  0.1209  0.2642 -0.0435
25665W        W41849  10.894   4.843   4.495  0.1360 -0.1843  0.3107
25666W        W41850   5.852  16.151  13.671  0.0985 -0.1280  0.0809
25667W        W41851  13.916  14.064   3.693  0.4187 -0.2526  0.0773
25668W        W41852   2.980  17.180   4.213 -0.2938 -0.0724 -0.0324
25669W        W41853   2.914  14.493   5.134 -0.1121  0.3504  0.3078
25670W        W41854   9.676  12.431  15.319 -0.0411  0.1480  0.0319
25671W        W41855   0.346   3.813  14.550  0.3235  0.3313 -0.5426
25672W        W41856  16.435  18.300  10.913 -0.3694 -0.2232 -0.0263
25673W        W41857   6.778  18.847   4.266 -0.0934 -0.2869  0.1340
25674W        W41858  10.245   0.602  14.607  0.0456 -0.0318  0.2697
25675W        W41859  12.328  16.466  14.058  0.1651  0.0028  0.3157
25676W        W41860  12.429  18.016  13.404 -0.1047 -0.2080 -0.2908
25677W        W41861   4.703  17.623  11.208 -0.1994 -0.2033 -0.0755
25678W        W41862   5.024   5.993  13.113  0.2398  0.3530 -0.0425
25679W        W41863  16.284   8.849   2.789  0.0885 -0.2190 -0.2606
25680W        W41864   0.035   6.848   1.053  0.1038 -0.3994 -0.0783
25681W        W41865  15.162  10.917   3.574  0.3153  0.7001  0.0133
25682W        W41866  14.499   5.341   5.182  0.0322 -0.1465  0.1573
25683W        W41867   3.348  13.034   2.085 -0.1750 -0.1834 -0.0353
25684W        W41868  13.480   5.379   1.212 -0.1703  0.0947 -0.0578
25685W        W41869   6.570  13.604   0.214  0.2826  0.3806  0.0587
25686W        W41870   7.098   6.837  11.735 -0.1062 -0.0979 -0.3634
25687W        W41871  12.723   9.271  14.039  0.2840 -0.0562 -0.2420
25688W        W41872   0.995   8.930   0.162 -0.1052 -0.3250 -0.1427
25689W        W41873  17.754   6.320  14.309 -0.1269 -0.4012  0.0526
25690W        W41874  16.827  11.451   2.087  0.0567 -0.4234  0.0020
25691W        W41875  11.904  14.361  11.891  0.1445 -0.1500 -0.2162
25692W        W41876   6.423   2.326   2.140 -0.1485  0.1981 -0.1084
25693W        W41877  10.615   8.827   4.650  0.1403  0.0326  0.0113
25694W        W41878  13.730   3.565   0.709  0.1291  0.1336 -0.0051
25695W        W41879  17.197  14.019   0.023 -0.1014 -0.1228 -0.0496
25696W        W41880   1.573   2.599  12.293 -0.0105 -0.0282 -0.0995
25697W        W41881   9.005   8.047   0.468 -0.1330 -0.2480  0.0438
25698W        W41882   4.439   5.778   1.564 -0.1322  0.4724  0.0909
25699W        W41883   2.859  15.524  12.289  0.4019 -0.2318  0.0205
25700W        W41884  12.994   4.688  11.524 -0.0370  0.2697 -0.2097
25701W        W41885  13.438  12.596   1.501 -0.0675 -0.2009 -0.0034
25702W        W41886  11.937  17.926   1.950  0.2071  0.0950 -0.0580
25703W        W41887  15.132  12.013   5.170 -0.3021  0.0272 -0.0376
25704W        W41888   3.671   2.533  14.568  0.0698 -0.0158 -0.1545
25705W        W41889  15.501  17.763   3.562  0.0191 -0.2149 -0.2822
25706W        W41890   4.723   2.525   4.124  0.1223 -0.0253  0.1918
25707W        W41891  10.211  16.574  13.194 -0.1410 -0.0098  0.0846
25708W        W41892   8.291  10.506  12.821  0.0732 -0.0986 -0.3503
25709W        W41893  18.498  15.299   4.243 -0.1075  0.1185  0.0241
25710W        W41894   5.476  18.333   3.368  0.2655 -0.0132 -0.0280
25711W        W41895  10.709   3.244   0.208 -0.0347 -0.2367 -0.2811
25712W        W41896  11.035   0.691  10.445  0.2756 -0.3290 -0.1697
25713W        W41897   2.611   9.686   4.758  0.2009 -0.0020  0.0529
25714W        W41898  11.870  11.187   5.740 -0.3388  0.0939  0.0879
25715W        W41899   9.499  13.535  11.150 -0.1842  0.3066 -0.3912
25716W        W41900  18.868  12.771   2.264 -0.0380 -0.1744  0.0000
25717W        W41901  12.221  15.690  15.245  0.2332  0.0022 -0.0780
25718W        W41902   2.545  13.005  14.573  0.0470 -0.1461  0.1569
25719W        W41903   3.005  17.464   4.633 -0.3065  0.0725  0.4555
25720W        W41904  17.414  12.950  11.008  0.2330 -0.1755  0.1492
25721W        W41905  15.769  16.408  12.808  0.2703 -0.1396  0.0532
25722W        W41906  13.861  13.308  10.738  0.2752  0.1576  0.0297
25723W        W41907   6.800   7.752  14.940  0.0168 -0.3103  0.0128
25724W        W41908   9.786   5.200  12.908 -0.2606  0.2500  0.2407
25725W        W41909  15.172  11.741   0.301  0.0548 -0.1036 -0.0652
25726W        W41910  15.304   7.593  14.096 -0.2692  0.0529  0.1428
25727W        W41911  14.021  10.325  13.212 -0.3438 -0.1290  0.0985
25728W        W41912   6.898   4.146   0.290  0.0396 -0.1090  0.0797
25729W        W41913  17.792   3.249  10.707  0.1747  0.0456  0.1423
25730W        W41914   9.586   5.616  14.983  0.1168  0.3837  0.1762
25731W        W41915  13.594   0.695   1.650 -0.1955 -0.2260 -0.0653
25732W        W41916  15.401   0.906  11.618  0.4402 -0.1345 -0.0762
25733W        W41917  15.076  12.758  14.524  0.0830 -0.1163  0.0615
25734W        W41918  13.109   3.341  13.491  0.0155 -0.0715  0.2032
25735W        W41919  12.590   8.926   0.826 -0.2788  0.3183  0.0437
25736W        W41920  12.059   4.364  15.116  0.0980  0.0609  0.0550
25737W        W41921  16.508   0.228   2.038 -0.2021 -0.0634 -0.1054
25738W        W41922   6.838  15.327   1.691  0.2703 -0.3222 -0.0518
25739W        W41923  13.423   4.432  12.995  0.1066  0.1506  0.1682
25740W        W41924   8.979   3.762  12.425 -0.1057  0.0189  0.1103
25741W        W41925   8.820   1.835   2.599 -0.0390 -0.1118 -0.2094
25742W        W41926   0.333   8.047   1.422  0.0248 -0.0734 -0.4291
25743W        W41927  12.099   8.392   3.510  0.0287  0.2006  0.2669
25744W        W41928   5.958   4.131  13.463  0.1429  0.0899  0.0988
25745W        W41929  15.226   7.378   2.160 -0.5490  0.0248  0.0999
25746W        W41930   2.299   5.832  13.188 -0.2697 -0.3546 -0.3193
25747W        W41931  17.904   6.109  12.874 -0.0779  0.1812 -0.2507
25748W        W41932  17.290  11.845   1.001  0.0720  0.0003  0.2150
25749W        W41933   1.150   5.012   2.275 -0.3370  0.2211  0.1234
25750W        W41934  10.805   6.859  11.717 -0.1300 -0.0388  0.1998
25751W        W41935   6.931  14.386   1.167  0.1335 -0.1274 -0.4344
25752W        W41936   6.572   8.647  15.159 -0.2129  0.0038  0.1105
25753W        W41937  14.423   7.631  12.675 -0.3730  0.0993 -0.1243
25754W        W41938  16.459   1.702   4.973 -0.1636  0.0372  0.1199
25755W        W41939   6.462  10.111   2.412  0.3804 -0.0665 -0.1024
25756W        W41940   6.569  18.312  14.446 -0.0379 -0.3357 -0.3078
25757W        W41941  14.473  15.856  12.940  0.1254 -0.0800  0.1042
25758W        W41942   8.037  12.950   4.223 -0.1836  0.1449 -0.3732
25759W        W41943  18.421   3.715   0.207 -0.3116 -0.2118 -0.0309
25760W        W41944  16.869  18.683  10.846  0.1247  0.2257 -0.0591
25761W        W41945   4.751  17.713   0.737  0.0710 -0.0085 -0.0369
25762W        W41946   4.080  17.165  11.310  0.2829  0.0382  0.2295
25763W        W41947   4.655   5.677  14.732 -0.1945  0.0262  0.0383
25764W        W41948   5.187  11.764  13.626  0.0352 -0.0597 -0.1055
25765W        W41949   4.435  17.240  10.973 -0.1152 -0.1749 -0.0946
25766W        W41950   7.732   2.706  14.644  0.0362 -0.3347  0.1600
25767W        W41951  10.804  15.412   2.531  0.0324 -0.2227  0.0858
25768W        W41952   5.154  13.191  15.283 -0.0062 -0.0563  0.1888
25769W        W41953  12.111  16.747  10.781  0.0765 -0.0380 -0.0637
25770W        W41954   4.215   7.074  11.342  0.1329 -0.0139 -0.1993
25771W        W41955   2.450  15.049   1.315 -0.2780 -0.0206 -0.2609
25772W        W41956  13.489   4.233  14.881 -0.0742  0.2088 -0.0388
25773W        W41957   1.869   3.733  14.395 -0.0274 -0.1904  0.1500
25774W        W41958   7.974  14.195   4.728  0.1040 -0.0601 -0.1883
25775W        W41959  12.315  16.005  12.972  0.2693 -0.1546 -0.0521
25776W        W41960   6.988   2.897  13.889 -0.3834  0.1959  0.1237
25777W        W41961  11.120   9.134  14.793 -0.0252 -0.0439 -0.2836
25778W        W41962  12.283  17.998  10.727  0.2050 -0.3028  0.3042
25779W        W41963   3.547   1.109  12.096  0.2617 -0.0081  0.1251
25780W        W41964   1.667   4.070   3.784 -0.1732 -0.0877  0.2532
25781W        W41965   2.902  16.834   0.811  0.0505  0.2009  0.1806
25782W        W41966  10.255   5.145  10.954  0.1157 -0.1319 -0.1369
25783W        W41967   6.082  15.939   0.251 -0.0914  0.0930 -0.2477
25784W        W41968   7.141   0.750  15.114  0.1144  0.0648  0.2126
25785W        W41969   5.746  11.684   1.678  0.0613 -0.3100  0.2041
25786W        W41970  10.199   9.933   5.148  0.0693  0.1388 -0.1182
25787W        W41971   2.603   0.989   1.157 -0.0925 -0.1965  0.3674
25788W        W41972  14.116  14.146   3.195 -0.1743  0.1470 -0.3053
25789W        W41973   8.021  11.474  15.035  0.1668  0.2387 -0.3886
25790W        W41974  16.383  10.070  14.277  0.1322 -0.0281 -0.0441
25791W        W41975   0.957  18.889   2.495 -0.2569 -0.2473  0.1427
25792W        W41976   9.064   7.011  10.965  0.3904 -0.1851  0.2052
25793W        W41977  14.298   4.738  14.341 -0.1646 -0.0644 -0.3185
25794W        W41978  18.711   4.946  15.056 -0.1364  0.0384  0.0740
25795W        W41979   8.635  15.416   2.331  0.0397  0.0826  0.1000
25796W        W41980  10.861   0.201  13.887  0.0896 -0.1742  0.0352
25797W        W41981   7.892   9.595   4.672 -0.1785 -0.0408  0.3485
25798W        W41982   5.968  12.117   2.704  0.1860 -0.0495  0.2088
25799W        W41983  17.110  11.046  11.357 -0.0467 -0.1975  0.2226
25800W        W41984   1.074  11.012  11.016 -0.2339  0.0513  0.0426
25801W        W41985   1.026   3.163   5.326  0.0387  0.2629 -0.0190
25802W        W41986   9.608  14.958   1.759  0.1590 -0.1584  0.1435
25803W        W41987  13.992   7.594   1.733 -0.0194 -0.0450  0.1962
25804W        W41988   2.597   6.517   2.109  0.1363 -0.1441  0.1526
25805W        W41989   0.047   2.998  12.212  0.3884  0.0669 -0.0329
25806W        W41990   2.182  15.014   3.480  0.0979  0.0856  0.0540
25807W        W41991  14.047  16.003  11.366 -0.2018 -0.2342 -0.1287
25808W        W41992  18.243   6.693   4.896 -0.1798  0.1200  0.1534
25809W        W41993   2.448   4.312  12.645 -0.0150  0.0200  0.0468
25810W        W41994  16.923   7.151  13.758 -0.4437 -0.2043  0.2175
25811W        W41995   9.336  18.377   2.375  0.0255  0.1009 -0.1685
25812W        W41996  14.690   0.064   0.332 -0.2127  0.0335 -0.2319
25813W        W41997   5.597  16.224  14.363 -0.0886  0.0805  0.0774
25814W        W41998  15.968   6.966  15.319  0.2562  0.0662 -0.2153
25815W        W41999   0.103   7.832  14.598 -0.0626  0.3217 -0.2925
25816W        W42000   1.272   3.300   0.813 -0.1767  0.1217 -0.0721
25817W        W42001   8.221   5.444   3.521 -0.0318 -0.2239 -0.3043
25818W        W42002   3.189   9.079   0.387 -0.0722 -0.0287 -0.2754
25819W        W42003  15.950  16.036  10.975  0.0754  0.1854  0.1792
25820W        W42004   5.892  18.433   1.164 -0.1289 -0.1685 -0.1005
25821W        W42005  12.212  18.820  14.940 -0.0991  0.2123 -0.2713
25822W        W42006  13.623  12.399  14.241 -0.3558 -0.3889  0.1789
25823W        W42007  17.632   0.931   0.431 -0.0068 -0.2198  0.2526
25824W        W42008  10.720  17.252   1.465 -0.1828 -0.1900 -0.2470
25825W        W42009   7.462   8.300  11.905 -0.1800  0.0477 -0.0362
25826W        W42010   8.148   7.424  13.058  0.2333 -0.1636 -0.0030
25827W        W42011   4.239  12.719  11.899 -0.2827  0.0338  0.0045
25828W        W42012   7.258  17.200  14.686 -0.2914 -0.1409  0.0512
25829W        W42013   6.474  12.118   5.096 -0.1370  0.1317 -0.4591
25830W        W42014   4.847   6.744  11.831  0.4257  0.2787  0.2813
25831W        W42015  13.740  11.306   2.314 -0.3844 -0.1460 -0.0053
25832W        W42016   0.432  13.376  14.889  0.2275 -0.1677  0.1489
25833W        W42017  14.846  14.476  11.988 -0.1212 -0.0237 -0.1167
25834W        W42018   4.903  11.412  10.145 -0.0090 -0.3047  0.2833
25835W        W42019  11.889   7.995  12.889  0.0238  0.5685 -0.0148
25836W        W42020  17.720  15.034   4.448 -0.0223 -0.2346 -0.0985
25837W        W42021  10.748   5.784  10.939  0.0169 -0.0447 -0.1528
25838W        W42022  15.323  13.814  12.768 -0.0642 -0.0274  0.1040
25839W        W42023  18.075  17.672   0.483  0.1199 -0.2897  0.5026
25840W        W42024   1.963  17.671   4.601  0.0596  0.1097 -0.0213
25841W        W42025   8.002  18.735  10.305 -0.1237  0.0759 -0.3495
25842W        W42026  12.742  17.024   2.755 -0.2294  0.1148 -0.3069
25843W        W42027   5.594  12.541  12.101 -0.2330 -0.1775  0.0999
25844W        W42028   7.427   9.242  11.988  0.0099 -0.1494 -0.0119
25845W        W42029  14.262  15.716   0.636  0.2478 -0.0496  0.0566
25846W        W42030   6.302   1.132   3.105 -0.1543 -0.0265  0.1582
25847W        W42031   1.551  15.364  12.191 -0.0952 -0.2911 -0.3304
25848W        W42032  10.724   5.013  14.908 -0.2507  0.0556 -0.1809
25849W        W42033  10.050  14.516  13.125 -0.0124 -0.0881 -0.0883
25850W        W42034  16.922   6.503   9.911 -0.2479  0.0852 -0.0745
25851W        W42035   3.916  14.784   0.859 -0.2144  0.0909 -0.1065
25852W        W42036   8.997   4.141   1.886  0.0914 -0.0114  0.2988
25853W        W42037   5.551   1.829  14.525 -0.0984  0.0018 -0.1225
25854W        W42038  10.888  13.176  12.829 -0.4908 -0.0787  0.2298
25855W        W42039  17.207  15.442  11.104 -0.1458  0.1079 -0.3481
25856W        W42040  11.656  15.385   3.285  0.0923 -0.1348  0.0617
25857W        W42041  13.996   6.611   3.071  0.1442 -0.0050  0.3483
25858W        W42042  18.806  13.486   3.396  0.0199 -0.0125 -0.3485
25859W        W42043  13.712   0.419  10.594 -0.0009 -0.1521  0.3906
25860W        W42044  11.025   8.007   4.055 -0.2086 -0.0517 -0.2869
25861W        W42045   0.272   8.208   2.640 -0.2497 -0.0365  0.0336
25862W        W42046  14.767   6.707   5.892 -0.0801 -0.3047 -0.1000
25863W        W42047   4.222   1.649  11.043  0.3993 -0.2682  0.3064
25864W        W42048   2.586  10.107   1.327 -0.0899 -0.1752 -0.2713
25865W        W42049  17.067   9.544   4.133  0.2149  0.2279  0.0744
25866W        W42050   4.232   9.874  12.801 -0.2066  0.1460  0.1575
25867W        W42051   2.368   3.934   4.539  0.0158 -0.1471  0.0402
25868W        W42052   7.187   4.719   4.761  0.0016 -0.0801 -0.1273
25869W        W42053  15.271   7.077   4.541 -0.0844  0.2203 -0.0939
25870W        W42054   0.605  10.482   4.461 -0.1721  0.1307 -0.3304
25871W        W42055   1.179  13.628   3.012 -0.2875  0.3524  0.2503
25872W        W42056  11.042  14.619   3.083  0.3314  0.0096  0.4537
25873W        W42057   9.287   0.809  14.427 -0.1498 -0.2482 -0.0567
25874W        W42058   0.919   5.167   4.606  0.1978 -0.2417 -0.1034
25875W        W42059   3.996   8.229  13.455 -0.1380  0.1637 -0.0871
25876W        W42060  16.011   5.511   1.048 -0.0047 -0.0114 -0.2525
25877W        W42061  16.599   6.582   4.223  0.2151 -0.2032 -0.1411
25878W        W42062   4.670  16.811   0.874  0.1452 -0.0657 -0.4688
25879W        W42063  10.457  13.073  13.168  0.2596  0.0436  0.0693
25880W        W42064   3.803   4.821   0.059  0.2681 -0.0271  0.3235
25881W        W42065  12.360   8.703   4.986 -0.0247  0.0514 -0.3055
25882W        W42066  18.399   6.500  11.772 -0.0711 -0.3143  0.2112
25883W        W42067   3.207   2.577   0.631 -0.1312  0.0355  0.1527
25884W        W42068   1.267  15.983  14.864  0.1814 -0.0311 -0.2981
25885W        W42069   8.438   2.955  13.663  0.2446 -0.1926  0.1431
25886W        W42070   4.093   1.692  14.398  0.0288  0.1167  0.2492
25887W        W42071   8.412  11.492   5.642  0.0744  0.1865 -0.4426
25888W        W42072  15.453   4.078  15.216 -0.0743 -0.2978 -0.0479
25889W        W42073  16.799  18.202   2.620 -0.1500 -0.1002  0.1421
25890W        W42074  11.317   6.390   1.298 -0.0789 -0.2677  0.0094
25891W        W42075   1.539   6.641   3.985  0.2011  0.1995 -0.1909
25892W        W42076   6.498   8.040  11.765 -0.0049 -0.2519  0.1430
25893W        W42077   2.370   3.296   5.434 -0.0838 -0.0206  0.4335
25894W        W42078   9.766  17.948  12.118  0.0480 -0.4335 -0.2782
25895W        W42079  16.230   2.824  12.209 -0.3593 -0.2239 -0.1298
25896W        W42080   7.482  15.179  12.030 -0.1824 -0.1753  0.0250
25897W        W42081   0.329   5.945  14.090  0.1317  0.0037  0.1359
25898W        W42082   3.596   5.362   2.410 -0.1097  0.1550  0.1916
25899W        W42083   5.391  16.196   3.372  0.0814 -0.0802  0.0741
25900W        W42084  14.717   8.937   4.711  0.1727 -0.2729 -0.0491
25901W        W42085  17.203   0.944   3.064  0.0293 -0.1325  0.1398
25902W        W42086   0.518   4.772   5.554  0.0516 -0.0187 -0.1183
25903W        W42087   2.738   5.287   0.718  0.1321  0.1096  0.0285
25904W        W42088  15.367   3.503   0.113  0.0189 -0.1746  0.1995
25905W        W42089   2.752   0.917  11.076  0.0606  0.1248 -0.0334
25906W        W42090  12.262   6.490   1.100  0.0965 -0.0951  0.1364
25907W        W42091   3.876  18.584   4.369 -0.0550 -0.0949  0.1509
25908W        W42092   8.161   0.422  13.591 -0.0442  0.0766  0.2116
25909W        W42093   9.664   3.124   1.080  0.3288 -0.0576 -0.0173
25910W        W42094   7.088   6.693  10.605  0.2071 -0.0547 -0.1157
25911W        W42095   1.936  13.279   0.202  0.2817 -0.1619  0.0258
25912W        W42096  13.972   0.549   0.551 -0.0621 -0.2094  0.0714
25913W        W42097   1.119   9.841  15.083  0.4268  0.0421  0.0449
25914W        W42098  12.662   2.886  14.798  0.2517 -0.0124  0.1046
25915W        W42099   1.661   4.534  14.069  0.1764  0.0474  0.3025
25916W        W42100  15.467   6.028  15.007 -0.2306 -0.3204  0.0795
25917W        W42101   1.092  11.374  14.581  0.0394  0.0080  0.3230
25918W        W42102  17.156  14.252  10.987  0.1536 -0.0662 -0.0771
25919W        W42103   5.619  18.588  12.593 -0.0798  0.0143  0.0578
25920W        W42104  14.254  16.149  13.373  0.0756  0.1383 -0.1667
25921W        W42105  12.949  18.726  10.545 -0.0950 -0.0571 -0.1093
25922W        W42106   7.556   1.238   3.996 -0.1719  0.1711 -0.1713
25923W        W42107  11.037   0.823   0.182  0.3344  0.2149  0.2192
25924W        W42108  10.832  13.133  11.835 -0.2636  0.0439  0.0136
25925W        W42109   4.318  12.890   5.342 -0.0934 -0.0392  0.0242
25926W        W42110  17.285   1.521   5.574  0.0197 -0.0186 -0.1385
25927W        W42111  11.017   1.193  12.466 -0.3881 -0.4600 -0.0561
25928W        W42112   8.117   6.107   0.478 -0.0365 -0.0456  0.1160
25929W        W42113   7.429  10.187  13.201 -0.1412 -0.0032 -0.0248
25930W        W42114   7.016   4.471   0.790 -0.0357 -0.2275  0.1565
25931W        W42115   8.892   7.285  14.950 -0.0524  0.2593 -0.1388
25932W        W42116  10.950   8.810  10.745 -0.3769 -0.1378  0.4239
25933W        W42117   2.116   6.674  12.587 -0.2092  0.1185 -0.0678
25934W        W42118   7.993   8.500   2.266  0.2694  0.0922 -0.1238
25935W        W42119  12.366  16.470   1.082 -0.0403  0.3261 -0.0544
25936W        W42120  13.615  10.403  13.977  0.1933 -0.0187  0.2127
25937W        W42121  12.221   0.417  12.358 -0.1538 -0.1077  0.1843
25938W        W42122   5.126   1.553  13.356  0.3491  0.0612 -0.2234
25939W        W42123   9.264  10.979  13.734  0.1317  0.1845  0.1004
25940W        W42124  13.362   3.761   2.021 -0.0805  0.0228 -0.2967
25941W        W42125  16.004   6.567   4.258 -0.0240 -0.1439 -0.1232
25942W        W42126   0.910   2.395   0.020  0.1028 -0.0570  0.2868
25943W        W42127  13.816  14.627  14.263  0.1592 -0.0254 -0.0684
25944W        W42128   7.328  18.172  15.098  0.0231 -0.4796 -0.0127
25945W        W42129   0.974  13.170  12.211  0.2203  0.1976  0.0907
25946W        W42130   5.184  17.048   2.107  0.1099  0.0305  0.0673
25947W        W42131   0.594  14.116  14.894  0.1627 -0.3192  0.0888
25948W        W42132  13.712   5.277  11.622  0.3406  0.2584 -0.0468
25949W        W42133   8.838  10.613   1.463  0.0256  0.0025  0.2243
25950W        W42134  11.063  13.811  11.124  0.1154  0.0875 -0.1241
25951W        W42135   7.372   3.634   0.752  0.0357 -0.3018  0.0500
25952W        W42136   5.325   2.035   0.817 -0.0965  0.0347  0.1878
25953W        W42137  13.004   9.007  12.690 -0.0660 -0.1425  0.2316
25954W        W42138  12.528  11.841   5.579  0.1889  0.1240  0.1161
25955W        W42139  13.307   7.475   2.632 -0.1673 -0.0357  0.0931
25956W        W42140   1.626   4.824   2.433  0.1099  0.1011  0.0124
25957W        W42141  11.246   6.285   0.800  0.0019 -0.2346 -0.0483
25958W        W42142   7.292  10.286   0.429  0.0916  0.1548  0.2489
25959W        W42143   5.318  14.173  12.670 -0.1541  0.2202 -0.0027
25960W        W42144   8.937   9.417  10.811  0.0497 -0.0500 -0.3361
25961W        W42145  17.385   4.712   1.650  0.2654  0.1626 -0.0800
25962W        W42146   4.384  14.836  13.671 -0.2144  0.2267 -0.0407
25963W        W42147   9.759  14.521  14.657  0.0607  0.2035 -0.0539
25964W        W42148  17.444  13.805  10.872 -0.2450  0.3458  0.3647
25965W        W42149  18.416   7.244   2.258  0.0719 -0.0425 -0.0565
25966W        W42150  14.973  14.072  13.057 -0.2749 -0.1843 -0.1741
25967W        W42151  16.458  16.970  13.812  0.0898  0.2389 -0.0583
25968W        W42152   3.769  10.003   2.723 -0.2225 -0.3148 -0.1195
25969W        W42153  16.497  12.713   9.643  0.0446 -0.0088  0.2845
25970W        W42154   9.330   9.925   3.122 -0.2108 -0.2360 -0.0794
25971W        W42155  15.538  18.519  12.096 -0.0672  0.2300  0.3756
25972W        W42156  16.934   7.153   1.166 -0.1375  0.2932 -0.0166
25973W        W42157   7.508  18.647   1.439  0.1333 -0.0188 -0.1911
25974W        W42158  15.528   3.417   3.864  0.0065  0.0610 -0.2698
25975W        W42159   3.036  14.350   4.282  0.1121 -0.0257 -0.0357
25976W        W42160   6.575   9.460   3.695 -0.0069  0.1277 -0.0117
25977W        W42161  13.221   1.029   1.754 -0.1066 -0.2288 -0.0141
25978W        W42162  11.301  16.784   3.213  0.0034  0.2706  0.0550
25979W        W42163   2.742   4.282   4.553 -0.0382 -0.3839 -0.1235
25980W        W42164   4.210   5.862  14.686 -0.1715  0.1059 -0.2031
25981W        W42165   5.762  12.574   1.512  0.1949  0.1590  0.0982
25982W        W42166  16.178   6.910   2.777 -0.0876  0.0132  0.0193
25983W        W42167   6.021  16.225   0.658  0.2147  0.0807 -0.1400
25984W        W42168  18.344   4.650   1.792  0.3331  0.1327 -0.1553
25985W        W42169   9.027   5.698   4.242 -0.2036  0.0933  0.0768
25986W        W42170   6.252  12.285  15.262  0.1495 -0.1648 -0.0711
25987W        W42171   7.115  17.886   2.305 -0.0244 -0.1885  0.0955
25988W        W42172   1.767   5.739   5.396  0.2742  0.1965  0.2320
25989W        W42173  16.452   3.006  13.512 -0.1723  0.1340 -0.0022
25990W        W42174  13.989  17.858   1.447  0.0374  0.0672 -0.1201
25991W        W42175  14.599   6.109  15.068  0.2871 -0.0524  0.2092
25992W        W42176  18.829  12.948   3.095  0.1490  0.0208  0.2025
25993W        W42177  12.583   5.378  13.575 -0.4043  0.0151 -0.0187
25994W        W42178  17.712  13.599  13.983 -0.0333 -0.1169  0.1115
25995W        W42179  11.259   6.281   2.927  0.0469  0.4069  0.0119
25996W        W42180  17.293  13.006   4.391 -0.0040 -0.4918 -0.2802
25997W        W42181   7.958   1.742  12.154  0.0478 -0.1280  0.0062
25998W        W42182   1.447  16.591  12.757  0.1786 -0.1791 -0.2082
25999W        W42183  17.314   0.431  12.666  0.1036 -0.1534 -0.2673
26000W        W42184   2.388  12.960   4.037  0.0617  0.1605 -0.2206
26001W        W42185   2.818  11.698  10.055  0.2375  0.0549 -0.0877
26002W        W42186  14.985  14.684   4.441 -0.0181  0.1850  0.2083
26003W        W42187  10.996   3.062   2.197 -0.2606 -0.4520 -0.0230
26004W        W42188   4.912   9.977  12.373  0.0052 -0.4094 -0.0533
26005W        W42189  13.602   8.941   4.695 -0.3401 -0.0308  0.1448
26006W        W42190   0.504   9.011   1.404 -0.1399  0.0323 -0.1637
26007W        W42191   1.572   4.781   1.789 -0.0064 -0.0076 -0.1768
26008W        W42192   7.794   6.721   1.117  0.1427 -0.1225 -0.0974
26009W        W42193   4.091  14.716   4.366  0.0645 -0.0368  0.0938
26010W        W42194   8.325  11.005   0.259 -0.0275 -0.1325  0.0597
26011W        W42195  17.751   0.486  11.780  0.1558 -0.1608 -0.1885
26012W        W42196  18.502  12.159  13.971 -0.0342 -0.2114  0.2684
26013W        W42197  11.303  14.755  10.809  0.1748  0.1354 -0.1936
26014W        W42198  13.696  14.977   2.584 -0.1052 -0.1394 -0.1069
26015W        W42199   7.832  11.827   5.573 -0.0726  0.2576 -0.2501
26016W        W42200   0.495   4.996   3.886 -0.0024 -0.1936 -0.0774
26017W        W42201  18.541  18.209  13.829 -0.1105 -0.1985 -0.1321
26018W        W42202  13.274   8.632  12.430  0.0149  0.2761  0.0834
26019W        W42203   1.237  13.826  11.717 -0.1911 -0.0530  0.0720
26020W        W42204  13.998   8.637   3.641 -0.0661 -0.1382 -0.0819
26021W        W42205   9.953   4.158   4.335  0.0821 -0.1662  0.3296
26022W        W42206  16.554  18.996  14.131 -0.1034 -0.2029 -0.1055
26023W        W42207   7.627   4.054   4.510 -0.0495  0.1147  0.3236
26024W        W42208   6.191  15.763   4.664  0.0708  0.1892 -0.0589
26025W        W42209  11.761   7.992   0.685  0.1244 -0.0031  0.1790
26026W        W42210   5.700   6.889   5.535  0.4890  0.0139 -0.4347
26027W        W42211   7.556  11.029   1.487 -0.1284 -0.0573  0.2682
26028W        W42212   7.158  15.356  11.712  0.0823 -0.1486  0.0326
26029W        W42213   1.338   5.075  13.803 -0.1486  0.1428 -0.0400
26030W        W42214   2.403  14.108  10.996  0.1742  0.0063  0.0017
26031W        W42215  15.103   4.177  11.101 -0.1709  0.0832  0.1962
26032W        W42216   2.878   8.193   1.265  0.0459 -0.0785  0.2975
26033W        W42217   0.638  17.194   2.934 -0.1036  0.0384  0.0625
26034W        W42218  17.289   1.058   4.184 -0.0438  0.0381  0.0687
26035W        W42219   1.295  15.980  12.763  0.0202 -0.4409  0.1651
26036W        W42220  16.888  14.585   3.125  0.1231 -0.0262  0.1010
26037W        W42221   0.602   8.817  14.802 -0.1778 -0.0042 -0.1521
26038W        W42222  15.711   8.912   0.022 -0.1361  0.2969 -0.0928
26039W        W42223  16.556   6.116   3.596  0.1394  0.2574 -0.1284
26040W        W42224  13.176   7.498  11.831  0.0306 -0.2904  0.1694
26041W        W42225  12.271   5.826   1.599 -0.0566 -0.0212 -0.1024
26042W        W42226  16.528  15.394  11.991 -0.1857  0.1423 -0.0701
26043W        W42227  10.624  18.634   1.452  0.4215 -0.0677 -0.5939
26044W        W42228   8.966   1.104   0.131  0.3479 -0.1896 -0.3244
26045W        W42229  18.633   2.252   1.043  0.1401 -0.2855  0.1297
26046W        W42230  16.901  16.393   3.664 -0.0557  0.2009 -0.2938
26047W        W42231  12.566   7.576  11.628 -0.1381 -0.4413  0.1333
26048W        W42232  17.577   8.269   3.664  0.3072 -0.1485 -0.3047
26049W        W42233   3.384  16.576  15.040  0.1394 -0.1049  0.3459
26050W        W42234   4.951   5.988   1.557 -0.4506  0.0152 -0.3939
26051W        W42235   9.046   0.806  11.847  0.4121  0.2162 -0.1671
26052W        W42236   9.938  18.199   3.536  0.0697 -0.1061 -0.0681
26053W        W42237   9.911  12.481  12.608 -0.0852  0.0980  0.3568
26054W        W42238  11.658  11.641  14.224  0.2578 -0.1197  0.0978
26055W        W42239   5.967  15.180   3.797  0.2821 -0.1277 -0.2998
26056W        W42240   7.148  16.757  15.181  0.0648 -0.1380 -0.0635
26057W        W42241  17.929   8.586  10.780  0.0001 -0.0690  0.0724
26058W        W42242  15.778   9.844  15.098  0.0557 -0.0203 -0.0171
26059W        W42243   5.449   1.145  13.532 -0.0370 -0.2468 -0.0745
26060W        W42244   2.913  11.179   4.929  0.1846  0.0106 -0.1214
26061W        W42245  13.862   4.618  14.671  0.1442 -0.2462  0.1872
26062W        W42246  17.947   4.849   1.482  0.2319  0.0509 -0.2831
26063W        W42247  16.862  13.422  14.017  0.1734  0.0655  0.0073
26064W        W42248   4.213   4.874  14.354  0.0278  0.1066 -0.0648
26065W        W42249   6.094  16.167  14.733 -0.1529 -0.7488  0.0888
26066W        W42250   4.819   3.067  11.246 -0.0122  0.0329 -0.1420
26067W        W42251   8.420  13.560   2.390  0.2168 -0.1045  0.1002
26068W        W42252   0.148   1.707   3.349  0.0423  0.0428 -0.1443
26069W        W42253  15.685   6.597  15.180 -0.2237  0.1026  0.1387
26070W        W42254   3.456   3.310   2.495 -0.2026 -0.1092 -0.0760
26071W        W42255  10.970   1.845  13.130  0.0076  0.1800 -0.0759
26072W        W42256  13.341   8.545  11.899 -0.0450 -0.0467 -0.0342
26073W        W42257  10.301  12.577  10.671  0.1057  0.4925 -0.0389
26074W        W42258   1.807  10.197  11.596  0.0361 -0.0039  0.0999
26075W        W42259   8.492   4.087   4.386 -0.0135  0.3471 -0.1170
26076W        W42260  14.895  14.973  15.303 -0.2990 -0.1229 -0.0187
26077W        W42261  14.526   3.168  12.399 -0.2013  0.1426 -0.0195
26078W        W42262  10.848  13.927   4.593 -0.1314  0.0286 -0.4715
26079W        W42263   8.859  17.574   0.784  0.0631 -0.1734  0.1275
26080W        W42264   3.248  18.395  13.926 -0.1532  0.3281  0.0714
26081W        W42265   6.710   5.744  15.185  0.0165 -0.1788 -0.1354
26082W        W42266  15.983   1.652   5.620  0.0586 -0.1131  0.0655
26083W        W42267   5.533  17.051   0.814 -0.3171  0.3964 -0.0635
26084W        W42268  13.171  17.216  11.956  0.0158  0.2316  0.3029
26085W        W42269  11.082   1.252   3.834  0.0304 -0.1450  0.0369
26086W        W42270   1.128  17.069   2.628 -0.4228  0.1095  0.0276
26087W        W42271  17.618   1.254  12.210  0.2715 -0.1792  0.0338
26088W        W42272  18.046  13.073   5.492 -0.1971 -0.0692  0.1769
26089W        W42273   5.423  18.701   4.506 -0.1745 -0.0583  0.1030
26090W        W42274  16.092   6.750  14.897 -0.1005  0.1910 -0.1823
26091W        W42275   5.209   0.578  13.658  0.0579  0.2624 -0.0756
26092W        W42276  17.392   0.200  13.475 -0.0550  0.1535 -0.3517
26093W        W42277   8.480  11.921   1.428  0.0318 -0.3516  0.0918
26094W        W42278  16.947  12.328  10.826  0.3273 -0.1457  0.2819
26095W        W42279  13.037   0.240   4.820 -0.1655 -0.0151 -0.2478
26096W        W42280   2.190  14.788  14.125 -0.1074  0.1266  0.0936
26097W        W42281  11.207   7.850   2.163 -0.0509  0.0941 -0.0440
26098W        W42282  10.952  17.520   2.776 -0.1184 -0.0100 -0.1247
26099W        W42283   9.032  15.821  14.867 -0.4200  0.0014 -0.1258
26100W        W42284   7.387   6.111  13.206 -0.3217 -0.0144  0.2723
26101W        W42285  14.635   2.807   0.276 -0.0568 -0.3906 -0.0451
26102W        W42286   6.873   7.254  13.845 -0.0737  0.2553  0.0752
26103W        W42287   2.143   2.687   0.536 -0.1200  0.1917 -0.1194
26104W        W42288  15.950   2.286  14.239  0.0631  0.1318 -0.0607
26105W        W42289   0.504   9.419  14.866  0.2918  0.1402  0.0198
26106W        W42290   0.483  13.874  11.480  0.0476 -0.0397 -0.1099
26107W        W42291  14.839  18.747  12.824 -0.1665  0.2901 -0.0480
26108W        W42292   0.979  11.200   1.619 -0.3439 -0.3505  0.1505
26109W        W42293   9.351   0.899   1.744  0.3114 -0.0430 -0.2242
26110W        W42294   5.793   0.313   3.523 -0.4427 -0.2031 -0.1394
26111W        W42295  10.692   8.692  11.734 -0.1856 -0.0372  0.0081
26112W        W42296   5.518   6.685  14.921 -0.3373  0.0377  0.1470
26113W        W42297  15.478  11.070  15.113 -0.1509 -0.1611  0.0478
26114W        W42298   4.314   1.860  13.491  0.1216 -0.1008  0.0027
26115W        W42299  16.165  14.367   0.631 -0.1707 -0.0322 -0.1288
26116W        W42300  14.755   9.033  10.310 -0.0389 -0.2492 -0.0636
26117W        W42301   5.140  10.142  12.865  0.0493 -0.0789 -0.1294
26118W        W42302  17.124   3.899  13.473  0.2789  0.2171 -0.1057
26119W        W42303   2.803  15.526   0.364  0.1049 -0.1079  0.0209
26120W        W42304   2.910   3.232  13.746 -0.0032  0.2877 -0.0778
26121W        W42305  14.153   8.399  10.802  0.2176  0.1936  0.2829
26122W        W42306   0.008   3.989   4.115 -0.1804 -0.1158  0.0602
26123W        W42307  13.642  11.197  13.576  0.2370 -0.2829  0.0893
26124W        W42308  14.314   0.796   2.074  0.4238 -0.1609  0.0547
26125W        W42309  11.223   6.542  12.635  0.1080  0.0043  0.2379
26126W        W42310  16.136  18.239  11.784 -0.2501  0.0857  0.1825
26127W        W42311  17.428  16.879  14.310  0.3695  0.4349 -0.2504
26128W        W42312  18.290   7.809   2.020  0.2639  0.0414  0.1983
26129W        W42313  18.430  17.695   2.343  0.0178 -0.0146  0.3895
26130W        W42314  13.339  10.510   1.465  0.0264  0.0394  0.1969
26131W        W42315  10.212   6.948   2.997 -0.0713 -0.1026 -0.2587
26132W        W42316   3.785  15.918   1.521  0.2374  0.1369 -0.2212
26133W        W42317   9.848  13.834   1.913  0.0250 -0.0885  0.1891
26134W        W42318  12.683  17.101  15.348  0.0423 -0.2909 -0.1509
26135W        W42319   2.918   7.496   3.588  0.2098  0.0600  0.0271
26136W        W42320   5.164   8.094   2.109 -0.1884 -0.1414 -0.2902
26137W        W42321   1.727   1.468   0.457  0.1520 -0.3581 -0.0212
26138W        W42322   5.924  12.230  14.541 -0.1470  0.2094 -0.3251
26139W        W42323  13.343  15.110  14.988 -0.0720  0.0348 -0.1911
26140W        W42324  16.330  12.505  14.325 -0.0758 -0.0010 -0.2097
26141W        W42325  11.811   3.808   0.762 -0.1154  0.0302  0.1333
26142W        W42326   8.888  14.826   2.405 -0.1590  0.0019  0.2227
26143W        W42327  16.115   5.003   1.583  0.0106  0.3061  0.0043
26144W        W42328   1.935   9.889   2.046  0.2042  0.1507  0.3395
26145W        W42329   5.470   5.976  11.281  0.0614  0.2823 -0.0505
26146W        W42330   2.223   4.267  15.271  0.1239 -0.0864  0.0861
26147W        W42331   1.545   6.327  13.008 -0.0120  0.2197  0.0930
26148W        W42332   7.572   0.091   4.615 -0.0309 -0.4167  0.3872
26149W        W42333  15.846   0.609  12.135  0.2130  0.1146 -0.0831
26150W        W42334   6.098   0.284  11.540 -0.1403 -0.2899 -0.1292
26151W        W42335   8.180  15.421  10.674 -0.0480  0.2484 -0.0769
26152W        W42336  16.791   2.342   0.297  0.0669  0.0437 -0.1851
26153W        W42337   8.850   1.818   4.168 -0.2431 -0.1772  0.2110
26154W        W42338  15.529  11.287  14.649 -0.3548  0.1234  0.0600
26155W        W42339   1.915   6.956   2.809 -0.3487 -0.0727  0.2235
26156W        W42340   1.629   1.563  14.405  0.1260  0.1991  0.3248
26157W        W42341  16.772  17.064   1.693  0.0662  0.1738 -0.0539
26158W        W42342   8.907  15.145   4.552 -0.2924 -0.1900 -0.0572
26159W        W42343  18.142  18.547   5.022  0.0797  0.1014  0.1605
26160W        W42344  16.366   7.913   3.743 -0.0365  0.2319  0.2466
26161W        W42345  14.479   9.848  14.815 -0.1131 -0.1239 -0.0359
26162W        W42346  14.355  13.027   0.597 -0.2165 -0.0413 -0.0678
26163W        W42347  13.814   4.378  11.909  0.0526 -0.0691  0.4624
26164W        W42348   0.990   6.415   3.260 -0.0790 -0.0513  0.1832
26165W        W42349  17.927  14.161  13.390 -0.0874  0.1007 -0.1003
26166W        W42350  14.843  17.913  13.465  0.0594 -0.1084 -0.0717
26167W        W42351   4.387  11.746  13.144  0.1223  0.1707 -0.1205
26168W        W42352   4.368   0.524  13.037  0.2839 -0.2958  0.0571
26169W        W42353  15.353   3.994   0.891 -0.4265 -0.1788 -0.0561
26170W        W42354  18.778  13.985   5.008 -0.4203  0.1082  0.0701
26171W        W42355  12.589  13.854   3.944  0.2881  0.0514  0.1334
26172W        W42356   4.534   0.797   4.479  0.1751  0.1977 -0.0359
26173W        W42357   8.427  11.452   1.455 -0.1263  0.2564 -0.1695
26174W        W42358  12.017  10.612   1.831  0.0118 -0.1728 -0.1511
26175W        W42359  12.256  17.569  13.208  0.0282 -0.1004 -0.0523
26176W        W42360  13.909   3.728   9.607  0.0218 -0.2520 -0.0880
26177W        W42361  11.165  18.822  13.848  0.2010  0.2051  0.2427
26178W        W42362  16.317  14.420  11.115  0.1421 -0.1289 -0.3263
26179W        W42363  10.860   7.300  10.587  0.0779  0.1424 -0.0389
26180W        W42364  18.246  11.245   2.948  0.2884 -0.1802  0.0720
26181W        W42365   1.957   7.484   3.123 -0.1472  0.1537 -0.0234
26182W        W42366  17.642  13.660   4.738 -0.3028  0.2321  0.1449
26183W        W42367  16.134  14.547  10.684  0.1594  0.0481 -0.1473
26184W        W42368   4.794   4.735  11.346 -0.2073  0.0691 -0.0969
26185W        W42369   7.018  14.629  13.779  0.0332  0.1696  0.2967
26186W        W42370  16.955   9.416  15.224  0.3351  0.1290  0.3603
26187W        W42371  13.383   9.180  11.443 -0.2133  0.0024 -0.1507
26188W        W42372   8.172  14.071   3.433 -0.0949 -0.0118  0.1619
26189W        W42373  15.630   8.970  10.988 -0.2813 -0.3761 -0.3097
26190W        W42374   7.092   4.798  15.303 -0.0152 -0.1776  0.0913
26191W        W42375   6.382  18.155   3.282 -0.3789 -0.3163 -0.0739
26192W        W42376   1.169  10.247  14.684 -0.0867  0.0080  0.1676
26193W        W42377  13.306  11.496   2.140 -0.1070 -0.0299 -0.1990
26194W        W42378  12.206   2.357  10.627 -0.4499 -0.1953 -0.1683
26195W        W42379  13.796   0.905  12.384  0.0653  0.1229 -0.1336
26196W        W42380  14.447  17.300  12.753 -0.1690 -0.1871  0.3126
26197W        W42381   2.417  16.225   4.229 -0.0618 -0.1182 -0.3510
26198W        W42382  14.620   8.610   4.243 -0.0470  0.1716  0.1198
26199W        W42383  18.428  11.698  14.838 -0.0832  0.2340 -0.1595
26200W        W42384   0.902   9.948  12.103  0.0443  0.1984 -0.0350
26201W        W42385  10.726  11.374  12.789  0.2739  0.2575 -0.1085
26202W        W42386   8.985   6.575  11.292  0.3250 -0.0547  0.1773
26203W        W42387   3.849   6.319   2.466  0.1077  0.2348  0.0701
26204W        W42388  15.593  18.880  10.596 -0.2107 -0.0603 -0.1774
26205W        W42389  15.983  15.514   4.912  0.1230 -0.0549  0.2049
26206W        W42390   6.941  14.882  11.245 -0.2207 -0.2557 -0.1477
26207W        W42391   5.850   2.785  11.444 -0.0887 -0.0768 -0.0632
26208W        W42392  12.315   7.716   1.336  0.0908  0.3067  0.0866
26209W        W42393   2.457   6.712   3.626  0.2354  0.0935 -0.0543
26210W        W42394   8.148   0.959  13.481 -0.1296  0.3340  0.0785
26211W        W42395   0.625   1.987  12.396 -0.0500  0.2477  0.0606
26212W        W42396  12.665   3.976   5.145  0.2838  0.0583 -0.4618
26213W        W42397  14.647   8.182   3.944  0.0373  0.0642  0.3014
26214W        W42398  14.010   4.199  12.925  0.0362  0.1453  0.2108
26215W        W42399   2.562   9.636   1.508 -0.1553  0.2004 -0.0930
26216W        W42400   4.301  18.023  12.953  0.0502  0.2155 -0.0541
26217W        W42401   2.030  17.479   0.210  0.2991 -0.2094 -0.2083
26218W        W42402  13.182   6.223  12.671 -0.1005 -0.1343  0.0345
26219W        W42403   2.246  10.877  12.283  0.1341  0.3037  0.2289
26220W        W42404  10.615  11.674  10.050 -0.1199  0.1305 -0.0241
26221W        W42405  12.144   1.882  10.836  0.2303 -0.4033 -0.0534
26222W        W42406   1.740  15.018   1.751 -0.1130 -0.0715 -0.3486
26223W        W42407  12.498   3.867   1.512 -0.0722  0.1911 -0.2155
26224W        W42408   4.708   4.782   1.723 -0.1641 -0.0809  0.0828
26225W        W42409   8.393  10.953  13.632 -0.3808  0.0640  0.1023
26226W        W42410  11.525   9.360  10.855  0.2720  0.1812 -0.3678
26227W        W42411   4.237  15.048   5.163  0.2534 -0.1117  0.2178
26228W        W42412  18.543   5.253   3.306 -0.1044  0.0013  0.1910
26229W        W42413   0.405   0.717   4.607 -0.2862  0.0608 -0.0909
26230W        W42414  15.247  16.803   5.674  0.1634 -0.0965 -0.0591
26231W        W42415  14.826  18.096   4.212 -0.4218 -0.0671  0.0446
26232W        W42416  18.921   0.949   0.457 -0.1635  0.2026  0.1108
26233W        W42417   4.630   8.635   3.738  0.1501  0.0755 -0.0348
26234W        W42418  15.425   6.028  11.362 -0.1735  0.1939 -0.2230
26235W        W42419   6.054   4.012  11.746  0.2638  0.1457 -0.0069
26236W        W42420  15.916   4.688  15.134  0.0750  0.1710 -0.1894
26237W        W42421  18.797   8.143  14.323 -0.1858 -0.2313  0.0571
26238W        W42422   6.940  17.851  13.545 -0.1820 -0.4883 -0.0484
26239W        W42423  10.027  13.462   3.677 -0.3491  0.3480 -0.1665
26240W        W42424   4.757  13.601  11.544  0.0453 -0.3295  0.0432
26241W        W42425   0.939   9.877  10.879 -0.1854  0.2495 -0.0162
26242W        W42426  16.829   1.853  12.587 -0.3369  0.2238  0.0364
26243W        W42427  15.134   0.682  14.050 -0.0585 -0.1402 -0.0611
26244W        W42428  16.994  12.614  12.579 -0.0079 -0.0313  0.3579
26245W        W42429   2.682  14.961  13.947  0.1728  0.2763 -0.1613
26246W        W42430   4.346  11.019  11.842  0.0423  0.1421 -0.1559
26247W        W42431  12.435   2.662   0.990 -0.1536 -0.0765  0.1845
26248W        W42432  12.005   7.096   2.098  0.2870  0.1493  0.0952
26249W        W42433   1.787  12.059   2.064  0.2572  0.2211  0.1881
26250W        W42434   2.273  11.994   3.798  0.2097  0.1033  0.0259
26251W        W42435  11.568  18.998  14.748 -0.2214 -0.0578  0.1029
26252W        W42436   4.143  11.629   4.126  0.0288  0.1772 -0.0951
26253W        W42437  18.934  11.186  13.705 -0.1462 -0.2542  0.1273
26254W        W42438   9.485   7.697   3.312 -0.1949 -0.1894 -0.1730
26255W        W42439  17.561   2.567   4.766 -0.2634 -0.3015 -0.0929
26256W        W42440   0.438   0.291  15.115  0.5064 -0.0739  0.0947
26257W        W42441   0.567  13.450   4.331 -0.1249 -0.5215  0.0576
26258W        W42442   3.775  14.348  14.455  0.1833  0.1390 -0.1793
26259W        W42443   5.964  11.287  12.839  0.1617  0.0361 -0.4578
26260W        W42444   7.992  18.307  10.598 -0.2694 -0.0048  0.1680
26261W        W42445  15.755  14.309   4.069  0.1853 -0.2322  0.1765
26262W        W42446   9.812  10.368   5.776 -0.2184 -0.3940  0.1736
26263W        W42447   9.368   4.736  14.685 -0.3382 -0.1821 -0.0815
26264W        W42448   7.454  12.881   1.688 -0.3463  0.0011  0.0247
26265W        W42449  16.852  16.653   0.078 -0.2122  0.0002  0.0156
26266W        W42450  16.634  14.703  14.930  0.2872  0.0051 -0.1512
26267W        W42451   9.754   0.947  14.639  0.1718  0.1080 -0.0151
26268W        W42452   8.883   5.373  13.876  0.2907 -0.2578 -0.1565
26269W        W42453  14.924   9.185   5.062  0.1008 -0.1119  0.1810
26270W        W42454   4.410  12.318  14.976 -0.3353 -0.0267 -0.3468
26271W        W42455  17.975  12.717  11.613  0.1146  0.0347 -0.1687
26272W        W42456  15.911  12.575   3.159 -0.0586  0.2576 -0.1046
26273W        W42457  10.565  17.264  11.180 -0.0345 -0.0406 -0.0315
26274W        W42458   4.062   8.703  11.082 -0.0806 -0.1220  0.0975
26275W        W42459  18.082   0.144   1.382 -0.0382  0.0308 -0.2010
26276W        W42460  12.856  18.805  11.127 -0.3702 -0.0647  0.4051
26277W        W42461  11.377   1.898  14.869  0.3114  0.2448 -0.4207
26278W        W42462   6.373  12.349  12.961 -0.0695  0.1544  0.0945
26279W        W42463   9.175  10.098   3.605 -0.0243  0.1653  0.2720
26280W        W42464  13.665   4.797  12.722  0.3124  0.0832 -0.0378
26281W        W42465  12.911   7.615   3.880  0.0743 -0.0380  0.1450
26282W        W42466  16.422  12.392   3.928  0.0687  0.0207  0.1524
26283W        W42467   6.393   0.831  15.278 -0.0057  0.2005  0.1453
26284W        W42468   8.698  16.733  13.065 -0.0566 -0.0609  0.1730
26285W        W42469  11.337   2.286  14.497  0.2957  0.3143 -0.0842
26286W        W42470   6.804   7.677  11.044  0.2396  0.1473 -0.0333
26287W        W42471  16.317   3.258   3.985  0.1116  0.0063  0.1605
26288W        W42472   0.852   8.703  13.903 -0.0681 -0.3094 -0.0988
26289W        W42473  14.716   6.725   0.191  0.3040 -0.0705  0.0143
26290W        W42474   9.646  18.424  11.366 -0.2883  0.2316 -0.2058
26291W        W42475   9.054  13.088  15.133 -0.1477  0.0914  0.1101
26292W        W42476   3.875  16.302   0.423 -0.2589 -0.4728  0.2420
26293W        W42477  16.057   0.481   2.146  0.0675 -0.1602 -0.1595
26294W        W42478  15.478   7.726   4.130  0.1780 -0.2135 -0.0105
26295W        W42479   5.988   7.847  14.355 -0.0771  0.0875  0.3609
26296W        W42480  14.439   8.016   0.914 -0.2357 -0.1871 -0.2261
26297W        W42481   9.856  18.083  11.604  0.2078  0.3610 -0.0521
26298W        W42482  18.126   0.401   5.037 -0.0734 -0.1380 -0.2564
26299W        W42483   4.786  12.183  11.649 -0.3497  0.2915 -0.0008
26300W        W42484   6.891   6.902  12.495 -0.1356 -0.0388  0.1320
26301W        W42485  14.036   7.824  11.950  0.0373 -0.0021  0.0391
26302W        W42486  17.015  13.085  13.487 -0.0281  0.1507 -0.1240
26303W        W42487  17.255  10.314   3.479 -0.1749  0.2729  0.0949
26304W        W42488  16.230   6.036   4.525  0.2254  0.1928  0.0164
26305W        W42489   9.985  11.405   5.110  0.1060  0.0625  0.0867
26306W        W42490   2.524   3.092   1.770  0.0732  0.0930 -0.3642
26307W        W42491  16.209   7.048   2.246 -0.1283  0.1010  0.0735
26308W        W42492  12.745   5.080  11.240  0.1002  0.0426 -0.0293
26309W        W42493   9.358   1.050  12.174  0.0023  0.2604 -0.0168
26310W        W42494   0.585   5.409   3.503  0.1985  0.1023  0.0251
26311W        W42495  18.599  18.311   5.202 -0.3096 -0.0811 -0.1693
26312W        W42496   2.893  10.774   2.994  0.3319 -0.2485 -0.0348
26313W        W42497  17.959  17.724   3.692  0.2920 -0.2087  0.0776
26314W        W42498   0.543   1.303  10.913 -0.2653 -0.2029  0.2582
26315W        W42499   6.560  18.820  13.528  0.2187  0.1699  0.0602
26316W        W42500   0.190   0.988   3.655  0.3644 -0.0865  0.0700
26317W        W42501  17.585   1.570  10.773  0.0661 -0.1796  0.1090
26318W        W42502   9.989   6.424  15.154 -0.0870  0.4259 -0.1146
26319W        W42503   7.031   6.235   2.338 -0.0978 -0.0104 -0.2230
26320W        W42504   6.928   7.525   5.152  0.1755  0.1726  0.2853
26321W        W42505   0.331  15.329   0.619  0.1247  0.2296 -0.1370
26322W        W42506   3.098  17.490  14.693  0.1026 -0.2124 -0.0843
26323W        W42507   3.423   3.781   4.569  0.3495  0.1652 -0.0062
26324W        W42508   6.307  18.189   4.299 -0.2420 -0.0965  0.3785
26325W        W42509  14.143   6.132  14.818 -0.3973  0.0536 -0.2454
26326W        W42510   9.920   6.467  11.026  0.0798  0.1430 -0.1751
26327W        W42511  16.755  15.440   0.117 -0.1782  0.2034  0.0664
26328W        W42512   7.968  12.189   2.055 -0.1014 -0.0322 -0.0289
26329W        W42513   1.831   6.303   2.158 -0.1071  0.0141 -0.0915
26330W        W42514   7.653   0.739   3.817 -0.0505 -0.0183  0.1995
26331W        W42515  15.989  17.991   2.463 -0.0221 -0.0113  0.0418
26332W        W42516   3.911   3.395  15.125 -0.4819 -0.3318 -0.2209
26333W        W42517   3.457  11.746  13.151 -0.1217 -0.2627  0.0277
26334W        W42518  15.972  18.100  15.177 -0.1440  0.0912 -0.1903
26335W        W42519  18.165   3.868   1.251 -0.2342  0.1034  0.0726
26336W        W42520   1.505   4.745  12.841  0.2432 -0.1057  0.0164
26337W        W42521   2.854   6.952   5.075  0.0970  0.2978 -0.0522
26338W        W42522   5.826   4.525   3.199 -0.2249  0.2376 -0.0340
26339W        W42523  17.260  15.768  13.807  0.0865  0.3091  0.0540
26340W        W42524   0.137  17.795  13.769  0.3039 -0.2305  0.1604
26341W        W42525  13.083   2.607   2.923  0.5340 -0.0133  0.2190
26342W        W42526  12.032  17.910  14.546 -0.2660 -0.0093 -0.0166
26343W        W42527  10.714  16.230  10.232  0.1280 -0.2930 -0.1074
26344W        W42528  10.732   3.163  14.094  0.3347 -0.0457  0.1758
26345W        W42529  13.309  16.999  13.475 -0.0768  0.0876 -0.0247
26346W        W42530   7.644   3.871   2.798  0.3821  0.0630  0.1077
26347W        W42531  14.139   1.356   1.529 -0.1188 -0.0076 -0.1120
26348W        W42532  11.166  10.692  14.254 -0.0370 -0.1124  0.4357
26349W        W42533   3.184  11.856   2.702  0.1732 -0.0003  0.2465
26350W        W42534  16.973  14.245  15.001  0.2968  0.0904  0.1715
26351W        W42535  14.270  13.512  11.036 -0.0235 -0.1549 -0.2055
26352W        W42536  12.741   1.808   2.608  0.1696  0.2974  0.0850
26353W        W42537  18.002   3.057  13.209 -0.1045 -0.0870 -0.0853
26354W        W42538   7.465  18.440  12.217 -0.0842  0.1341  0.3853
26355W        W42539  18.171  13.937   1.611 -0.0228  0.2824  0.1308
26356W        W42540  17.328   8.823   2.396  0.1925  0.1426 -0.3706
26357W        W42541   5.602   8.589   4.746 -0.0424  0.1496  0.0455
26358W        W42542   8.795   0.572  11.056  0.1782 -0.0643 -0.1399
26359W        W42543  12.903  14.867  15.199 -0.0596 -0.0804  0.0796
26360W        W42544  17.310   7.253  13.462 -0.0669  0.1581  0.0754
26361W        W42545   8.543   4.822   2.622  0.0252  0.0593  0.0925
26362W        W42546  11.968  16.103   0.909 -0.1486  0.1950  0.0129
26363W        W42547  10.277   3.102   1.797 -0.0368  0.0996  0.1444
26364W        W42548   0.668   8.786  12.215 -0.2143  0.0163 -0.0573
26365W        W42549   1.385  11.168   1.905 -0.3730  0.0763 -0.0487
26366W        W42550  15.948   1.651  13.091 -0.2642 -0.1207  0.1354
26367W        W42551   6.552   3.544  14.552 -0.0785  0.0247  0.2333
26368W        W42552   6.823   7.226   2.498  0.0158 -0.2784 -0.0934
26369W        W42553   1.766  16.863  13.815  0.0925 -0.0570  0.0816
26370W        W42554  12.496  17.645   1.838  0.0145  0.1338  0.0545
26371W        W42555  16.589   5.730   0.577 -0.3100 -0.2426  0.1132
26372W        W42556  15.917  13.384   6.058  0.2810 -0.4132 -0.0971
26373W        W42557   7.158   8.636  11.425 -0.1023  0.2057 -0.2196
26374W        W42558   1.860  12.895   4.056 -0.0365 -0.2400  0.1946
26375W        W42559  14.438   4.327  15.277 -0.2095  0.2733  0.0563
26376W        W42560   3.663   1.646  10.862  0.2496  0.0419  0.0031
26377W        W42561   9.033   7.511   3.189 -0.1103  0.0722  0.2284
26378W        W42562  14.296   8.160   4.312 -0.0603  0.2902 -0.0190
26379W        W42563  17.638   4.300  11.522 -0.0701  0.0239  0.1824
26380W        W42564  13.689  14.905   4.270 -0.0493 -0.1044 -0.0793
26381W        W42565  11.439  12.899  14.611  0.0978 -0.1306 -0.0708
26382W        W42566  18.299  12.154  14.516 -0.0260  0.2031 -0.1137
26383W        W42567  17.719   9.005   1.314  0.3837 -0.0392  0.1075
26384W        W42568   1.083   3.462   4.911 -0.0325 -0.2575  0.0078
26385W        W42569  18.595  11.519   1.822 -0.2824 -0.1327  0.0639
26386W        W42570   5.684  12.029  12.265 -0.3195 -0.1960  0.1320
26387W        W42571  13.673   8.290  12.220  0.3100 -0.1312  0.0584
26388W        W42572  15.647   7.147   4.861 -0.1531  0.0493 -0.2141
26389W        W42573   7.249  16.223  13.106  0.1413 -0.0792  0.2395
26390W        W42574  16.966   6.418  12.603 -0.3508  0.2097  0.4234
26391W        W42575   7.713   9.273   0.573  0.0382  0.0334 -0.3555
26392W        W42576  13.866   0.818  13.029 -0.0496 -0.2894  0.2487
26393W        W42577   4.276  15.806   2.814 -0.2642  0.0817 -0.1007
26394W        W42578  13.297  11.572   3.882  0.1215 -0.2468 -0.3825
26395W        W42579   8.119  13.572  10.945  0.0819 -0.0156  0.2423
26396W        W42580   5.089   7.048  13.085  0.0218 -0.2624 -0.0532
26397W        W42581  16.114  14.288  13.789  0.0285 -0.1353  0.0279
26398W        W42582  18.720  11.002   0.738 -0.3973 -0.0155 -0.2908
26399W        W42583  10.724  16.980  12.147 -0.0682  0.1384 -0.3216
26400W        W42584   8.682   8.201  11.202 -0.1480  0.2406  0.3037
26401W        W42585   8.827   8.431  13.635 -0.0092 -0.1884 -0.3464
26402W        W42586   2.568  16.863  12.359 -0.1046 -0.0236  0.1021
26403W        W42587   5.377   4.952   3.764  0.3206 -0.3658  0.0352
26404W        W42588   8.505   1.136   1.373  0.0133  0.2304 -0.1727
26405W        W42589  17.230  18.116  13.286  0.2623  0.1131  0.0371
26406W        W42590   8.635   8.794  14.978 -0.3940 -0.0851 -0.1375
26407W        W42591  17.828   9.004  14.597  0.0767  0.0724 -0.1915
26408W        W42592  17.719  12.640   5.780  0.0612  0.1095 -0.1165
26409W        W42593   7.370   5.178  15.084 -0.0367  0.0596  0.2178
26410W        W42594  12.560   8.220   4.555  0.3332  0.1874 -0.0754
26411W        W42595  11.146  14.105   3.895  0.0167 -0.0101 -0.1123
26412W        W42596   1.959   4.523   3.908  0.0733 -0.2747  0.0344
26413W        W42597   4.173  16.141   1.389 -0.3536 -0.3380  0.1091
26414W        W42598  18.321   1.315  11.409 -0.1247 -0.1967  0.2207
26415W        W42599  15.934  15.339   0.653  0.3156 -0.0398  0.0499
26416W        W42600   9.527  14.301   1.313  0.2034 -0.3894  0.0890
26417W        W42601   8.579  14.776  15.072  0.3013 -0.2410 -0.0267
26418W        W42602  15.904   9.971   1.312 -0.1818  0.0719 -0.0735
26419W        W42603   2.276  15.949   4.639  0.0552  0.1259  0.2785
26420W        W42604  15.805   6.116   0.509 -0.1586 -0.0497  0.2516
26421W        W42605   4.038  14.883  13.017  0.0511  0.1605  0.1415
26422W        W42606  17.875   0.543   2.730 -0.1234  0.0933  0.1135
26423W        W42607   5.042  18.284   3.154 -0.0705  0.0315  0.1408
26424W        W42608  10.605   4.907   0.030 -0.0731 -0.1620 -0.0930
26425W        W42609   6.139   8.526   3.968 -0.2933 -0.0168 -0.0112
26426W        W42610   7.739   3.328   4.881 -0.1152 -0.0027  0.2538
26427W        W42611  16.189  12.748   2.810 -0.2612  0.2264 -0.1767
26428W        W42612   7.093   7.386  14.974 -0.0295 -0.0237 -0.3282
26429W        W42613   7.264   9.816   2.856  0.2668 -0.2016  0.0551
26430W        W42614   8.734  13.076   4.133 -0.1060 -0.0571 -0.1001
26431W        W42615  13.699  14.629  11.183 -0.0235  0.1219  0.3023
26432W        W42616  11.049  10.647   4.321 -0.2619 -0.1964  0.2287
26433W        W42617  11.221  12.520   1.399  0.2040 -0.1154 -0.1176
26434W        W42618  15.668  15.424  10.386 -0.0473  0.1756  0.1515
26435W        W42619   5.448  16.992   2.852 -0.1123 -0.0999 -0.2964
26436W        W42620   8.755   8.509   0.614  0.0702 -0.0952 -0.0762
26437W        W42621  14.694  13.192  13.526  0.3444  0.1824  0.1451
26438W        W42622  16.710   6.959   3.330  0.1264 -0.0205  0.1765
26439W        W42623  18.730   9.665  12.597 -0.0473  0.2977 -0.1618
26440W        W42624  14.679  13.993   5.948  0.3388  0.1444 -0.2429
26441W        W42625   0.317   4.824   0.464  0.0648 -0.0222  0.2653
26442W        W42626   6.870   9.704   3.287 -0.1819  0.2491 -0.0711
26443W        W42627   9.261  13.140  10.614 -0.2259  0.1229  0.2627
26444W        W42628  11.381   7.496  14.370  0.3263 -0.2309  0.0384
26445W        W42629   7.183  15.161  10.814 -0.2169  0.0738  0.0030
26446W        W42630  17.964   8.183  11.674  0.1187 -0.1846 -0.0834
26447W        W42631   0.558  17.263   0.582  0.2995 -0.0591  0.2616
26448W        W42632  12.951  17.209  11.430  0.3020 -0.0431  0.1097
26449W        W42633   0.079  13.883   2.587  0.1434  0.2166  0.0775
26450W        W42634   4.160  10.091   2.339  0.0068 -0.1960  0.1046
26451W        W42635  17.177   5.361   3.307 -0.1898 -0.4871  0.2535
26452W        W42636   9.515   3.558   1.491  0.1665  0.0731  0.3450
26453W        W42637   0.629   3.849   1.334 -0.0362 -0.2025 -0.0750
26454W        W42638   8.420   9.493   4.655  0.3700 -0.0235 -0.1289
26455W        W42639   8.448  14.685  12.739  0.1494 -0.2041  0.0967
26456W        W42640   1.574   9.967  14.858 -0.0859  0.0321 -0.1318
26457W        W42641  10.404   7.967   2.689  0.2626  0.0328  0.0955
26458W        W42642   6.788  13.394  15.166 -0.1285 -0.3002 -0.0407
26459W        W42643  13.411   7.346   0.535  0.1257 -0.3203  0.0902
26460W        W42644  10.809  16.571  12.911 -0.1843  0.2739 -0.1677
26461W        W42645  15.105  18.328   2.715 -0.2853  0.0766  0.2959
26462W        W42646  14.590  15.557   1.904  0.2398 -0.0121  0.0552
26463W        W42647  17.324   5.552   3.791 -0.2208  0.1842  0.0457
26464W        W42648   4.373  11.310  14.667  0.0452  0.2518  0.1666
26465W        W42649  11.026   9.887   2.989  0.1476  0.1701 -0.0316
26466W        W42650   2.267  14.449  12.537  0.0760  0.0302  0.0477
26467W        W42651  17.257  17.165   1.643  0.1601  0.1906  0.2310
26468W        W42652  15.014  11.447  11.902  0.0316 -0.3631  0.0439
26469W        W42653   9.176  18.395   0.234  0.2265 -0.1409  0.1061
26470W        W42654   5.328   3.850  12.517  0.1665 -0.0007 -0.0354
26471W        W42655  15.798   6.814   3.167  0.3561 -0.1687  0.4373
26472W        W42656   5.657  17.615  12.834  0.2766 -0.0787 -0.1488
26473W        W42657  14.440   2.070   4.880 -0.2451  0.0105  0.0456
26474W        W42658   1.715   7.982   2.691 -0.0948  0.0341 -0.1368
26475W        W42659  16.996   0.646   5.080  0.1703  0.1083 -0.1626
26476W        W42660   7.918  10.168   3.010  0.0516  0.1908 -0.1696
26477W        W42661  16.302   0.318  12.900 -0.2194  0.0648 -0.1303
26478W        W42662   1.657  10.098   2.485 -0.1785 -0.3472  0.2208
26479W        W42663   1.338  16.829  11.660 -0.4180 -0.3399 -0.2015
26480W        W42664   9.639   7.581   0.051 -0.0058  0.0963 -0.3608
26481W        W42665   5.662  17.065  14.036  0.1593  0.1332  0.0182
26482W        W42666  11.181   0.691  12.785 -0.0031 -0.1012  0.2424
26483W        W42667  12.527   1.250  13.154  0.1093 -0.0469  0.0500
26484W        W42668  13.468   4.786  10.676  0.3338 -0.2701 -0.1771
26485W        W42669  18.343  12.524   2.126 -0.4210  0.0341  0.2750
26486W        W42670   4.621  16.183  13.361  0.0682 -0.0986  0.0868
26487W        W42671   9.114  10.631  14.819 -0.2325 -0.2528 -0.1134
26488W        W42672  16.770   8.134  12.440  0.4855  0.2423  0.1270
26489W        W42673   2.017   2.297   1.758 -0.0261  0.1836 -0.1018
26490W        W42674  17.324  11.899   3.747 -0.0076  0.6255 -0.3809
26491W        W42675   1.063   3.663   2.549 -0.1724 -0.0087  0.1495
26492W        W42676   6.198   5.739   0.693  0.1320  0.0395  0.0295
26493W        W42677  11.098  17.854  12.234 -0.2139  0.0907  0.0479
26494W        W42678  16.238  14.261  12.080  0.0140  0.2865 -0.0707
26495W        W42679  12.767   1.139   1.925  0.2573  0.2365 -0.2760
26496W        W42680  15.000   5.122  11.055 -0.1373 -0.0854 -0.4448
26497W        W42681  16.331   5.134   2.886 -0.2508 -0.1174 -0.0476
26498W        W42682   9.083  18.462  13.129  0.2883  0.2525 -0.0820
26499W        W42683  18.543  15.275  11.837  0.0858 -0.2033  0.0610
26500W        W42684  18.986   8.989   0.599 -0.4429  0.0778  0.1102
26501W        W42685  12.849   2.029  14.692  0.0108 -0.1843  0.0491
26502W        W42686  18.750   5.222  11.039 -0.1038 -0.2280 -0.0344
26503W        W42687  10.676  18.986   2.916  0.2760  0.2003 -0.3202
26504W        W42688  14.445   6.178   4.148  0.3339 -0.0917  0.0525
26505W        W42689   2.263   4.407   2.590  0.0338 -0.0845  0.0247
26506W        W42690  10.416  17.626  15.215  0.5236 -0.1360  0.0104
26507W        W42691   8.375   9.659   0.304  0.0454  0.2301 -0.1360
26508W        W42692   0.570   2.172  15.117  0.1929 -0.0261 -0.1678
26509W        W42693   5.813  11.729  13.001  0.1892  0.1571 -0.1483
26510W        W42694   7.220  15.730  13.160  0.0780  0.0773  0.2208
26511W        W42695   6.890   3.913   0.854 -0.0251  0.1604  0.1477
26512W        W42696  12.837  12.705  14.503  0.2247  0.2824 -0.1536
26513W        W42697   7.940  16.745   2.231 -0.0137  0.1225 -0.0252
26514W        W42698   6.146   7.294  12.039 -0.1689 -0.1224  0.3631
26515W        W42699   8.635  16.550   2.855  0.1712  0.0051  0.0497
26516W        W42700   4.369  15.579  12.295  0.2932 -0.0790 -0.2127
26517W        W42701   8.023  17.865   2.388  0.1416  0.0219 -0.2505
26518W        W42702   2.520   0.649  12.961  0.3146  0.2202 -0.0035
26519W        W42703  12.094   4.488  13.728 -0.1880  0.0915  0.2770
26520W        W42704  11.663  17.336  13.285  0.0920 -0.3687  0.0706
26521W        W42705   8.227  16.003   3.496  0.0482 -0.1192  0.1512
26522W        W42706  18.535  15.155   0.951  0.4946 -0.3560 -0.2773
26523W        W42707  12.964  16.928  11.028 -0.3134 -0.0273 -0.0302
26524W        W42708   7.233   7.427   4.189 -0.6416  0.1885  0.0588
26525W        W42709  16.166  11.898  13.326  0.1674  0.1084  0.1223
26526W        W42710   3.711   1.325   2.658 -0.0562 -0.1393  0.4547
26527W        W42711  16.397  11.309   4.978 -0.0324 -0.2445 -0.0646
26528W        W42712   4.878   4.580   4.960 -0.1545  0.0619 -0.0531
26529W        W42713  10.784  16.149  11.114 -0.1263  0.0575  0.2961
26530W        W42714   5.356   7.484   0.548 -0.3783  0.0053 -0.0486
26531W        W42715  10.958   9.498   2.079 -0.1375 -0.2715 -0.2377
26532W        W42716  10.415   7.469  15.151 -0.1382  0.0367  0.0229
26533W        W42717  11.526  16.907  15.275 -0.2760  0.3004 -0.1052
26534W        W42718  16.530  11.364  12.508 -0.2243 -0.2089  0.1218
26535W        W42719  11.206  18.597   1.795  0.0130  0.2568 -0.0047
26536W        W42720   7.975   2.373  14.943 -0.0783  0.3031  0.0927
26537W        W42721  15.686  15.700  13.854  0.1421 -0.3070 -0.2877
26538W        W42722   8.805   9.777  12.427 -0.4385  0.0681 -0.0360
26539W        W42723  15.103   2.964  13.207 -0.1208  0.2292 -0.0794
26540W        W42724  18.410  14.422   5.198  0.0891  0.2830  0.1764
26541W        W42725  11.746   1.127  11.825  0.4179 -0.2434  0.0041
26542W        W42726   9.976   4.065  12.222  0.0803  0.0104  0.1218
26543W        W42727   0.861   3.737   3.051  0.1904  0.1522  0.0126
26544W        W42728  18.048   4.045  14.435 -0.3891  0.3942  0.0635
26545W        W42729   5.957  15.844   2.880 -0.1745  0.3270  0.1974
26546W        W42730  10.063  17.674   1.588 -0.0762  0.1611  0.1694
26547W        W42731   2.413  16.378  12.238  0.0437  0.0733  0.0831
26548W        W42732   2.374  12.031   1.604  0.3627  0.2032 -0.1859
26549W        W42733  16.952  18.155   3.555 -0.1092  0.0546 -0.1689
26550W        W42734   4.417   5.458   3.539  0.2333 -0.0284 -0.0901
26551W        W42735   0.620  17.676  10.151  0.0521 -0.3882  0.3511
26552W        W42736  15.318   3.713  12.605 -0.0181 -0.0899  0.2214
26553W        W42737   8.780  11.446   2.700  0.1537  0.0588  0.1779
26554W        W42738   4.088  14.992  12.511  0.1054  0.0242  0.2101
26555W        W42739   6.025  14.759   3.490 -0.4902  0.2959 -0.1146
26556W        W42740  13.811  16.876   0.269 -0.1311  0.0374  0.0778
26557W        W42741   9.460  14.431  11.277 -0.3077 -0.1692  0.0817
26558W        W42742  13.531  10.120  13.417  0.1255 -0.0069 -0.2868
26559W        W42743  17.847   5.134  12.788  0.1330 -0.0277  0.2063
26560W        W42744  12.697  11.569  14.797 -0.1949 -0.0269  0.0954
26561W        W42745   5.397  13.700  12.161  0.0486  0.0184  0.1857
26562W        W42746  12.537  11.715  13.026  0.0901  0.0732  0.0567
26563W        W42747  10.129  12.773  13.897  0.0277 -0.3518  0.2350
26564W        W42748  15.929   6.139   3.946 -0.0887  0.0447  0.2100
26565W        W42749   1.012   2.323  13.778 -0.2306  0.0711  0.0228
26566W        W42750   0.989  15.379   1.274  0.0084  0.0282  0.0224
26567W        W42751   6.260  16.858  11.102 -0.0661  0.0108 -0.1195
26568W        W42752  11.400  12.064  11.521  0.1410 -0.1336  0.0348
26569W        W42753  17.700  14.494  11.608  0.1489  0.1293 -0.2105
26570W        W42754  13.972  12.056   1.776 -0.2183  0.1279  0.0448
26571W        W42755  13.505   9.258   0.875  0.4867 -0.0368 -0.2066
26572W        W42756   0.219   6.724  10.836  0.3520  0.1377 -0.1193
26573W        W42757   5.454   1.167   2.731  0.2891 -0.0108 -0.0438
26574W        W42758   7.989  15.872  14.377 -0.1411  0.3119  0.0044
26575W        W42759   8.324   6.399   2.963  0.1820 -0.0359 -0.2527
26576W        W42760   6.728   0.976   3.311  0.2955  0.0301  0.0194
26577W        W42761  12.563   2.568   4.008  0.0733  0.2790 -0.1825
26578W        W42762  12.449   5.066   1.097  0.1909  0.1374  0.1623
26579W        W42763   1.624  12.977   5.243  0.0012 -0.0609 -0.1184
26580W        W42764   3.804  10.477   2.444 -0.0831  0.0584  0.0219
26581W        W42765   9.504  10.798  12.168 -0.2944 -0.2723 -0.0010
26582W        W42766   8.701   3.658   4.158 -0.1726 -0.1484  0.1150
26583W        W42767  15.547   7.610   4.679  0.0665 -0.1783 -0.1896
26584W        W42768  12.775   4.702   3.911  0.2575 -0.3242  0.1252
26585W        W42769   4.438  15.880   0.957 -0.1947  0.0967  0.1734
26586W        W42770  15.078   6.852   1.380  0.0590  0.2644 -0.1347
26587W        W42771   6.031  10.163  13.364 -0.1362 -0.0244  0.1047
26588W        W42772   9.092   2.500  12.712 -0.1900 -0.2006  0.0204
26589W        W42773  18.652   9.689  11.908 -0.1947  0.0989 -0.1817
26590W        W42774   3.005  11.991   5.989 -0.1322  0.0265 -0.1563
26591W        W42775   4.612  16.716  10.756 -0.2614 -0.1818  0.5626
26592W        W42776   5.864  11.851   2.137  0.0198 -0.1523  0.7307
26593W        W42777  15.681  18.078  11.559 -0.0236  0.3672  0.0934
26594W        W42778   3.619  15.296   2.171  0.2048 -0.0420  0.1501
26595W        W42779   8.819   1.373  12.939  0.1029  0.0389 -0.0706
26596W        W42780   4.465  14.425  14.649  0.0356 -0.1104 -0.1091
26597W        W42781   2.955   9.201  13.137 -0.2814 -0.2066  0.1124
26598W        W42782  10.264  14.332  10.138  0.0229  0.1956 -0.1311
26599W        W42783   3.383   6.526   9.710 -0.0641 -0.2167  0.0533
26600W        W42784  12.745   8.189   0.284  0.1678  0.0010  0.2504
26601W        W42785   0.343  14.178   4.924 -0.1534 -0.2058  0.0130
26602W        W42786   4.647   2.022   1.184 -0.0990  0.1713  0.1289
26603W        W42787  14.865   3.497  13.197 -0.0620  0.4031  0.1186
26604W        W42788  14.105   0.841   1.432 -0.0093  0.3116 -0.1013
26605W        W42789  14.533  15.346  14.095  0.0528  0.1563 -0.2471
26606W        W42790   2.192  12.784   3.610  0.3238 -0.1951 -0.1665
26607W        W42791   4.531   1.227  10.276 -0.0723 -0.0297  0.1675
26608W        W42792   3.801  13.327   1.129  0.1748  0.0649  0.1751
26609W        W42793  12.547  11.823   3.147  0.1568 -0.0642 -0.0942
26610W        W42794   8.505   6.834   5.778  0.1529  0.0816 -0.3951
26611W        W42795   1.934  14.225   0.113  0.0258  0.0164 -0.1598
26612W        W42796   0.299   9.103  12.242  0.4911 -0.1057  0.0396
26613W        W42797   4.162  16.610  14.935 -0.2328  0.0270  0.2793
26614W        W42798   0.762   3.456  13.138 -0.0405  0.0250  0.3147
26615W        W42799  16.512  18.552  14.527 -0.1336  0.2449 -0.3116
26616W        W42800  18.359  16.347   1.821 -0.0039 -0.2705  0.1413
26617W        W42801  18.645   4.604   5.361  0.1837 -0.1676 -0.0646
26618W        W42802  16.560  14.343  13.987  0.1458 -0.1208  0.1166
26619W        W42803   4.457   7.955  13.529 -0.3769 -0.2644  0.3545
26620W        W42804   1.101  12.255   2.434  0.0794  0.0303 -0.1089
26621W        W42805  14.993  18.822  14.945 -0.0585  0.0056 -0.0135
26622W        W42806   6.003   0.210   2.511  0.0640  0.0113 -0.5728
26623W        W42807  18.316   3.281  12.822  0.1530 -0.1965 -0.0618
26624W        W42808  14.311   9.144  14.518  0.0580 -0.3629 -0.1926
26625W        W42809  13.640  11.777   3.615  0.2497 -0.2097  0.0150
26626W        W42810  10.943   8.736   3.104 -0.2987  0.0180  0.3074
26627W        W42811  15.483   2.278   2.604 -0.3420 -0.1757  0.0886
26628W        W42812   7.111   1.631   0.983 -0.0165 -0.0528  0.1246
26629W        W42813  17.834  14.047   2.596 -0.4141 -0.0544 -0.0384
26630W        W42814  10.442   3.427  10.857 -0.4251 -0.2161  0.0145
26631W        W42815   9.022   3.322   4.376  0.2358 -0.3523  0.0872
26632W        W42816   8.834   8.205   1.554 -0.0341  0.1361 -0.0842
26633W        W42817   0.867  16.093   9.923  0.3221 -0.2143 -0.0723
26634W        W42818  16.489   5.320  10.958  0.1085 -0.0993 -0.1655
26635W        W42819   0.134  12.770  10.836 -0.3534 -0.1221 -0.2059
26636W        W42820   9.613  18.783   0.617 -0.1988 -0.0618 -0.0485
26637W        W42821   3.565   2.356   2.416 -0.1960 -0.2320 -0.0115
26638W        W42822  10.877  11.153  14.867  0.2007 -0.0899  0.0790
26639W        W42823   3.629   4.353   0.701  0.0389 -0.1189  0.1280
26640W        W42824   4.238   6.571  13.061 -0.1176  0.3782  0.2620
26641W        W42825  13.683  18.394  11.587  0.1249 -0.0353  0.0715
26642W        W42826  12.445   6.723  11.211 -0.0312 -0.3265  0.0025
26643W        W42827  14.315   4.957   3.506  0.0545  0.4118  0.0269
26644W        W42828  17.475   4.725   0.428  0.0994  0.0558  0.0606
26645W        W42829  17.510  15.163   2.528 -0.0656 -0.2770 -0.0740
26646W        W42830   9.993   5.245  11.606  0.0963  0.1110  0.3510
26647W        W42831   1.574  17.503  11.064 -0.0007 -0.1815  0.1853
26648W        W42832   5.489  17.907  10.613 -0.1902  0.1255  0.0207
26649W        W42833   7.479  12.663  15.064 -0.0083 -0.1059  0.2867
26650W        W42834  14.059  10.878   2.665 -0.1509 -0.1785  0.0225
26651W        W42835   7.712  14.791   4.175 -0.0269  0.0197 -0.0529
26652W        W42836   3.014  18.880  11.771 -0.3030  0.2119 -0.0816
26653W        W42837   0.798   3.951  15.329  0.1654  0.1775  0.3309
26654W        W42838   0.473   1.920   1.514 -0.1226  0.1321  0.0190
26655W        W42839   8.168   8.321   2.674  0.1719  0.2474  0.0935
26656W        W42840   9.453  13.278  13.217  0.1986  0.0306 -0.1313
26657W        W42841  17.994   1.732  11.632  0.3994  0.1141 -0.2663
26658W        W42842   6.583   6.246  15.372 -0.0247 -0.6430  0.3705
26659W        W42843   6.335  10.929   1.326  0.2326 -0.0074 -0.2265
26660W        W42844   4.586  14.398   1.628  0.2842 -0.2498  0.1963
26661W        W42845  14.398  12.272   4.533 -0.0240  0.0053 -0.3352
26662W        W42846  13.460  15.955  13.166 -0.0313  0.1769 -0.1288
26663W        W42847   2.461   2.275   3.446  0.0613 -0.1445  0.0886
26664W        W42848   6.346  17.337  11.137  0.3268  0.1347 -0.1467
26665W        W42849  18.831  12.013   3.924  0.2928 -0.1535  0.0125
26666W        W42850   6.249   9.756  11.983  0.3165  0.0202  0.4558
26667W        W42851  16.050   6.991  11.114  0.1347  0.2245 -0.0462
26668W        W42852  14.478  14.417   2.405 -0.1010 -0.0836  0.0035
26669W        W42853   8.390  13.168   0.865  0.1443 -0.3627  0.5157
26670W        W42854   3.344   0.217  14.543  0.0864  0.1891 -0.0678
26671W        W42855  18.892   1.305   5.705 -0.0341  0.0339  0.1167
26672W        W42856   7.334   7.492   1.124 -0.2568 -0.0171 -0.1126
26673W        W42857  12.162   0.964  15.038  0.0354  0.2050 -0.1272
26674W        W42858   2.824  15.044   5.267  0.3100 -0.0924 -0.0056
26675W        W42859   0.970  16.416   3.420 -0.0315  0.2587  0.1561
26676W        W42860   7.051   8.625   3.347 -0.1787 -0.0378  0.3563
26677W        W42861  12.211  18.312  11.660  0.0935 -0.0422  0.1349
26678W        W42862  10.380  13.293  10.835 -0.1959  0.1332 -0.0725
26679W        W42863   5.296   0.762  12.810 -0.0173 -0.0973  0.0305
26680W        W42864   8.748   9.018   2.339  0.1680 -0.0829 -0.3997
26681W        W42865   1.213   3.795  14.387  0.1756  0.0662 -0.2518
26682W        W42866   7.159   2.822   5.383  0.1337  0.3086 -0.1842
26683W        W42867  15.729   7.587   2.886  0.2145 -0.2044  0.2376
26684W        W42868   4.400   2.892   1.107  0.0938  0.0475 -0.1786
26685W        W42869   7.611   0.215  12.784  0.1243  0.0858  0.0317
26686W        W42870  10.063   7.918   0.821 -0.0282 -0.2471 -0.0528
26687W        W42871   0.006  18.481   3.447 -0.1942  0.0496  0.4799
26688W        W42872   1.081   2.047   5.754 -0.2397  0.0584 -0.2889
26689W        W42873   3.359   1.535   4.149  0.0933 -0.2484 -0.4943
26690W        W42874  11.754  12.711   5.156  0.1166 -0.1104 -0.0370
26691W        W42875   8.565  14.628  13.681 -0.1566  0.1071 -0.2834
26692W        W42876  13.664   9.272   1.718  0.0817  0.0855 -0.0705
26693W        W42877   8.389  18.860  13.651 -0.1429  0.0964 -0.1681
26694W        W42878  13.571   3.183   1.044 -0.1318  0.2958  0.2029
26695W        W42879  13.954  10.618   0.571  0.0329  0.1586 -0.0713
26696W        W42880   7.711   7.581   2.474 -0.0232  0.0945 -0.0279
26697W        W42881   2.061   5.258   0.308  0.0348  0.1668 -0.3443
26698W        W42882   8.374   6.770  14.483  0.2742 -0.0562 -0.1595
26699W        W42883   9.459   6.653  14.009 -0.0554 -0.1831  0.0032
26700W        W42884  18.431   4.350   0.926 -0.2704 -0.0795 -0.1025
26701W        W42885   7.185  18.603   5.417  0.0906  0.0732  0.2444
26702W        W42886   3.983  16.584   1.939  0.0031  0.2820  0.1807
26703W        W42887  13.164  16.359  13.947  0.0283  0.2386  0.2898
26704W        W42888   3.568   8.724  14.615  0.3592  0.3294  0.1242
26705W        W42889   8.461  13.655   3.598  0.0193 -0.1034  0.1699
26706W        W42890  13.076  13.786   4.000 -0.1258 -0.1387 -0.0293
26707W        W42891  14.509  12.664  12.855  0.2180  0.0129  0.0831
26708W        W42892   5.246  13.435  11.635  0.2228 -0.3722 -0.2757
26709W        W42893  17.461   7.422   4.881  0.1337  0.2754  0.2793
26710W        W42894   6.923  16.131   4.798 -0.2616  0.2788 -0.1480
26711W        W42895   5.808  15.835  11.816 -0.0244 -0.1827 -0.3424
26712W        W42896  12.269   3.858   3.736  0.2611 -0.0850 -0.1928
26713W        W42897   3.510  18.105  11.481  0.2100 -0.0943 -0.2099
26714W        W42898   2.269  12.864  11.602 -0.0588  0.0711  0.0362
26715W        W42899   3.745   5.157  15.086  0.1565 -0.0395  0.0123
26716W        W42900  11.754  14.791   0.222  0.2845 -0.0514 -0.0151
26717W        W42901   2.487  14.741   4.953  0.2017  0.1292 -0.1629
26718W        W42902  14.895  12.322   4.258 -0.1479  0.2001  0.1270
26719W        W42903  14.365   2.789  12.013 -0.2388 -0.1184  0.0044
26720W        W42904  10.886   6.252  12.305  0.0246  0.2571 -0.2526
26721W        W42905   0.729  13.896   6.167  0.1598  0.0979  0.0308
26722W        W42906   7.305   9.146   2.111  0.4300 -0.1674  0.2862
26723W        W42907   7.763   3.140  13.521 -0.1511  0.2914  0.1378
26724W        W42908   8.427   7.555  14.969  0.3532 -0.1241  0.1227
26725W        W42909   5.519   6.185   3.791 -0.2586 -0.1128 -0.1381
26726W        W42910  14.965  15.475   5.185  0.0214  0.2393  0.2255
26727W        W42911  12.987  16.587  13.572 -0.0196 -0.0781 -0.0606
26728W        W42912   9.486  13.222  13.725  0.1167  0.0412  0.0766
26729W        W42913  17.342  16.022   3.101  0.0864  0.0293  0.1943
26730W        W42914   6.580  14.488   1.974 -0.2870 -0.0774  0.0668
26731W        W42915  18.774  14.324   0.820 -0.2903  0.3329  0.1919
26732W        W42916   2.018  17.506   4.122  0.0442 -0.3297  0.0284
26733W        W42917  12.573  13.411   0.819 -0.2949 -0.2737 -0.2759
26734W        W42918  11.992   6.848   0.784  0.0802  0.3867 -0.1505
26735W        W42919   7.104   5.604   0.993 -0.3483 -0.4286 -0.2331
26736W        W42920   4.539   3.970  14.369  0.1798  0.2127 -0.0719
26737W        W42921   6.686  14.492  14.894  0.1331 -0.0814  0.0210
26738W        W42922  11.893  15.381   4.313 -0.0226 -0.0960  0.1283
26739W        W42923  15.641   3.825  11.180 -0.2719 -0.0852 -0.2951
26740W        W42924  18.737  15.733   4.001 -0.3502  0.1080 -0.0713
26741W        W42925   8.373   0.296   5.120 -0.1923  0.1620 -0.3445
26742W        W42926  11.484  17.620  13.690  0.0201 -0.3378 -0.2142
26743W        W42927   7.450   6.606  14.543  0.0214 -0.1771  0.4147
26744W        W42928   1.578   0.969  12.901  0.0078 -0.0610 -0.1439
26745W        W42929   1.413   7.020  12.892  0.1190 -0.1917  0.0751
26746W        W42930   1.603  15.386   2.380  0.0903  0.0083 -0.3549
26747W        W42931   8.512   0.264  13.898 -0.0564  0.1683  0.1646
26748W        W42932  18.529  11.522   4.332  0.0222  0.0160 -0.2246
26749W        W42933   1.232  17.488  12.451 -0.1701  0.1057  0.3778
26750W        W42934   9.507   1.360  10.801 -0.0672 -0.1063 -0.1625
26751W        W42935   4.741   5.479  15.208 -0.0979  0.0423  0.3399
26752W        W42936   4.422  15.535   5.008 -0.1988 -0.3013  0.2962
26753W        W42937   4.121   9.960   0.085  0.2082  0.1617 -0.0387
26754W        W42938  14.384  13.710  11.834 -0.0465  0.0849 -0.2399
26755W        W42939  11.603   5.413   1.492  0.2026  0.3216 -0.0138
26756W        W42940  14.658  10.801  11.987 -0.2607 -0.0330 -0.0166
26757W        W42941  15.576   0.894   3.187  0.1249 -0.0486  0.0584
26758W        W42942   7.791   7.764  12.597  0.2331  0.2310 -0.1806
26759W        W42943   1.642   9.641   3.834 -0.1416  0.3817 -0.0707
26760W        W42944  10.508   2.730   1.445  0.0237  0.0780 -0.0950
26761W        W42945  13.671   7.987  15.000 -0.0270  0.5102  0.1635
26762W        W42946   0.170  16.048   3.923  0.0715 -0.0591  0.0070
26763W        W42947   0.932   1.197  14.646  0.2818  0.0339 -0.4583
26764W        W42948   1.691  18.164   2.120 -0.3754  0.0352  0.0566
26765W        W42949  12.106  15.089  12.707 -0.0488  0.1859  0.0156
26766W        W42950  14.019  10.790   1.454 -0.2002 -0.0518 -0.0189
26767W        W42951   4.486  11.478   2.904  0.0959 -0.1834  0.0075
26768W        W42952  13.179   6.437   1.744 -0.1850  0.1574  0.4037
26769W        W42953  17.697  16.146   2.500 -0.0953  0.0891  0.2201
26770W        W42954   1.140   7.630   1.782 -0.1371 -0.0566 -0.1576
26771W        W42955   4.070  17.983  11.507  0.1461 -0.1508  0.1246
26772W        W42956   3.299  12.988  10.618  0.1695 -0.1259 -0.2619
26773W        W42957  12.939   3.688   4.240  0.1667 -0.1257 -0.2773
26774W        W42958   2.371   4.412  14.549  0.0420  0.1102 -0.0736
26775W        W42959   3.915  15.743   5.276  0.0460  0.0539  0.3576
26776W        W42960  18.256  17.420   2.738  0.2825 -0.2265  0.0106
26777W        W42961   0.530   7.549  13.479 -0.1660  0.0842  0.1948
26778W        W42962  14.893  12.738  13.730  0.0613  0.1916  0.0812
26779W        W42963   0.913   1.510   5.740 -0.0554  0.1751  0.1980
26780W        W42964   7.991   2.364   4.307  0.0975 -0.1439  0.0246
26781W        W42965   0.569  10.631   3.121 -0.0843 -0.2542  0.1042
26782W        W42966   7.257  10.713   1.160 -0.0382 -0.0728 -0.0706
26783W        W42967  18.292   6.712   3.265  0.3449  0.5810  0.1453
26784W        W42968   2.654   5.597  12.982 -0.1608  0.0160 -0.0655
26785W        W42969  16.293   1.398  15.277  0.2305 -0.1773 -0.1106
26786W        W42970   0.739   4.259  11.634 -0.1381  0.2821 -0.1459
26787W        W42971   6.287   4.181   5.037  0.2011 -0.0642 -0.1570
26788W        W42972  16.319   5.667  12.243 -0.0784  0.0721  0.1592
26789W        W42973  12.020  12.265  13.876  0.0028  0.1855  0.1083
26790W        W42974  17.423   7.357   5.683  0.0562  0.2006 -0.2314
26791W        W42975   5.861   7.367  14.167  0.0700 -0.3941  0.3744
26792W        W42976  11.089   4.729  13.418 -0.1729  0.1747  0.0702
26793W        W42977  16.629   8.409  13.378 -0.0992 -0.1861 -0.3054
26794W        W42978  16.993   5.901   1.546  0.0530  0.1272  0.1681
26795W        W42979   3.235   1.145   4.359 -0.2881  0.0515 -0.1319
26796W        W42980   2.727   5.748  11.060 -0.4126 -0.0948  0.2162
26797W        W42981   5.644   0.504  11.499 -0.2606 -0.1781  0.0063
26798W        W42982   7.451  15.164  13.359  0.2879 -0.1609 -0.0461
26799W        W42983   4.256   8.551  13.809 -0.1445 -0.1464  0.1980
26800W        W42984   7.723  15.775   3.664 -0.0284  0.2938 -0.0717
26801W        W42985  16.296  17.392  10.684 -0.0177  0.0984 -0.1348
26802W        W42986   7.198  11.966   1.509  0.0433  0.2739 -0.2268
26803W        W42987  16.561   9.861  12.594  0.2341 -0.2771  0.0307
26804W        W42988  13.978   7.072  13.649  0.1325 -0.0623  0.0678
26805W        W42989   0.995   9.222   1.347  0.2229 -0.0075  0.0580
26806W        W42990   9.142   0.000  13.120  0.2491 -0.0025  0.0171
26807W        W42991   3.004   6.720  13.681  0.0926 -0.0828  0.1382
26808W        W42992   9.035  13.414   3.869 -0.4269  0.0084  0.0680
26809W        W42993   2.047   3.513   0.249  0.1776 -0.0838  0.0996
26810W        W42994  12.245   5.461   4.174  0.3473  0.2855  0.1484
26811W        W42995   4.120  11.563   1.795 -0.2621 -0.3215  0.1415
26812W        W42996   6.182   9.916   5.595 -0.1621  0.1391  0.1666
26813W        W42997  16.309   0.789  13.624 -0.0481 -0.1399 -0.1354
26814W        W42998   0.837   2.374   1.252  0.1809 -0.0204  0.1794
26815W        W42999  13.721   4.940   1.128  0.0117  0.0899  0.1793
26816W        W43000  16.248   9.615   9.952 -0.0358  0.3293 -0.0757
26817W        W43001   4.689  16.401   0.528  0.5142  0.0314  0.0842
26818W        W43002   7.493   7.960  14.297 -0.0843  0.1754  0.1086
26819W        W43003  17.887  18.709   0.208 -0.2551 -0.1505  0.0348
26820W        W43004  17.804   2.258  14.158 -0.0952 -0.2156  0.0505
26821W        W43005   3.158   5.572   3.319  0.3174  0.0852  0.2132
26822W        W43006  12.404   8.846  12.702  0.0514  0.0194 -0.2272
26823W        W43007   6.031  17.379   2.503 -0.0600 -0.0060  0.2702
26824W        W43008   2.910  18.871  13.046  0.0508  0.0182 -0.2093
26825W        W43009   0.988  13.451  13.591 -0.0397 -0.0365 -0.2565
26826W        W43010   3.923  14.791   5.453 -0.0319  0.0086  0.0405
26827W        W43011   9.544   9.503  13.564  0.0746 -0.1334 -0.3727
26828W        W43012   5.441   9.901  13.166 -0.1363 -0.2214  0.0333
26829W        W43013   5.322   5.620  14.648 -0.2878  0.1594  0.0008
26830W        W43014  12.749  13.861   4.405  0.0394 -0.0732 -0.1060
26831W        W43015  12.821  17.141   1.449 -0.1487 -0.7222 -0.1462
26832W        W43016   0.602   5.109  11.685 -0.4013 -0.1133  0.3057
26833W        W43017  10.630  15.810   9.576  0.0135  0.3407 -0.2526
26834W        W43018  13.141  17.915  11.198  0.2264  0.0044 -0.2215
26835W        W43019  10.311   1.167   1.456 -0.4030 -0.0630 -0.2262
26836W        W43020   2.810   5.457   1.851  0.1747 -0.1370  0.3064
26837W        W43021   0.722  11.902   2.179 -0.1166  0.2605 -0.0356
26838W        W43022   8.852  17.846  13.058  0.2517 -0.2973  0.1675
26839W        W43023  16.045   3.026   2.180  0.3340  0.0068 -0.2896
26840W        W43024   3.084  17.348  15.383 -0.1377 -0.0882 -0.3146
26841W        W43025   7.231  18.779   2.209  0.1646 -0.2304  0.0347
26842W        W43026  18.007  12.169   0.606  0.0666  0.0288  0.0701
26843W        W43027   8.953  17.963   4.902  0.0476 -0.0890 -0.0622
26844W        W43028  11.917  17.094   4.304 -0.0075 -0.4463 -0.3530
26845W        W43029  11.470   7.364   0.562  0.1743  0.1116  0.4263
26846W        W43030  17.208  14.916   1.325  0.1580  0.0837  0.0431
26847W        W43031  16.433   9.903  13.636 -0.1534  0.3257 -0.0653
26848W        W43032   6.876  16.226  12.126  0.2488  0.1665 -0.2622
26849W        W43033   0.257   4.633  12.929  0.1211  0.0638 -0.0086
26850W        W43034   0.592   9.443  12.000 -0.3103  0.0861  0.3423
26851W        W43035  16.723   4.331   1.307  0.1558 -0.0464 -0.2056
26852W        W43036  11.641  14.247   3.875  0.0052  0.1960 -0.2006
26853W        W43037   8.922   8.866   0.917 -0.0359  0.0731  0.0698
26854W        W43038   6.489   7.089   5.196 -0.0496 -0.0122 -0.5056
26855W        W43039  10.019  18.232   0.320  0.1770  0.3979  0.2581
26856W        W43040  18.031  10.819   4.824 -0.1654 -0.0322  0.0468
26857W        W43041   6.843   1.117  13.995  0.0300 -0.1488 -0.0278
26858W        W43042  15.949  17.723   4.079  0.1268  0.0344 -0.0993
26859W        W43043   9.696  12.264  14.286 -0.0652 -0.2209 -0.1740
26860W        W43044   6.058  13.877   2.761 -0.1840 -0.2100 -0.1539
26861W        W43045  12.684  16.193   4.573  0.1486  0.0361 -0.0472
26862W        W43046   9.589   5.006   0.214 -0.0464 -0.3403 -0.1820
26863W        W43047  12.241   4.210  10.585 -0.1424  0.0065  0.0147
26864W        W43048   0.244   5.648  10.395 -0.1882 -0.2613  0.0828
26865W        W43049   6.945   4.812  14.816 -0.0785  0.0419 -0.0386
26866W        W43050  16.993   9.032   3.921  0.0133 -0.1528 -0.2397
26867W        W43051   5.950   2.380   2.576 -0.0225  0.2795  0.0367
26868W        W43052   8.947  13.527  15.300 -0.2894  0.1044 -0.0286
26869W        W43053  12.210  16.045   1.398  0.0154  0.1886 -0.1076
26870W        W43054   6.335   4.794   4.410 -0.0865 -0.0054 -0.0877
26871W        W43055  16.246   4.152   1.446  0.0333  0.0104 -0.0167
26872W        W43056  18.504   4.039   4.147 -0.0418  0.1906  0.1837
26873W        W43057  17.020   5.062  14.566 -0.2165 -0.1779 -0.0872
26874W        W43058   1.538   4.112   3.140 -0.2570  0.0159  0.0751
26875W        W43059  13.855  12.813  10.682  0.1881 -0.0885 -0.1432
26876W        W43060   8.432   2.034  14.452  0.1597 -0.0998 -0.2208
26877W        W43061  17.419   7.843   2.380 -0.0993  0.0070  0.1208
26878W        W43062   1.536  16.598  14.185 -0.0807  0.5666 -0.0190
26879W        W43063   0.988   8.616   4.557  0.0559  0.0487  0.1144
26880W        W43064  12.404  17.996   4.117 -0.2028  0.2878 -0.2495
26881W        W43065  18.041   0.569  10.216 -0.0839 -0.1419  0.0683
26882W        W43066  14.314  13.559   4.380 -0.1164 -0.1139 -0.2362
26883W        W43067  11.244  13.641  14.731  0.0457  0.3173 -0.0151
26884W        W43068   2.532  10.972   4.446  0.3371 -0.1023 -0.1688
26885W        W43069   2.003   4.651  14.972  0.0641 -0.3681  0.2080
26886W        W43070   6.044  13.565  12.123  0.1002  0.0805 -0.3327
26887W        W43071   5.878   4.726   1.384  0.2261 -0.2556  0.1824
26888W        W43072  10.733   3.851   2.751 -0.3896  0.0663  0.1553
26889W        W43073  17.416  15.463  12.709  0.2675 -0.1658  0.1383
26890W        W43074  16.588  14.538  11.904  0.1260 -0.2482  0.0078
26891W        W43075   9.258   5.454  12.703  0.2164  0.0280  0.2128
26892W        W43076   6.479  15.799   5.131  0.1495  0.3161 -0.0462
26893W        W43077  18.463   1.297   4.773  0.3385 -0.0186 -0.1190
26894W        W43078  12.253  14.218   2.504 -0.3605  0.0235  0.1078
26895W        W43079   5.273   3.292   0.104  0.1478  0.0821  0.2183
26896W        W43080   5.308   8.524  13.628  0.1607  0.1059  0.0797
26897W        W43081  15.440  17.247  15.371  0.1326 -0.0378 -0.1079
26898W        W43082  14.267   2.745   4.290  0.0157 -0.2395 -0.4596
26899W        W43083  17.956  18.082  12.083  0.1816  0.0249  0.0872
26900W        W43084   6.769   7.151  14.473  0.2434  0.3640  0.0176
26901W        W43085   8.406  17.481   0.920  0.2141  0.0799  0.1134
26902W        W43086  18.757   4.347  12.104 -0.3230  0.0756 -0.1256
26903W        W43087  14.655  15.943  10.992  0.0064 -0.0923  0.4226
26904W        W43088   9.914  10.319  12.433 -0.0945  0.2078 -0.1724
26905W        W43089   3.086   3.636  13.534  0.3172  0.0061 -0.0071
26906W        W43090  10.804  12.014   2.943 -0.1045 -0.3500 -0.0481
26907W        W43091  18.907  18.430  13.184  0.0691 -0.0833 -0.1941
26908W        W43092  14.028  16.037  14.278  0.0975 -0.0776 -0.4205
26909W        W43093   9.851   3.317   4.372  0.2153 -0.1792 -0.0349
26910W        W43094  14.226  17.506   2.660  0.0943  0.1609  0.1386
26911W        W43095   8.465  15.586   2.884  0.0235  0.2224 -0.3360
26912W        W43096   6.297   4.445  11.119 -0.0323  0.1159  0.1808
26913W        W43097   6.134  13.872   4.185 -0.0390 -0.2086  0.0813
26914W        W43098  13.254  14.127   2.039  0.3617  0.3874 -0.2425
26915W        W43099   2.223   0.191  12.342  0.0727 -0.1751 -0.1416
26916W        W43100   9.288   9.824  10.863  0.0105 -0.1149  0.1893
26917W        W43101  15.080   7.782   2.454  0.1947 -0.0197 -0.0034
26918W        W43102   4.302   7.079  11.827 -0.0697  0.1529 -0.1761
26919W        W43103  16.005  11.156  12.306 -0.0104 -0.0519  0.3201
26920W        W43104   1.437   1.555   4.989 -0.0261  0.1456 -0.1236
26921W        W43105  10.254  18.311   2.607  0.0542  0.0938 -0.1217
26922W        W43106  16.753  11.189   0.078  0.0125  0.1090  0.0017
26923W        W43107  13.401   9.933   3.690 -0.0082 -0.0475 -0.0322
26924W        W43108  12.131   4.299  11.109 -0.0380 -0.2654  0.0328
26925W        W43109  18.034  18.974  13.703  0.1781 -0.1391 -0.0987
26926W        W43110   4.155  16.356  10.971 -0.2548  0.2387  0.1689
26927W        W43111   2.759   3.896   4.224 -0.0174  0.5097 -0.0937
26928W        W43112   5.558   8.772  11.010  0.2156 -0.0044 -0.0962
26929W        W43113  14.463  15.438   3.524 -0.2700  0.0989  0.0089
26930W        W43114   2.430  18.007  14.481  0.1556 -0.0198 -0.0675
26931W        W43115   2.741   8.923   2.591 -0.0507  0.0048  0.0324
26932W        W43116  14.570  17.894   3.332  0.3561  0.0440  0.0800
26933W        W43117   8.812  14.826   3.474  0.2273 -0.0694 -0.1707
26934W        W43118   2.273  13.163  12.085  0.3056  0.0804  0.2647
26935W        W43119  16.014  17.936  13.775 -0.0985 -0.1617  0.0901
26936W        W43120  10.359   3.718  12.613  0.0123 -0.0712 -0.0901
26937W        W43121   7.204   4.556   3.325  0.1120 -0.0266 -0.1753
26938W        W43122  11.253  11.771   2.858  0.0475 -0.0259 -0.0379
26939W        W43123  10.709   4.223   2.407 -0.1078  0.2305  0.1854
26940W        W43124   4.833   7.287  14.200 -0.1437 -0.1867 -0.4038
26941W        W43125  10.896   6.274  10.804  0.3101 -0.4791  0.1603
26942W        W43126  11.821  18.489  11.267  0.1348 -0.0050  0.1257
26943W        W43127   2.044  18.216   2.569  0.0738 -0.3739 -0.0606
26944W        W43128   3.023  13.170   1.619  0.1415 -0.4053 -0.0425
26945W        W43129  15.481   2.188   4.244 -0.1352 -0.0244 -0.1599
26946W        W43130  12.315  16.501   3.327 -0.0009  0.2436 -0.1186
26947W        W43131  11.022   6.529  14.941  0.1752 -0.0719  0.2693
26948W        W43132  18.345   1.366  13.312  0.4207 -0.3402 -0.1183
26949W        W43133   9.565  18.698   1.560 -0.1457  0.0664 -0.1433
26950W        W43134  15.542  17.934  13.384  0.0202 -0.1761  0.3519
26951W        W43135  11.684   4.844   4.909 -0.2530  0.3017  0.0516
26952W        W43136  15.164  15.787   4.783 -0.2440  0.0368 -0.1002
26953W        W43137   7.121  18.888   1.732 -0.0865 -0.0602 -0.1321
26954W        W43138   9.561   0.085  13.867 -0.1632 -0.2547 -0.0227
26955W        W43139  18.867   8.592   2.551  0.2171  0.0563  0.0589
26956W        W43140  15.181   0.902   9.938  0.0681 -0.0818 -0.2703
26957W        W43141   1.870  10.672  11.639 -0.3244 -0.1695  0.1499
26958W        W43142   7.525   4.887   2.773 -0.1659  0.0481 -0.1686
26959W        W43143  17.302   7.463  13.022 -0.0534  0.2172  0.1362
26960W        W43144  18.190   1.636   4.397  0.1411 -0.2650 -0.0441
26961W        W43145   7.055   6.778  14.038  0.1298  0.0671  0.1706
26962W        W43146  18.975   3.771   2.477 -0.3264 -0.4382 -0.3085
26963W        W43147   9.539   1.485   1.937 -0.0914 -0.3179 -0.0473
26964W        W43148  17.297  15.020  12.454  0.0228 -0.1693  0.0254
26965W        W43149   5.051   5.493  13.728  0.2797 -0.1467  0.2774
26966W        W43150  18.067  14.890  15.370 -0.3242  0.0865  0.1317
26967W        W43151   2.217   4.717  14.194 -0.2724  0.0473  0.1555
26968W        W43152  17.620  13.183   3.543  0.4090  0.0805  0.0034
26969W        W43153   0.920   6.929   3.045  0.2648  0.2409  0.4945
26970W        W43154   7.956   8.001   1.804  0.1300  0.1409  0.1666
26971W        W43155  14.505   9.814   0.467 -0.2212  0.0615 -0.3434
26972W        W43156   4.722  11.459   0.238 -0.0917  0.0624  0.0293
26973W        W43157   6.489   9.471  14.777 -0.0345  0.0092 -0.3365
26974W        W43158  14.996   0.793  11.336 -0.0972  0.1119  0.0990
26975W        W43159   7.058   3.356  11.105  0.0824 -0.1979  0.0106
26976W        W43160   5.908   1.066   4.296  0.1318 -0.0677 -0.0337
26977W        W43161   5.811   3.153   4.138  0.0818  0.0643  0.0121
26978W        W43162  18.797   8.136   4.069  0.2871  0.1370 -0.0438
26979W        W43163  14.294  15.648   3.913 -0.1583 -0.3112 -0.3707
26980W        W43164   8.779   2.164   1.139 -0.2885 -0.1357  0.2244
26981W        W43165  16.100   6.972   3.960 -0.4527 -0.4908 -0.0654
26982W        W43166  18.051  13.632  14.789 -0.0347 -0.2926 -0.1457
26983W        W43167  15.594  14.508  11.575 -0.0706  0.2811 -0.0372
26984W        W43168   4.622   6.019  15.127 -0.2663  0.4026 -0.0584
26985W        W43169   6.907   1.922   1.310  0.0328 -0.2095 -0.1616
26986W        W43170   3.216   2.191  14.414 -0.0910 -0.0390  0.0615
26987W        W43171   6.938   4.226  13.876  0.0178 -0.0181  0.0487
26988W        W43172   2.230  10.924  10.173 -0.0018 -0.2310  0.1237
26989W        W43173  10.068  18.465  11.019 -0.1920 -0.1349 -0.1578
26990W        W43174   8.505  18.032   1.634  0.0323 -0.2825 -0.0366
26991W        W43175  11.468   8.145   1.036  0.1301 -0.0619  0.0744
26992W        W43176  13.502   3.340   2.761 -0.3681  0.2126  0.1057
26993W        W43177   1.942  17.953   3.773 -0.0500 -0.0745 -0.0301
26994W        W43178   6.305   0.643  13.467 -0.1725 -0.3466  0.2024
26995W        W43179  11.137   1.400   2.501 -0.4220  0.2343  0.0395
26996W        W43180  17.334  13.561   3.476  0.1126 -0.1115 -0.2665
26997W        W43181   2.358   2.893  14.353  0.1407 -0.0190  0.2772
26998W        W43182   9.357  13.265   4.263 -0.1546 -0.1730  0.3779
26999W        W43183  18.844   6.165  13.890 -0.2565  0.1480  0.3533
27000W        W43184   1.330   5.887  11.143  0.0152  0.1078  0.1215
27001W        W43185   6.561  13.033   5.982 -0.1539  0.4146  0.3536
27002W        W43186   3.232  16.751  11.406 -0.2193  0.0324  0.1733
27003W        W43187  18.480   6.254  14.220 -0.2614  0.0592 -0.2737
27004W        W43188  11.363   5.995  13.614  0.1815 -0.0961 -0.0952
27005W        W43189   6.556   1.890  10.532  0.0076  0.0253 -0.1708
27006W        W43190   4.830   5.820  10.731  0.1140  0.0761  0.0756
27007W        W43191  11.790   2.933   2.971 -0.0687  0.0132 -0.1090
27008W        W43192   3.869  11.037  14.147  0.0552  0.3188 -0.1849
27009W        W43193  10.647  14.387   2.804  0.1425 -0.2079 -0.1993
27010W        W43194   9.006   4.911   3.842 -0.5249 -0.3208  0.1135
27011W        W43195  13.558  16.845   2.532  0.2122  0.0231 -0.1124
27012W        W43196   1.768   7.300  13.242 -0.1763 -0.2014 -0.2332
27013W        W43197   5.204  13.148  14.353  0.1252 -0.1623 -0.1854
27014W        W43198  11.642   3.116  12.003  0.3663 -0.0692  0.0594
27015W        W43199   0.080  10.421   0.235 -0.2485  0.2012  0.2843
27016W        W43200  17.207   4.084  11.597  0.2328 -0.2458  0.2484
27017W        W43201   6.777  11.116  14.847 -0.3290 -0.2639  0.2005
27018W        W43202  14.166  13.280   3.243  0.3238  0.0186  0.1348
27019W        W43203   5.481  12.741  11.042 -0.0604  0.1403  0.0099
27020W        W43204   1.427   4.258  10.928 -0.1479  0.0723 -0.0380
27021W        W43205   3.458  12.371   6.121 -0.3255  0.0871  0.1531
27022W        W43206   4.961  17.366   4.617 -0.2604  0.3249  0.0139
27023W        W43207  11.281   2.727  10.729 -0.0885 -0.0325  0.2023
27024W        W43208   0.298  17.032  12.783  0.0250 -0.1194  0.2359
27025W        W43209  15.313  14.409   1.211  0.0173 -0.1430  0.2796
27026W        W43210   6.720   5.071  14.475  0.2275  0.1499 -0.1993
27027W        W43211   2.446   9.907  11.727 -0.1057 -0.3808  0.1035
27028W        W43212   2.955   0.923   3.391  0.1279 -0.0680  0.0766
27029W        W43213   3.451   6.958  13.003 -0.1424  0.5292 -0.0720
27030W        W43214   9.551  10.588  13.905 -0.1397 -0.2967  0.0166
27031W        W43215  12.936  14.173   0.259  0.0775  0.1800 -0.2404
27032W        W43216  16.957   2.602   0.729 -0.0041  0.0796  0.0172
27033W        W43217   9.996   4.175   0.298  0.1606  0.0609  0.0275
27034W        W43218  15.802  11.839   2.097 -0.0168  0.0393 -0.1403
27035W        W43219   3.223   8.677   1.041  0.4517  0.1658 -0.0878
27036W        W43220   4.977  18.354   4.581 -0.2143 -0.0239 -0.0255
27037W        W43221   0.822   7.841  15.053 -0.1613 -0.0137  0.1614
27038W        W43222  11.640  13.316  14.865 -0.1777  0.0273 -0.1836
27039W        W43223   2.050   4.097  14.754  0.1110 -0.1346  0.1398
27040W        W43224   6.442   6.828  10.999 -0.0245  0.1873  0.1465
27041W        W43225   7.059  17.173   1.135  0.0273  0.1245 -0.1915
27042W        W43226  16.541   6.971   4.853  0.1891  0.0188  0.0052
27043W        W43227   6.054  10.191  13.895 -0.1112  0.2640 -0.1254
27044W        W43228   5.161  11.476   2.932 -0.0967 -0.0198  0.3128
27045W        W43229   1.454  14.529  14.143 -0.2414  0.2640  0.1071
27046W        W43230  17.717  12.559   1.306 -0.3275 -0.1384 -0.3795
27047W        W43231   2.599  17.386   2.731  0.1922 -0.1502  0.1757
27048W        W43232  14.201   6.494   5.507 -0.3618 -0.1172 -0.0528
27049W        W43233  13.301  18.590  13.834  0.0030  0.0789 -0.1547
27050W        W43234   5.497   2.657   5.405  0.3185  0.2001 -0.2055
27051W        W43235   0.499   9.687  10.612  0.1693  0.0980 -0.4395
27052W        W43236  10.778   9.330   5.740  0.3149 -0.1178  0.0768
27053W        W43237  13.272   7.376  14.248  0.1409  0.2505 -0.0013
27054W        W43238  10.443  12.292   1.935  0.2671 -0.3066  0.0599
27055W        W43239   0.255  12.248   3.966  0.0136 -0.2327  0.2289
27056W        W43240  16.011  10.154   3.362 -0.4062  0.0692 -0.0385
27057W        W43241   7.450   8.104  10.656 -0.1982 -0.1678  0.4595
27058W        W43242  17.007   1.082   0.413  0.3391 -0.0323 -0.0282
27059W        W43243  17.141  14.196  11.771 -0.0298  0.2686  0.0228
27060W        W43244   9.802   8.880  14.933 -0.1004 -0.1577 -0.1087
27061W        W43245  18.612   5.600   0.436 -0.0640 -0.1828 -0.2391
27062W        W43246  14.707  14.954  10.681 -0.2941 -0.1486 -0.2038
27063W        W43247   7.496  14.819  11.708  0.0590  0.1363 -0.1931
27064W        W43248  12.383   1.872  14.656  0.2551 -0.2513  0.0857
27065W        W43249  12.832  13.021  14.915 -0.1255 -0.4411  0.3724
27066W        W43250  11.399  12.866  11.853 -0.2953  0.1554 -0.0699
27067W        W43251   9.413   5.784  11.044  0.1502 -0.1139 -0.0858
27068W        W43252  12.980  11.100  14.665  0.0197 -0.3235  0.1664
27069W        W43253  11.586  18.876  11.999 -0.2384  0.2287 -0.0108
27070W        W43254  10.989   6.842  12.299  0.3171  0.3087  0.0137
27071W        W43255   5.270  16.279  15.211  0.0603  0.0954 -0.3575
27072W        W43256   9.276   0.004  12.065  0.2184  0.1240 -0.1209
27073W        W43257   7.686   5.547  15.081  0.0084  0.0533 -0.1516
27074W        W43258   9.909   0.376  14.907  0.1209  0.2329  0.3438
27075W        W43259   4.600   1.462   1.737  0.1356  0.1863  0.0858
27076W        W43260   8.308  18.692  11.394  0.0850  0.2763 -0.4389
27077W        W43261   4.755  13.764  14.842  0.0729 -0.0403  0.2666
27078W        W43262   5.524   1.297   0.088  0.3013  0.3418  0.0786
27079W        W43263  10.381   4.305   5.382 -0.1956 -0.0149 -0.0826
27080W        W43264  13.439  17.319   1.615 -0.0404 -0.0879  0.0128
27081W        W43265  10.802   4.965   3.157  0.0407 -0.2250  0.4298
27082W        W43266   8.890  12.600  12.755  0.0429 -0.2010 -0.1266
27083W        W43267  16.384  14.186  11.589  0.1393 -0.1898 -0.0408
27084W        W43268  15.012  14.278   1.720  0.1422  0.0548  0.2771
27085W        W43269   6.332   4.870   1.365 -0.1181  0.3800 -0.0509
27086W        W43270   7.308   3.830  15.183  0.0282 -0.0087 -0.2538
27087W        W43271  16.405   7.299   3.117 -0.2594 -0.2201  0.2697
27088W        W43272  17.424  16.236  13.501 -0.2230 -0.0376 -0.0163
27089W        W43273  16.504   7.644   2.271  0.4158  0.0014  0.0773
27090W        W43274  10.221  11.809  10.283  0.0969 -0.4437 -0.0308
27091W        W43275   5.977   5.388  12.726 -0.0852  0.1187 -0.0120
27092W        W43276  17.465  17.082   2.702 -0.0748 -0.3233  0.4064
27093W        W43277  17.552   3.441   4.771  0.0414  0.2199 -0.0167
27094W        W43278  18.845   3.628   2.030 -0.2047 -0.0527 -0.1175
27095W        W43279  14.972  18.634   0.946  0.0726  0.0105  0.2218
27096W        W43280   6.744   7.139   4.763  0.0046  0.0258 -0.1429
27097W        W43281  15.344   6.556  12.709 -0.0839  0.0535 -0.0872
27098W        W43282  15.182  14.344  13.811  0.0267  0.2328  0.4677
27099W        W43283  11.848  16.669  10.317 -0.0620 -0.1322  0.1012
27100W        W43284  10.982   0.414  15.171  0.0182  0.2917 -0.2968
27101W        W43285   4.521   3.570   4.668  0.0166 -0.0652  0.1992
27102W        W43286   8.916   5.841  10.880 -0.0566 -0.0520  0.2446
27103W        W43287   8.820   5.590   1.743 -0.1354  0.1263  0.3493
27104W        W43288   8.835   6.808   1.191 -0.2729 -0.0143  0.0904
27105W        W43289   7.036  10.401   5.057 -0.0004 -0.0744 -0.0703
27106W        W43290   5.550  15.290   5.022 -0.3037  0.1656  0.2257
27107W        W43291   3.357   4.578   5.020  0.0583  0.0302 -0.4079
27108W        W43292   2.117   0.934  10.861  0.3671  0.2354  0.0594
27109W        W43293  11.520   4.597  12.620  0.1956 -0.1258 -0.0843
27110W        W43294   6.821   6.667   4.515 -0.0874 -0.2490  0.0247
27111W        W43295   1.778  17.545  15.173  0.1537  0.1173  0.0515
27112W        W43296  15.644   1.299  11.468  0.3635  0.3093  0.0691
27113W        W43297   3.023   0.463  13.064 -0.1975  0.1606  0.1621
27114W        W43298  10.250   8.077  13.634  0.4210 -0.2006 -0.0788
27115W        W43299   4.144   8.817   0.946  0.0571 -0.0114  0.0014
27116W        W43300  17.637  16.466   4.651  0.0762  0.1627 -0.1705
27117W        W43301   1.648   5.499   3.119  0.2538 -0.0551  0.2366
27118W        W43302  15.183   5.654  11.108  0.3832  0.2509  0.0783
27119W        W43303  17.412  17.903  15.292 -0.3310 -0.2594 -0.1092
27120W        W43304  10.897  16.020  14.425  0.1979 -0.1779  0.0152
27121W        W43305  12.679   8.131   1.420  0.0872  0.2529 -0.1046
27122W        W43306   0.065  10.941   0.303  0.0217 -0.3498  0.0210
27123W        W43307   5.595  16.730   2.161  0.0370 -0.1177  0.1698
27124W        W43308   0.242   2.141  12.744 -0.1990  0.0196 -0.1141
27125W        W43309   6.340  11.682   1.928 -0.1222  0.0021 -0.1264
27126W        W43310   0.169  15.540  11.184 -0.0958 -0.0151 -0.2819
27127W        W43311   3.110  11.160  12.106  0.2706  0.0127 -0.0873
27128W        W43312   9.491  17.857  14.448  0.4510 -0.1504 -0.1633
27129W        W43313   5.252   4.205  13.966 -0.2732  0.0229  0.1082
27130W        W43314   5.246  14.652  11.157  0.0578  0.0598 -0.4600
27131W        W43315   2.263  12.935   1.908  0.1068 -0.0271 -0.2089
27132W        W43316   4.627   7.279   4.874  0.0057 -0.1637 -0.0080
27133W        W43317  12.854   7.061   5.536  0.1651 -0.2002 -0.2406
27134W        W43318  16.434   1.909  12.268  0.2503  0.1928 -0.0814
27135W        W43319   6.305   2.088  13.881 -0.2790  0.2658 -0.2494
27136W        W43320  13.467  11.868   0.299 -0.0022 -0.0588  0.2339
27137W        W43321  13.424   3.425   4.350  0.3440 -0.0410 -0.2538
27138W        W43322   8.752   2.680   1.211 -0.0373  0.0848  0.2234
27139W        W43323   3.676   0.674  11.804 -0.0703  0.2060  0.2646
27140W        W43324   3.247  15.173   2.615  0.0854  0.0588 -0.1551
27141W        W43325   6.773   3.532   4.547  0.2792  0.0454  0.0071
27142W        W43326  11.616   5.275  14.349  0.4631 -0.1201  0.0980
27143W        W43327   5.694  17.560  14.108  0.1730  0.2124  0.0159
27144W        W43328   4.072   1.549   0.433  0.0811 -0.1125  0.2369
27145W        W43329  14.369   4.345  14.066 -0.1136 -0.2076 -0.0720
27146W        W43330  14.781  14.309  14.605  0.1711 -0.1024  0.2653
27147W        W43331   2.463   2.252   3.983 -0.0326  0.0723  0.0878
27148W        W43332   3.673   4.562   1.704  0.1944 -0.0915  0.0371
27149W        W43333   1.228   0.227  13.465  0.0535 -0.1801 -0.3461
27150W        W43334   5.421   1.301   3.409 -0.0706  0.1663 -0.0891
27151W        W43335   2.316  14.383  13.037 -0.0798  0.3706 -0.3859
27152W        W43336  13.756   5.871  12.417  0.0928 -0.0002 -0.2475
27153W        W43337   3.513  15.776   5.037 -0.0930  0.1797  0.1579
27154W        W43338  12.161   9.994  15.199  0.0787 -0.0513  0.1779
27155W        W43339   3.055   5.604  11.942 -0.2951 -0.3112 -0.2248
27156W        W43340   9.196  18.575   1.162 -0.1305 -0.2379 -0.3266
27157W        W43341   3.311   1.197  14.648 -0.2327  0.0213  0.0207
27158W        W43342  17.187  15.728   0.232 -0.0640  0.2229 -0.0812
27159W        W43343  14.544  13.467   5.103  0.2967 -0.0736  0.1378
27160W        W43344  12.163  16.860  14.449  0.0154  0.3497  0.1572
27161W        W43345   3.798  13.385   3.410  0.1083  0.2486  0.2372
27162W        W43346  17.330   2.181   2.907  0.1703  0.3109  0.2956
27163W        W43347   5.664   9.342   1.028 -0.3438  0.0946  0.0451
27164W        W43348  16.229  13.599  15.118 -0.0071 -0.0079 -0.1326
27165W        W43349   3.919  13.806   1.249 -0.1408  0.0208 -0.0084
27166W        W43350   5.681   9.902   5.518  0.0145  0.1862  0.0112
27167W        W43351  17.786   9.641  12.812 -0.0443  0.2883  0.1258
27168W        W43352  13.714  16.903  13.821  0.0261 -0.0069 -0.2252
27169W        W43353  11.254   2.361   4.557  0.0548 -0.1734  0.1974
27170W        W43354   4.744   6.204   0.580  0.0530 -0.0084  0.2036
27171W        W43355   5.035   0.821  15.147 -0.1723  0.0528  0.2547
27172W        W43356  14.937   9.727  11.398 -0.0084  0.1004  0.2114
27173W        W43357  13.663   6.227  11.418  0.0769  0.1209 -0.0975
27174W        W43358   8.349  15.246   0.618 -0.0558  0.4163 -0.0384
27175W        W43359   8.481   5.935   0.755 -0.3646 -0.1428 -0.0250
27176W        W43360   0.509   8.186   5.585 -0.0487  0.2064  0.1176
27177W        W43361   7.591  13.289   0.358 -0.0184  0.5185 -0.0000
27178W        W43362  11.768  15.615   0.813  0.3966  0.1207 -0.3082
27179W        W43363  15.538   6.771   4.175  0.0191 -0.0560 -0.1444
27180W        W43364  17.962  12.739  10.715 -0.1288 -0.1472  0.0224
27181W        W43365   1.010  13.076   1.401 -0.3039  0.2980  0.3200
27182W        W43366  10.120   9.419   0.194  0.2772 -0.1374  0.1059
27183W        W43367   0.073   9.881   3.564 -0.2789 -0.1830  0.2083
27184W        W43368  10.493   7.745   1.694  0.2711  0.0036  0.0111
27185W        W43369   5.886  17.187  11.241  0.0003 -0.0270  0.0104
27186W        W43370  13.486  14.919   4.758 -0.1071 -0.1085 -0.0727
27187W        W43371  10.124  15.281   0.729  0.1210  0.0176  0.1159
27188W        W43372   4.385  13.032  12.705 -0.2551 -0.0935  0.2815
27189W        W43373   6.138   7.154  12.972 -0.2754  0.0117  0.1500
27190W        W43374  14.781   3.644  14.740 -0.1744  0.0958 -0.2577
27191W        W43375   5.394   8.714   4.258 -0.1852  0.3817  0.1341
27192W        W43376   6.571  17.887  14.104  0.1090  0.2249  0.2200
27193W        W43377  12.071  12.687   3.683 -0.0197 -0.0996  0.4083
27194W        W43378  12.607   9.237   0.124  0.4033 -0.0904 -0.0293
27195W        W43379  13.534   2.423   2.751 -0.1834 -0.1748  0.0840
27196W        W43380   0.660  14.996   4.852  0.1300 -0.0807  0.1978
27197W        W43381   1.153   6.277   1.904  0.1150 -0.1484 -0.0802
27198W        W43382  14.398  11.837   5.638  0.0105  0.1326 -0.0133
27199W        W43383   9.646  10.991   0.904 -0.1531 -0.3790  0.0357
27200W        W43384   0.329   4.333   0.656  0.1426 -0.1697 -0.0543
27201W        W43385  18.261   1.458   2.413  0.0167  0.2861  0.2902
27202W        W43386   6.182   3.073   3.237  0.0518 -0.3616  0.0041
27203W        W43387  17.225  16.094  11.923 -0.3175 -0.1872  0.0706
27204W        W43388   8.163  10.282   2.613 -0.0194  0.2737 -0.1905
27205W        W43389   8.421  10.734   5.200 -0.0022  0.1549  0.0117
27206W        W43390   3.064  10.939  10.607  0.3086  0.0129  0.3094
27207W        W43391   6.875   3.854  14.750 -0.2311 -0.2646 -0.1526
27208W        W43392  13.811  13.350   2.870 -0.1139 -0.1000 -0.2719
27209W        W43393   8.022   1.754   2.982  0.1054 -0.2304 -0.0746
27210W        W43394   1.181   2.870  12.175 -0.1463  0.1045 -0.0826
27211W        W43395   1.510   4.633   6.358 -0.4674 -0.1822  0.0613
27212W        W43396   8.057   6.998  10.562  0.0112 -0.0272 -0.2530
27213W        W43397   7.417   2.580   4.478 -0.0096  0.2273 -0.1863
27214W        W43398   8.199  10.479  13.430 -0.2795  0.3131 -0.0504
27215W        W43399  10.080  17.343  10.883  0.0475 -0.1360  0.0623
27216W        W43400  12.306   7.876   4.293  0.0462 -0.1708  0.0101
27217W        W43401  18.428   0.529  13.099  0.1466 -0.2356  0.0309
27218W        W43402  16.948   3.417   0.525  0.3208  0.1912 -0.0982
27219W        W43403  14.527   8.602   2.705  0.0551  0.1696 -0.1629
27220W        W43404  18.362   1.842  13.585  0.3256  0.3540 -0.3702
27221W        W43405   7.692   7.454   1.921  0.1740  0.5322 -0.1258
27222W        W43406  10.112  11.442  12.314 -0.3874 -0.0853  0.0582
27223W        W43407  12.400  11.903  11.991  0.1043  0.2690 -0.1803
27224W        W43408   4.397  17.725   0.416 -0.3346 -0.1459  0.0447
27225W        W43409  10.215  14.226   1.649  0.0458  0.0357 -0.2044
27226W        W43410  10.939  12.366  10.683 -0.1889  0.1442  0.0085
27227W        W43411  18.111   3.635  11.964 -0.4345 -0.1315  0.0608
27228W        W43412   7.386  10.485   2.174 -0.0155 -0.3632 -0.0456
27229W        W43413  15.431   9.048   2.072  0.3149 -0.1834 -0.1179
27230W        W43414  17.564   6.675   3.170 -0.0238  0.4669  0.2238
27231W        W43415   2.967   7.721   1.137 -0.1735 -0.0201  0.0427
27232W        W43416  13.915   8.856  13.794  0.1033 -0.2218  0.5146
27233W        W43417  13.305   0.996   4.586 -0.3201  0.0080  0.2441
27234W        W43418   6.599   4.475   3.921 -0.3009  0.0746 -0.1947
27235W        W43419  14.418  17.662  13.600 -0.1265 -0.0728  0.2260
27236W        W43420   7.471  13.275  13.636 -0.3655  0.1891  0.0736
27237W        W43421  15.624  14.679  14.547  0.1004 -0.2769 -0.2250
27238W        W43422  15.863  18.555  14.815 -0.1376  0.3593 -0.1201
27239W        W43423   6.770  11.794  11.123  0.3247  0.2681 -0.0431
27240W        W43424  10.934   7.394  15.042  0.1873  0.2290  0.1702
27241W        W43425  10.616  13.155  14.253 -0.2798  0.2367  0.0711
27242W        W43426  17.257  13.351  10.760  0.0062  0.3605 -0.0582
27243W        W43427   2.357   9.767  12.288 -0.1063 -0.1021  0.0550
27244W        W43428  13.509  14.835   0.885 -0.1354 -0.0132 -0.0497
27245W        W43429   1.398  16.177  12.323 -0.2619  0.1591 -0.0162
27246W        W43430  10.439  13.742  12.448 -0.1821  0.3521 -0.2931
27247W        W43431  16.748  11.871   2.386  0.1248  0.0335  0.0544
27248W        W43432   8.421  15.158   1.586 -0.1005 -0.0500 -0.1589
27249W        W43433   9.786  16.107  11.290 -0.0805  0.2410  0.0992
27250W        W43434  17.339  14.502  12.466  0.2233  0.0839 -0.1365
27251W        W43435  10.703   2.850   1.868 -0.1415 -0.1775  0.0650
27252W        W43436  18.825   1.721   3.012  0.0662 -0.0139 -0.0145
27253W        W43437   5.535  10.446   1.040  0.0481  0.1100  0.3934
27254W        W43438   4.212   8.399  12.050  0.2148 -0.1724  0.2002
27255W        W43439   8.827  12.712  15.270  0.2109 -0.0271 -0.1060
27256W        W43440   6.761   3.190  11.917  0.2072  0.1787 -0.0357
27257W        W43441   4.758  18.552  11.085 -0.0510  0.3439  0.3833
27258W        W43442   1.152   0.713   1.930 -0.0161  0.0906  0.0318
27259W        W43443   8.764   8.637   1.806 -0.1715 -0.5143  0.2916
27260W        W43444   9.322   5.818   5.537 -0.0367 -0.1066  0.0790
27261W        W43445   5.597  10.887   2.066  0.0967 -0.0707 -0.4943
27262W        W43446   8.032  18.004  11.841  0.2752 -0.0591 -0.1163
27263W        W43447  18.617   2.322  12.813  0.0005 -0.1682 -0.0791
27264W        W43448   1.114   9.023  11.380 -0.1066 -0.0532  0.0336
27265W        W43449   5.750  10.407   4.908 -0.1484 -0.1483 -0.4080
27266W        W43450   5.739   3.371  14.263  0.1155 -0.0100 -0.0868
27267W        W43451  15.819  13.457  13.824  0.0985  0.4485 -0.4214
27268W        W43452  14.945  13.402  11.247 -0.0921  0.1772 -0.2285
27269W        W43453  14.418  14.971   5.533  0.1120  0.0809  0.1357
27270W        W43454  17.205   2.361   5.051 -0.0653 -0.0428 -0.2284
27271W        W43455   9.832  14.450   1.940  0.2541  0.1198 -0.0310
27272W        W43456  11.753   4.820   0.456  0.0113  0.0291 -0.0485
27273W        W43457   0.659  18.167  12.877 -0.0960 -0.0015 -0.0723
27274W        W43458  15.322  15.265  13.249 -0.0744 -0.1802  0.0466
27275W        W43459   8.473  10.750  11.828  0.0584  0.1660 -0.2229
27276W        W43460   2.947  17.227  12.166 -0.5103  0.0414  0.0995
27277W        W43461   7.275  16.961   3.342  0.0644 -0.0522  0.1187
27278W        W43462  15.842   4.788   2.030 -0.0242 -0.0316  0.0532
27279W        W43463   3.054  16.101  11.529  0.2715 -0.1003  0.1678
27280W        W43464  10.990  15.783   3.859  0.1025 -0.0686 -0.0231
27281W        W43465  16.445   7.491   4.589  0.1314  0.1778 -0.1789
27282W        W43466  14.552  16.423  14.867 -0.4359  0.1360 -0.1522
27283W        W43467   6.118   0.120   5.665  0.2737  0.0130  0.0283
27284W        W43468  16.359   9.032  11.937  0.0837  0.0491 -0.0727
27285W        W43469  17.766   6.601   1.834 -0.1386  0.2376 -0.2595
27286W        W43470  17.492  16.556  15.028 -0.3994  0.2088 -0.0858
27287W        W43471  16.667  10.652   1.211  0.2786 -0.0999  0.1872
27288W        W43472   5.942   5.550   4.654  0.0634 -0.0546 -0.0884
27289W        W43473   3.509   9.538  14.822  0.0862  0.2392  0.0989
27290W        W43474  16.630   6.923  12.007 -0.1175  0.2337  0.0518
27291W        W43475  11.939  14.619   2.108  0.1355 -0.0884 -0.0626
27292W        W43476   8.851   3.283   0.284  0.1577 -0.1761 -0.3878
27293W        W43477   9.401   2.231  14.746 -0.0339 -0.1120  0.0191
27294W        W43478  16.180  10.761  13.537 -0.2562  0.2347  0.0231
27295W        W43479   6.516   0.978  13.111 -0.1173 -0.2820  0.1363
27296W        W43480   7.389   2.298   2.999 -0.0418 -0.1533  0.0247
27297W        W43481  10.916   8.853   5.034 -0.0471  0.0909 -0.0890
27298W        W43482   7.286   1.946   0.098  0.0989 -0.1938 -0.0600
27299W        W43483  14.773  15.477  11.263  0.0517 -0.0765  0.1302
27300W        W43484   5.079  15.473   0.285  0.0291  0.2057 -0.1391
27301W        W43485   9.596   4.965   5.038 -0.0416 -0.1093 -0.0239
27302W        W43486   9.221   3.566  13.508 -0.0927 -0.1273 -0.1728
27303W        W43487   5.552  16.528  13.458 -0.0551 -0.1678 -0.0051
27304W        W43488  15.491  14.295   5.520  0.0535 -0.3291 -0.3712
27305W        W43489   6.550   5.807   2.384 -0.0951 -0.3224  0.0882
27306W        W43490   8.948  17.647   1.738  0.1874  0.1001  0.0819
27307W        W43491   8.160  17.406  13.315  0.0844  0.2193 -0.1181
27308W        W43492   7.537   1.472   0.765 -0.0092 -0.3705  0.0080
27309W        W43493   5.336   6.736   2.161 -0.0070  0.0175  0.0282
27310W        W43494   5.778   6.672   4.706 -0.0556 -0.3849  0.0381
27311W        W43495   7.777   4.426  12.310 -0.3131 -0.0967  0.2330
27312W        W43496   1.897  18.503   1.368  0.2843 -0.1857 -0.1846
27313W        W43497   3.349  18.556   0.806 -0.1951 -0.0214  0.1259
27314W        W43498   1.101  10.491  11.045 -0.0300  0.1492  0.0124
27315W        W43499   6.279   7.759   0.607  0.2390  0.1922  0.2949
27316W        W43500  11.126   8.139  12.242 -0.0264 -0.0447  0.2680
27317W        W43501   3.176   2.817   0.108 -0.0401  0.4062  0.0546
27318W        W43502  17.085   1.012   3.682 -0.1811  0.2963  0.0349
27319W        W43503   5.055   6.594  11.318 -0.1354 -0.0514 -0.0312
27320W        W43504  18.591  14.368  13.937  0.1085 -0.0325  0.1309
27321W        W43505  12.395  16.441   1.632 -0.0601  0.0315  0.0153
27322W        W43506   3.312  12.952   4.142 -0.0479  0.0148 -0.1487
27323W        W43507   7.943   2.223   2.826  0.1108 -0.3712  0.3700
27324W        W43508   0.314  15.066  11.501  0.1829  0.0796 -0.1130
27325W        W43509   6.906   9.892  13.906 -0.0258  0.4134 -0.3427
27326W        W43510  10.875   6.941   4.653  0.1448  0.0759 -0.2912
27327W        W43511   9.157  16.569   3.840  0.1774 -0.1046 -0.0302
27328W        W43512  12.263   3.179   3.223 -0.2422  0.2280 -0.0661
27329W        W43513   4.012  14.329  13.110 -0.0200  0.1481  0.3145
27330W        W43514   9.144  13.232   3.024 -0.1219  0.1834 -0.2394
27331W        W43515   4.940  14.097  12.311  0.0211 -0.0024  0.0676
27332W        W43516  16.993   1.060  10.932  0.2446  0.1233 -0.0562
27333W        W43517  17.283   0.303   2.009  0.0756  0.0865 -0.3705
27334W        W43518  14.605   8.176  11.049 -0.0736  0.1855 -0.1282
27335W        W43519  15.822   3.329   0.010 -0.1717 -0.4840  0.2138
27336W        W43520  14.621   0.668   3.031  0.1481 -0.1102 -0.1123
27337W        W43521  11.409   5.632   0.545 -0.2384  0.1664  0.0283
27338W        W43522   0.577  18.465   3.689  0.1135 -0.0443 -0.1910
27339W        W43523   3.177  14.056   1.073  0.0061 -0.1528 -0.1871
27340W        W43524   9.366   7.688  12.538 -0.1135 -0.0547  0.2792
27341W        W43525   4.233  10.800  13.240  0.0837 -0.2034  0.5039
27342W        W43526   7.594   9.949   4.443  0.0451  0.1683 -0.1613
27343W        W43527   5.793  12.507  14.045  0.1429 -0.1680 -0.0671
27344W        W43528   2.948  18.795  11.320 -0.1430 -0.0140  0.2442
27345W        W43529   3.563   0.248  11.580  0.2193 -0.3271 -0.0885
27346W        W43530   2.787   2.819   2.159 -0.1324 -0.0772 -0.3710
27347W        W43531  15.118  14.575  11.595 -0.2894  0.1536  0.3423
27348W        W43532  16.579   9.110  13.149  0.0756 -0.2485  0.2494
27349W        W43533  18.141   8.326   1.963 -0.0246  0.2090  0.0601
27350W        W43534   7.826   6.141   1.746  0.0365  0.0230  0.1902
27351W        W43535   9.899  13.215   2.866 -0.2147  0.0264 -0.3705
27352W        W43536   2.451   3.399  12.845 -0.2321  0.1474  0.0302
27353W        W43537   6.222  14.608  13.336 -0.0465  0.0541 -0.1927
27354W        W43538   2.189   2.349  13.436  0.1622  0.0300  0.1106
27355W        W43539   9.220  17.261   1.520  0.2587  0.1502 -0.0886
27356W        W43540  10.057  15.557   3.639 -0.0514 -0.1052 -0.1176
27357W        W43541  11.658   4.978   1.908  0.2934  0.0704  0.1183
27358W        W43542  17.616   4.573  15.328 -0.0824 -0.0087  0.2385
27359W        W43543  12.125   9.529  13.677 -0.2639  0.0281 -0.0197
27360W        W43544  15.911  18.048   3.702 -0.0478  0.1656 -0.0413
27361W        W43545  16.006  16.385   3.618 -0.1626  0.4615 -0.1145
27362W        W43546   1.429   3.818  11.413  0.2183 -0.0259  0.0703
27363W        W43547  13.243   6.928   0.259 -0.1933  0.1069  0.1025
27364W        W43548  17.204   6.257   0.447  0.2386  0.1589 -0.2816
27365W        W43549  16.873   6.550   4.676  0.0197  0.2486  0.0604
27366W        W43550  16.179  18.670   2.654 -0.0228 -0.0784  0.0594
27367W        W43551   3.587   1.248   5.428  0.0765  0.1760  0.1764
27368W        W43552  16.070   3.799   2.593  0.2581  0.1345  0.1184
27369W        W43553   1.886  15.365  14.272  0.1708 -0.0604  0.0754
27370W        W43554  17.984  13.048   1.057 -0.3643  0.0946 -0.1876
27371W        W43555   6.315   4.290   4.414  0.0286 -0.3907 -0.4548
27372W        W43556  13.283   1.564  10.376  0.0563 -0.1887 -0.0443
27373W        W43557  11.010   9.980   1.394 -0.1156  0.3175 -0.2121
27374W        W43558   9.868  13.202  10.984  0.0599  0.2493 -0.0194
27375W        W43559   1.948  18.739  10.895  0.1900 -0.2541 -0.0743
27376W        W43560  10.898   1.924   1.440 -0.1552  0.2037  0.3302
27377W        W43561  15.212   7.934   4.756 -0.1040  0.0181  0.3552
27378W        W43562   3.917   1.803  13.839 -0.0112  0.0055 -0.1907
27379W        W43563   6.101  16.364  11.011  0.0430 -0.2240 -0.3525
27380W        W43564   3.095   2.028  13.008  0.2698 -0.1386 -0.2260
27381W        W43565  14.709  13.087  13.030  0.0825  0.2557  0.1776
27382W        W43566  16.914  10.896   2.848 -0.1562  0.1030 -0.1305
27383W        W43567  14.642  14.141   3.419  0.0539  0.1117 -0.1351
27384W        W43568   3.202   1.164   1.970  0.2803 -0.1701  0.0738
27385W        W43569   6.057   6.615   3.265 -0.0429 -0.3612 -0.1698
27386W        W43570  14.733   5.860   4.568 -0.3972  0.1182  0.0384
27387W        W43571   5.174   1.394   4.909 -0.0272  0.1082  0.0792
27388W        W43572   5.215   5.530   1.483 -0.1322  0.1820 -0.0379
27389W        W43573   4.007  11.841   5.423  0.0444 -0.0604  0.2227
27390W        W43574   5.988  17.038   2.106  0.0876 -0.1943 -0.2406
27391W        W43575   3.414   2.587  15.128  0.0365  0.4896  0.1334
27392W        W43576   7.221  15.592  10.497  0.1629  0.2169 -0.0287
27393W        W43577  18.711   1.785   3.551 -0.0437 -0.4313 -0.2168
27394W        W43578  10.496  10.286   5.030 -0.2881  0.4502 -0.0641
27395W        W43579  14.756   1.867   0.435 -0.3008  0.1629 -0.1526
27396W        W43580   1.475  11.563   3.984 -0.1539 -0.4162  0.0900
27397W        W43581   6.475   2.503   2.637  0.0484 -0.1526  0.2955
27398W        W43582  13.585   6.906  11.083 -0.2542 -0.0106  0.0982
27399W        W43583   9.370  14.174   0.740  0.0524  0.0253 -0.0228
27400W        W43584   4.175   6.569  14.141  0.2141 -0.0691 -0.0044
27401W        W43585  11.812  18.892   0.994  0.2431  0.0042  0.1790
27402W        W43586  15.463   0.879   4.389 -0.0482 -0.1007 -0.0773
27403W        W43587  11.915  18.314  13.444  0.0188  0.2572 -0.1389
27404W        W43588  16.768  16.751  14.731 -0.2867  0.1137 -0.4089
27405W        W43589  15.166  18.452  12.370 -0.1639  0.3415  0.0464
27406W        W43590  14.794   4.109   1.160 -0.3344 -0.0260 -0.4878
27407W        W43591   3.197  14.359  13.583  0.2464  0.0593  0.2232
27408W        W43592  12.913  14.927   0.706 -0.0057 -0.0114  0.1120
27409W        W43593   6.753   2.794  13.470  0.1275 -0.0226  0.1213
27410W        W43594   8.216  14.971  14.184  0.2479  0.0076 -0.0671
27411W        W43595  16.788  17.312   5.927 -0.2286  0.1412 -0.1020
27412W        W43596  13.715   8.947   2.713 -0.1006  0.1989  0.1310
27413W        W43597  14.576   9.509  12.811  0.1868 -0.0320  0.2204
27414W        W43598   2.209  10.997  12.755  0.0885 -0.1709  0.2181
27415W        W43599   4.590   2.599  13.174 -0.0761 -0.0748  0.3641
27416W        W43600   1.053   8.603  14.600 -0.1157 -0.0693 -0.1120
27417W        W43601   7.637  15.931  12.244 -0.1076 -0.0906 -0.0915
27418W        W43602  16.330   3.286  12.002  0.0647 -0.3416  0.0160
27419W        W43603  12.025  15.153   2.175 -0.2780 -0.0560 -0.0867
27420W        W43604   5.738  12.468  11.617 -0.1595  0.2251  0.2260
27421W        W43605  13.732  16.809  11.693 -0.0053 -0.0689  0.0806
27422W        W43606  17.658   4.361   4.102  0.1669  0.2984  0.2199
27423W        W43607   3.340  10.910   5.004 -0.0525  0.1024  0.1341
27424W        W43608   2.948  14.599   3.371  0.1188 -0.1348 -0.0250
27425W        W43609   5.381   2.811  11.185  0.2052  0.1255  0.0813
27426W        W43610   9.391   9.807  11.342 -0.2120 -0.0222  0.0247
27427W        W43611   8.341   7.248  12.211  0.1443 -0.3195  0.1234
27428W        W43612   1.459  17.000   0.880 -0.0752 -0.1094  0.0059
27429W        W43613  16.349   9.845   3.712  0.0189  0.2167 -0.0874
27430W        W43614   0.547   2.863   5.572  0.0458  0.0884 -0.0988
27431W        W43615   2.512  12.588   4.909  0.2872 -0.0839 -0.2420
27432W        W43616  12.963   6.876   2.335 -0.2319  0.2796 -0.0261
27433W        W43617  16.342  10.506  10.241  0.1301 -0.1400  0.0412
27434W        W43618  10.426   6.788   4.308 -0.0575 -0.3471  0.0707
27435W        W43619  13.770   5.407   0.126  0.0944  0.0078  0.0257
27436W        W43620   7.498  13.830   4.204 -0.2295  0.1749 -0.1369
27437W        W43621  16.208  11.543   2.152  0.0785 -0.2592  0.1767
27438W        W43622   7.426   0.803  14.013  0.2434  0.3871 -0.0977
27439W        W43623  13.714   7.118   0.001  0.3352 -0.0461 -0.1063
27440W        W43624   9.569  13.989  14.664  0.1160 -0.0909 -0.1554
27441W        W43625   3.362   6.457  12.854 -0.3628 -0.1833  0.1664
27442W        W43626   4.069  15.190   4.164  0.4331 -0.2025 -0.0393
27443W        W43627   8.834   2.265   0.625 -0.1585  0.2349 -0.0145
27444W        W43628  14.815  10.466  13.737 -0.0928 -0.0262 -0.3994
27445W        W43629  16.267   0.574  10.816 -0.0447 -0.0711  0.0243
27446W        W43630   9.334  14.014  11.601  0.2240 -0.1475  0.1158
27447W        W43631  14.913   7.771  15.266 -0.0900 -0.0882  0.0390
27448W        W43632   0.531  15.017   3.864 -0.3960  0.4275 -0.1625
27449W        W43633  10.768  13.855  13.249 -0.0725 -0.2452  0.4155
27450W        W43634  10.642  10.143  14.032 -0.1668 -0.3278  0.0114
27451W        W43635   3.209  15.429  12.759 -0.1723  0.1313 -0.3665
27452W        W43636   1.260   5.410  11.799 -0.1896  0.0975 -0.2716
27453W        W43637  18.432  10.636   5.068 -0.0486 -0.0751  0.1152
27454W        W43638   0.174  11.434   5.420 -0.0618  0.0434  0.2601
27455W        W43639   6.626   2.876   3.019  0.0850 -0.3627  0.0839
27456W        W43640   4.422   9.759   4.090 -0.0463 -0.1112  0.0924
27457W        W43641   9.265   8.131   2.621 -0.1563 -0.1954 -0.0941
27458W        W43642   9.938  14.974  14.859 -0.2641 -0.2953  0.3531
27459W        W43643  12.490   8.803  11.806  0.1098 -0.1624  0.2619
27460W        W43644   3.402  17.866  12.539  0.2609 -0.1434  0.0890
27461W        W43645  14.405   1.018  13.739  0.3587  0.2502 -0.0008
27462W        W43646   4.578   3.800  11.206  0.0620  0.3033 -0.0626
27463W        W43647   2.852   7.141  10.112 -0.0579 -0.2339  0.3097
27464W        W43648  10.576  13.154   1.450  0.3114  0.0383  0.3164
27465W        W43649  12.335   8.950   1.762  0.1539 -0.0790  0.3200
27466W        W43650   0.203  11.017  11.905  0.0140  0.3543 -0.0058
27467W        W43651   1.026  14.767   3.447  0.0482  0.0937  0.1019
27468W        W43652   4.566  15.161   4.109  0.0873 -0.1491 -0.3015
27469W        W43653  13.951   5.648   1.791  0.0074  0.0265  0.1344
27470W        W43654  14.250  18.648   1.837  0.0396 -0.1285 -0.1317
27471W        W43655   3.419  18.867  14.221  0.1207 -0.1063  0.1110
27472W        W43656   0.126   9.277   4.282 -0.1065  0.0056  0.2135
27473W        W43657   6.875   9.665  12.486 -0.0785  0.1589  0.0567
27474W        W43658  18.846   7.861  13.207 -0.0334 -0.2169 -0.2424
27475W        W43659   3.151   9.767   4.709 -0.2221  0.1623  0.0211
27476W        W43660   5.617   0.628  10.904 -0.2035 -0.0466  0.1804
27477W        W43661  10.054   0.699   4.380  0.1487  0.1392  0.0106
27478W        W43662   9.354  14.466   3.067  0.0967  0.0409 -0.0531
27479W        W43663   0.045  18.697   4.299  0.0330 -0.1410  0.0620
27480W        W43664  10.351   4.129   2.736  0.0603 -0.0239  0.1266
27481W        W43665  13.485   3.314   2.236 -0.0408  0.2416 -0.1878
27482W        W43666   7.534  16.116  11.266 -0.1609  0.1072  0.0388
27483W        W43667  12.800   0.936   4.413 -0.1496  0.0140 -0.2104
27484W        W43668   0.242  11.537  14.203 -0.1987  0.2285  0.2732
27485W        W43669  13.788   5.898   3.773  0.1155 -0.1118  0.2295
27486W        W43670  10.399   3.851  11.228 -0.0935  0.1060  0.1162
27487W        W43671  10.783  12.874  11.390  0.1534  0.3207  0.0380
27488W        W43672   6.175   2.751   4.341  0.1689  0.0365 -0.1391
27489W        W43673   8.180  12.262  14.344  0.2599 -0.1321 -0.1654
27490W        W43674  10.092   7.398  10.496 -0.1234  0.1457 -0.0711
27491W        W43675   2.163   7.726   2.714 -0.1646 -0.0138  0.1262
27492W        W43676  18.993   5.919   3.625 -0.0720 -0.0645 -0.2287
27493W        W43677  13.572  17.678  12.329  0.0325 -0.0376  0.0563
27494W        W43678  11.500  14.419  15.382  0.0092  0.0665  0.0446
27495W        W43679  10.957  17.474  13.719  0.0698 -0.1703  0.1386
27496W        W43680   6.398   5.770   4.734  0.0317  0.1117  0.0615
27497W        W43681   1.723  10.161   3.015 -0.0454  0.1421 -0.0744
27498W        W43682  14.867   4.560  12.279  0.2961 -0.1697  0.0681
27499W        W43683   6.063   8.266  14.049 -0.0995 -0.3856  0.0884
27500W        W43684   9.494  11.982   4.107 -0.0511  0.0648  0.0623
27501W        W43685   3.783  18.115   4.249  0.3236 -0.0198 -0.0048
27502W        W43686   8.155   5.958  12.944 -0.1493 -0.0573  0.1244
27503W        W43687   7.015   2.957   4.255  0.0487  0.0287 -0.0373
27504W        W43688   7.183  14.922   1.251  0.0317  0.0024  0.1036
27505W        W43689  11.854   9.644   4.269 -0.2531  0.1305  0.1196
27506W        W43690   8.866  10.113   2.459  0.1919 -0.2880  0.0897
27507W        W43691  14.512  17.689  13.091  0.1299 -0.0375 -0.0669
27508W        W43692  16.765   1.834   0.227  0.2527 -0.1732  0.0460
27509W        W43693   4.712  17.618  12.255  0.0575 -0.0675  0.1107
27510W        W43694   5.636   4.649  10.428  0.2006 -0.3695 -0.0396
27511W        W43695   2.071  16.143   0.096 -0.1769 -0.3288  0.2611
27512W        W43696  17.603   0.098  12.416 -0.2282 -0.3132 -0.1069
27513W        W43697  10.821  17.933  11.081 -0.3663  0.2195 -0.0733
27514W        W43698  13.156   6.904  11.509 -0.0597  0.1866  0.3760
27515W        W43699  14.189  15.156   0.643 -0.1326  0.3898 -0.0911
27516W        W43700  16.725   2.148   4.611  0.0491  0.1807  0.2920
27517W        W43701  18.781   8.016   2.658 -0.0518 -0.2624  0.0667
27518W        W43702  16.501  14.522  12.494 -0.2938 -0.2293  0.0322
27519W        W43703   8.756  12.745   0.476 -0.3351 -0.3593  0.1281
27520W        W43704  16.186  15.285   3.968 -0.0704  0.0301 -0.1715
27521W        W43705   5.662  15.882   2.540  0.2782 -0.0804  0.3090
27522W        W43706  14.786  17.069  12.060  0.0859  0.0844 -0.0232
27523W        W43707  14.347   0.378  14.370 -0.1631 -0.2646 -0.1785
27524W        W43708  13.638   1.391   2.378 -0.1805  0.0577  0.0926
27525W        W43709  10.189   0.036  13.976 -0.1359  0.0701  0.2468
27526W        W43710  14.356   8.881  11.584 -0.4964 -0.2558  0.0845
27527W        W43711   8.746   8.265  14.861 -0.0607  0.0765  0.0176
27528W        W43712  17.464   2.246  14.512 -0.2046 -0.0885  0.3874
27529W        W43713  14.856  12.004  11.255 -0.0997 -0.1093  0.0259
27530W        W43714  15.530  12.927   5.500 -0.1421  0.3047 -0.1513
27531W        W43715   1.558   6.054   2.586  0.0873  0.0935  0.0835
27532W        W43716   6.579   1.979   3.467 -0.2406  0.1198  0.1204
27533W        W43717   1.848  12.396   3.642  0.1119 -0.1509 -0.0604
27534W        W43718   7.356  16.078  15.170 -0.1837 -0.0258  0.0297
27535W        W43719   1.455   7.135   3.756  0.0646 -0.2017 -0.1287
27536W        W43720  11.087   4.795  15.288  0.1504  0.2718  0.0706
27537W        W43721  10.879  13.202   4.513  0.0169  0.2079  0.0454
27538W        W43722   9.324   3.695  11.628 -0.0643 -0.4499 -0.2556
27539W        W43723  11.880   2.415  15.347 -0.4058  0.0422 -0.1507
27540W        W43724   1.568   9.608  12.979 -0.0591 -0.0846 -0.2137
27541W        W43725   5.131   3.840  11.394 -0.0089 -0.0168 -0.0655
27542W        W43726   6.062   2.651   0.868  0.0518  0.0204  0.0783
27543W        W43727   6.180  14.116   1.192  0.1420  0.0380  0.1760
27544W        W43728   3.826  15.653   4.362 -0.1401 -0.0978  0.0652
27545W        W43729  17.891  16.780   0.084 -0.0862  0.0652  0.4990
27546W        W43730  18.363   5.729   5.634 -0.2008  0.1173 -0.1895
27547W        W43731  16.731   8.253  12.908 -0.1506  0.0629  0.1214
27548W        W43732  16.187  10.551   2.110  0.7672  0.0440 -0.1221
27549W        W43733   8.371   8.466  14.402 -0.1033  0.1880  0.3688
27550W        W43734   5.934  16.896  13.503 -0.0295  0.0794  0.1442
27551W        W43735   4.252   8.900   2.880 -0.1500 -0.1101 -0.0378
27552W        W43736   3.764  10.174  12.829 -0.0255  0.1998 -0.1013
27553W        W43737   2.725  12.023   4.080  0.0340  0.0150  0.2747
27554W        W43738   6.141   5.981  15.089  0.2270  0.0783  0.0386
27555W        W43739   4.782  16.088   1.983  0.1397 -0.1190  0.2136
27556W        W43740  12.874   6.276  15.382  0.1046  0.0932  0.0816
27557W        W43741   0.144  12.896   2.752  0.0866 -0.0972  0.1357
27558W        W43742   9.158   7.303   5.278 -0.1930 -0.2784 -0.0555
27559W        W43743   0.170  13.122  13.118  0.2057  0.0105 -0.0043
27560W        W43744  13.529  11.947   0.947 -0.0010  0.1247 -0.0178
27561W        W43745   7.126   6.490   1.609  0.0384 -0.1783 -0.3636
27562W        W43746  14.967  14.126  10.824 -0.2121 -0.0355 -0.2342
27563W        W43747   9.736  11.337   1.417 -0.3447 -0.0763  0.0087
27564W        W43748   7.288   7.139  11.040  0.0430  0.5637 -0.2436
27565W        W43749  10.822   7.674   2.601  0.2190 -0.2857 -0.1813
27566W        W43750  15.244   7.203   5.366  0.2536 -0.2268  0.0325
27567W        W43751  14.649   3.628  11.633 -0.2677  0.4541  0.0857
27568W        W43752  13.493  12.090   1.477 -0.1010  0.1643  0.2222
27569W        W43753  12.939   6.980   1.050  0.0244 -0.2575  0.1847
27570W        W43754   0.721   8.474  14.302  0.1844 -0.2378 -0.0550
27571W        W43755   2.499   6.416   1.123  0.1276 -0.1029  0.0977
27572W        W43756  16.666   3.186   3.112  0.2500 -0.2605  0.0865
27573W        W43757   6.238  13.579   4.546  0.1956  0.3701 -0.1266
27574W        W43758  16.981  18.686   2.683 -0.1036 -0.0624  0.1076
27575W        W43759  13.493   6.982   3.257  0.2259  0.3757  0.1725
27576W        W43760   2.936  13.486  12.754  0.3566  0.1667 -0.1816
27577W        W43761   0.602   4.718  10.739 -0.0755  0.2101 -0.2508
27578W        W43762   4.247   9.155  13.870 -0.2858 -0.1975 -0.1867
27579W        W43763   8.764   7.685   0.725  0.0310  0.0095 -0.3560
27580W        W43764   9.592  16.357   3.962  0.0865 -0.0069  0.1046
27581W        W43765   6.530   6.210   4.567  0.2797  0.0163 -0.0678
27582W        W43766   7.322  13.752   0.274  0.1957 -0.0912  0.5252
27583W        W43767  11.035   2.763  12.329 -0.1641  0.2429  0.0335
27584W        W43768   0.063   5.795   0.703 -0.0691  0.3505 -0.1546
27585W        W43769   8.437  16.905   5.083 -0.1757 -0.3234 -0.1978
27586W        W43770   3.159  17.880  13.048  0.2319  0.2140  0.2942
27587W        W43771   5.542   3.644  11.111  0.0328 -0.2331 -0.1602
27588W        W43772  15.159  16.610  13.223  0.1567 -0.0818  0.1151
27589W        W43773  12.092  14.618   3.427  0.1242 -0.3101 -0.0410
27590W        W43774   3.817   4.582   6.222  0.0546  0.0089  0.0609
27591W        W43775  12.774  15.059   2.204  0.2331 -0.2099  0.0186
27592W        W43776   9.133  10.491   0.065 -0.1641 -0.0553  0.0768
27593W        W43777   6.022  16.198  12.732 -0.0159  0.0977 -0.3399
27594W        W43778   0.617   7.664   1.843  0.0171 -0.1140 -0.1196
27595W        W43779  18.452   7.220  14.915 -0.3433 -0.0594 -0.0195
27596W        W43780   4.996  12.583  11.037 -0.1121 -0.4950 -0.0187
27597W        W43781  15.512   7.853   0.619  0.0106  0.1406 -0.0394
27598W        W43782  15.010  17.215   5.563 -0.0528  0.1971 -0.1214
27599W        W43783   1.049   6.312  11.264  0.2444 -0.1144  0.2565
27600W        W43784  16.993  16.292   1.101  0.1634 -0.1553 -0.1722
27601W        W43785   3.891   4.030   0.451  0.1154 -0.1041 -0.2825
27602W        W43786  16.694   8.967  10.478 -0.0854 -0.2402  0.2041
27603W        W43787  13.645  16.371   0.399 -0.0166  0.1629  0.3406
27604W        W43788   5.012  11.854   2.595  0.0860  0.0578 -0.0556
27605W        W43789  18.494  11.684   0.018 -0.0918 -0.0345  0.0688
27606W        W43790  12.462  12.392   4.452 -0.0167  0.0598  0.0402
27607W        W43791  10.285  14.687   1.792  0.0229  0.1041  0.0690
27608W        W43792  17.005   0.205  11.793  0.0731  0.1223  0.0978
27609W        W43793   4.445  10.954  15.347  0.0026  0.4858  0.1220
27610W        W43794  11.825  18.913   4.632 -0.2727 -0.2049  0.0908
27611W        W43795   5.140   7.149   3.722 -0.2829  0.2101  0.0839
27612W        W43796  13.854  12.639  13.566 -0.0695 -0.1588  0.0796
27613W        W43797   7.113  10.202   2.548 -0.0872 -0.1803  0.1156
27614W        W43798   4.580  12.794   3.543  0.1101  0.0977 -0.1497
27615W        W43799   9.445  10.235  14.620 -0.0518  0.0437 -0.3089
27616W        W43800   3.614   0.342  13.334 -0.0788 -0.0728 -0.0766
27617W        W43801  13.964  16.141   2.873  0.1895 -0.1598  0.3186
27618W        W43802   2.016   7.257   0.753 -0.1156 -0.2804  0.0011
27619W        W43803   7.111   8.032  13.703 -0.0557  0.0843 -0.1992
27620W        W43804  11.674   4.798   3.017 -0.2379 -0.2839 -0.3391
27621W        W43805  15.621  11.861   0.088 -0.1618  0.1099 -0.2552
27622W        W43806   0.137  16.822  10.065 -0.1054 -0.0367  0.1660
27623W        W43807  10.603   9.184  14.560 -0.1467 -0.2183  0.0656
27624W        W43808  10.385   6.112  11.046  0.0245  0.3787 -0.1112
27625W        W43809   2.160  13.684   5.591 -0.1721 -0.2409 -0.0029
27626W        W43810  11.299  15.540   1.134  0.1557 -0.2539  0.0496
27627W        W43811   4.079   2.718  11.299  0.0306 -0.1450  0.1443
27628W        W43812   6.018  11.405  13.371 -0.0422  0.1589 -0.1231
27629W        W43813  18.202  16.010   2.607  0.0973  0.4385  0.1204
27630W        W43814   5.002  14.267  14.629 -0.2650 -0.1430 -0.0116
27631W        W43815  12.653   1.817  13.855  0.1165 -0.0761  0.0715
27632W        W43816  10.091  17.437   5.091 -0.0008  0.0788 -0.1502
27633W        W43817   8.237   0.714   3.000 -0.1385  0.0712  0.0926
27634W        W43818   4.827  10.637   3.843  0.2839 -0.0910 -0.1059
27635W        W43819  10.121  16.287  14.733 -0.2672  0.3776 -0.0445
27636W        W43820  18.522  17.409  14.630 -0.0287  0.1067 -0.2135
27637W        W43821   4.764   8.582   3.214  0.0816 -0.3577 -0.0641
27638W        W43822   0.672  13.191  12.632 -0.2760  0.1140  0.0444
27639W        W43823   9.866   0.231   2.695 -0.0393 -0.0537 -0.1884
27640W        W43824  15.689  11.993  14.095  0.0588  0.0008 -0.1883
27641W        W43825  10.986   5.901   2.498  0.1695 -0.2106 -0.2383
27642W        W43826   2.499   3.016  11.090 -0.4199  0.2020 -0.2006
27643W        W43827   7.501  10.343   4.940 -0.2082  0.0509 -0.2561
27644W        W43828   1.461  10.433   3.375  0.2192 -0.0150  0.0588
27645W        W43829  17.564  11.398   5.505  0.0476 -0.2304  0.2123
27646W        W43830   4.274  12.701   2.870  0.2796  0.1220 -0.0269
27647W        W43831   3.624   7.669  14.932 -0.3551  0.1055 -0.2046
27648W        W43832   9.769   4.138   2.329 -0.0651  0.1560  0.1354
27649W        W43833  14.853  16.272   0.970  0.1698 -0.0751  0.1968
27650W        W43834   6.759   5.248   1.127  0.0295 -0.1851 -0.1707
27651W        W43835   9.243  17.065  11.918 -0.2358  0.0282  0.1690
27652W        W43836  14.605  12.628  12.405  0.3115 -0.0884 -0.0166
27653W        W43837   1.454   3.635   1.569  0.2572  0.3772  0.2035
27654W        W43838   5.985  17.843   4.496  0.0747 -0.1122  0.1452
27655W        W43839   5.717  16.645   0.031  0.0743 -0.1383 -0.0428
27656W        W43840   0.852  17.373  12.914  0.1261 -0.1459  0.0229
27657W        W43841   3.013   1.851   5.036  0.2716 -0.0540  0.0670
27658W        W43842  18.013   5.833   5.093  0.1478  0.4070  0.0050
27659W        W43843  13.165   0.543   1.909  0.1246 -0.1956  0.0920
27660W        W43844   8.605   9.038   4.161  0.0618  0.0173  0.1285
27661W        W43845   4.359   2.579  12.693  0.1423  0.1776 -0.0182
27662W        W43846   8.775  16.775   2.449  0.2642  0.0462  0.1619
27663W        W43847  18.434   2.283   4.260  0.0110  0.4269 -0.2153
27664W        W43848  14.902  16.677   4.582 -0.3834 -0.4163 -0.1706
27665W        W43849   8.087   9.179  12.913 -0.0276 -0.2335 -0.1083
27666W        W43850  18.776  10.115  12.225  0.2437  0.0740  0.0751
27667W        W43851   4.341  12.102  11.374  0.1545 -0.1368 -0.2402
27668W        W43852  11.907   9.478   1.098  0.1404 -0.3224 -0.1155
27669W        W43853   9.254  12.777   0.622 -0.0432 -0.2012 -0.3532
27670W        W43854   2.076   9.329  12.623 -0.0316 -0.2370  0.0039
27671W        W43855   0.195   9.281  11.306  0.1057  0.0143  0.2719
27672W        W43856   2.074   7.234   1.923  0.0027  0.1505  0.0260
27673W        W43857  14.164   7.369   2.193  0.1750 -0.2927  0.2392
27674W        W43858  11.320   2.864   4.719  0.0516 -0.0942 -0.0179
27675W        W43859  17.112   7.574  10.039  0.5886  0.0613 -0.1713
27676W        W43860   8.884   5.215   2.943 -0.2254 -0.3703 -0.1700
27677W        W43861   4.233  13.169  12.174  0.1211 -0.2212 -0.2437
27678W        W43862   7.180  10.085  11.910  0.0577  0.4859 -0.1354
27679W        W43863   5.475  11.247   1.691  0.1156  0.2073  0.2869
27680W        W43864   6.783   9.648   4.113  0.0845 -0.0449 -0.0370
27681W        W43865   8.138  13.948   2.192 -0.1597 -0.0911 -0.0165
27682W        W43866   7.477  15.587   1.926  0.0038 -0.1231 -0.2587
27683W        W43867  14.213  10.773  14.253 -0.1691  0.1771 -0.0779
27684W        W43868  17.638  17.540   1.871  0.1693 -0.1855 -0.0960
27685W        W43869  10.675   4.179  14.349 -0.2162 -0.2085 -0.1441
27686W        W43870   4.620  17.104  14.897  0.0617  0.0676  0.2965
27687W        W43871   8.357   3.130   0.437  0.3480 -0.2177  0.2860
27688W        W43872   0.197   7.548  12.142 -0.0466  0.0430  0.2284
27689W        W43873   7.246  16.602   1.901  0.1151 -0.0093 -0.3001
27690W        W43874  10.394  14.890  14.914 -0.0291  0.6711  0.2117
27691W        W43875   7.015  13.386  14.601  0.5450 -0.1557 -0.0462
27692W        W43876   4.089   2.410  14.251 -0.1668  0.1057 -0.1821
27693W        W43877   5.864   4.088   4.783  0.3154 -0.2461  0.2653
27694W        W43878  12.840   4.083   4.513 -0.1179 -0.0879  0.1396
27695W        W43879  16.589  17.893  11.887 -0.1083 -0.1828 -0.2233
27696W        W43880  17.453  14.135   4.962 -0.2102 -0.1696  0.1181
27697W        W43881   9.533   2.670  12.918 -0.2669 -0.1909 -0.0094
27698W        W43882   6.219  18.672   4.259  0.0175  0.1628  0.1287
27699W        W43883  14.968   6.369   2.837 -0.0636  0.1343  0.4048
27700W        W43884   7.771   6.957  15.306  0.2072  0.0037  0.2284
27701W        W43885   1.290  18.823   2.044 -0.1545 -0.3429  0.2649
27702W        W43886  12.745  18.640   1.643  0.0653  0.0337 -0.1005
27703W        W43887   6.299  15.687  11.542  0.1995 -0.0825  0.4438
27704W        W43888   3.428  16.604   2.340 -0.2543  0.0204  0.0077
27705W        W43889   6.720   4.926   4.090 -0.0063  0.0881  0.0583
27706W        W43890   7.828   7.289  13.435  0.0240 -0.0238 -0.1900
27707W        W43891   9.987  16.315  12.742 -0.0694 -0.2970 -0.0733
27708W        W43892   4.455   5.891  12.373 -0.0766 -0.4281  0.1019
27709W        W43893  17.044  13.747   5.350  0.2787  0.0521 -0.1202
27710W        W43894  10.003  12.731   2.656 -0.1023  0.1290 -0.2013
27711W        W43895   5.001   0.937   5.019 -0.0336 -0.1122 -0.0213
27712W        W43896   2.347   2.552  12.478 -0.1222 -0.3038  0.0967
27713W        W43897  13.173   1.713  12.285 -0.1060 -0.0597  0.0507
27714W        W43898  10.508   4.694  13.317 -0.2799 -0.0228  0.3344
27715W        W43899   8.812  13.324   5.195 -0.0435  0.1799 -0.4267
27716W        W43900  15.259  14.127   3.952 -0.1486 -0.0513 -0.0458
27717W        W43901   6.514  16.618  11.999  0.2129 -0.1441  0.3211
27718W        W43902   8.604   8.026  10.719  0.0136  0.0669 -0.3188
27719W        W43903  17.659   0.319  10.928  0.2313  0.1168  0.2028
27720W        W43904   1.815  10.394   0.805  0.0445  0.3311 -0.1069
27721W        W43905   8.304   5.686   0.376  0.2153  0.2203  0.3869
27722W        W43906  14.807   2.027  11.478  0.2647 -0.0247 -0.1582
27723W        W43907  12.961   9.710  14.250  0.0671 -0.3443  0.1284
27724W        W43908  12.645   2.931   1.376  0.3231  0.1892  0.0787
27725W        W43909   1.694   8.384  11.121 -0.2314  0.1338  0.1430
27726W        W43910  16.223  14.960   0.466  0.2001  0.0922 -0.1265
27727W        W43911   7.455  17.469   3.179 -0.1178  0.2481  0.0978
27728W        W43912  18.867   1.885  14.393 -0.2788 -0.0635  0.0107
27729W        W43913  13.301  16.392  14.429 -0.3090 -0.0778  0.0408
27730W        W43914   4.035   2.149   2.739 -0.1429 -0.1302 -0.2950
27731W        W43915  11.848   5.875   1.926 -0.1964  0.0368 -0.0509
27732W        W43916   4.500  17.266   0.537 -0.0824  0.0470  0.3647
27733W        W43917  10.864  10.226  10.359 -0.0703  0.0328 -0.1030
27734W        W43918  14.148   3.352  11.359 -0.3079 -0.5287  0.0858
27735W        W43919  10.221  13.955  14.631  0.1992  0.2075  0.2419
27736W        W43920   8.543   8.562   2.247 -0.1584  0.0527 -0.4007
27737W        W43921   3.894   1.176  10.875 -0.1176 -0.3980 -0.2149
27738W        W43922   2.373  17.629   1.205  0.1967 -0.0402  0.2487
27739W        W43923   2.587  10.026  12.680 -0.0512 -0.1129 -0.0257
27740W        W43924   8.176   5.445   1.245 -0.1657  0.1595 -0.1729
27741W        W43925   7.501   4.782  11.683  0.4293  0.3755  0.1872
27742W        W43926   9.670  12.228  12.991 -0.0963 -0.0533  0.1040
27743W        W43927   7.167   6.994  14.723  0.0820  0.2590 -0.0483
27744W        W43928   2.446   7.962  13.292 -0.0417  0.1011 -0.1312
27745W        W43929   9.223   9.153   1.233  0.0378 -0.1331 -0.1103
27746W        W43930   0.468  13.181  10.977  0.2852  0.2616  0.0117
27747W        W43931  14.416   3.206  13.255 -0.0618 -0.0015  0.0528
27748W        W43932  14.094  10.163  14.713 -0.2853 -0.0708  0.1674
27749W        W43933  12.495  15.309  15.126  0.1290 -0.0681 -0.1245
27750W        W43934  11.152   1.747   0.204  0.3319 -0.3375 -0.1597
27751W        W43935   4.038   5.235   5.482  0.2649 -0.0373 -0.2676
27752W        W43936   4.779   3.982  13.948  0.0824  0.0177  0.0614
27753W        W43937  17.940   6.643  12.047 -0.2295  0.0337  0.2133
27754W        W43938   3.022   1.720   0.364  0.0032 -0.3310 -0.1793
27755W        W43939  10.692   1.418  11.819 -0.1132 -0.0965 -0.1869
27756W        W43940  14.769   1.482   3.431  0.1889 -0.1695  0.2043
27757W        W43941  12.108   0.193  14.628 -0.0924 -0.4863 -0.0846
27758W        W43942   9.608   8.031  11.742 -0.2810 -0.1835  0.1084
27759W        W43943  18.470  12.894   0.840 -0.0748  0.0330 -0.1028
27760W        W43944  18.027   4.332  13.968  0.0528  0.1747 -0.3340
27761W        W43945  18.233   7.240   1.260  0.2289 -0.1512 -0.3053
27762W        W43946  13.229  15.231  12.636  0.1602 -0.0135 -0.0875
27763W        W43947   3.677   3.950   4.087 -0.0335  0.0353 -0.1548
27764W        W43948  17.212   0.143   2.968  0.2378 -0.0987  0.3306
27765W        W43949  16.050   7.535   2.220  0.0996 -0.3429 -0.0769
27766W        W43950   7.903   2.519   1.095  0.0429  0.0465  0.1843
27767W        W43951  16.233   8.040  11.399  0.0197  0.3168  0.4093
27768W        W43952   2.656  13.847   2.249 -0.4937 -0.1833  0.0477
27769W        W43953   0.641  15.742   1.577 -0.0595  0.1833  0.0149
27770W        W43954  10.513   3.012   2.344  0.1843 -0.1742  0.0588
27771W        W43955   1.742   0.514  13.633  0.0018 -0.0424  0.2622
27772W        W43956   4.590   2.126   4.390  0.0526 -0.1128  0.1536
27773W        W43957  17.646  18.673  15.058 -0.0897  0.1154  0.0171
27774W        W43958   7.087  14.633   2.164 -0.2391  0.4107 -0.0312
27775W        W43959  15.213  12.433  14.018  0.1351 -0.0235  0.2432
27776W        W43960  12.816  12.359   0.330  0.1351  0.1544 -0.0550
27777W        W43961   3.729  11.350   4.036  0.1546  0.0752 -0.0579
27778W        W43962  11.244  14.400  10.506 -0.2814  0.0585  0.1601
27779W        W43963   4.452  18.686   0.412 -0.1821 -0.1329  0.1241
27780W        W43964  17.104   7.286   3.995  0.0184  0.1213 -0.3664
27781W        W43965   5.445   8.079  14.513 -0.0889 -0.1778 -0.0453
27782W        W43966  17.502   3.960  15.203 -0.3299 -0.0967  0.2679
27783W        W43967   0.491   1.979   5.884  0.0211  0.1104  0.1210
27784W        W43968  17.634  17.963   0.395  0.2102  0.0262  0.5091
27785W        W43969  18.333  10.536  11.042 -0.0828  0.1535  0.1009
27786W        W43970  13.197   8.937   0.374  0.0507 -0.2963  0.1734
27787W        W43971   3.296  16.243   5.000 -0.1759  0.2376 -0.2354
27788W        W43972   0.799   5.954   1.932 -0.1726 -0.1520 -0.0870
27789W        W43973   7.942  13.667   3.587  0.0008 -0.0535  0.0847
27790W        W43974  17.727   2.487   3.068 -0.3480  0.4262  0.1530
27791W        W43975   8.639   2.594  11.837 -0.3138  0.3167  0.0019
27792W        W43976   6.390  10.310  15.312 -0.1716 -0.1094  0.2931
27793W        W43977   4.654   1.681  14.411  0.2313  0.2832  0.3828
27794W        W43978  18.087  11.186  14.181 -0.0245 -0.0450 -0.1008
27795W        W43979   0.166  13.735   4.238 -0.1523  0.0099 -0.1603
27796W        W43980  17.539  11.663   3.247 -0.1198 -0.1013 -0.0116
27797W        W43981  12.525   6.791   3.545  0.1435  0.0840  0.1898
27798W        W43982   4.855  14.630  13.926  0.2099  0.0533  0.0900
27799W        W43983   3.785  13.522   2.904 -0.0615 -0.0403  0.4166
27800W        W43984   8.877   1.971  12.971 -0.1246  0.0198 -0.0307
27801W        W43985  11.579   4.681  12.047 -0.1242  0.0965  0.0714
27802W        W43986  16.838  15.139  12.736  0.0925  0.0310 -0.3868
27803W        W43987  10.148  14.306  11.046 -0.1656  0.1387 -0.0720
27804W        W43988  13.530   5.178   4.296 -0.1596  0.2513  0.1383
27805W        W43989   0.366   2.415  13.155  0.3485 -0.1123  0.0113
27806W        W43990  18.454  11.994  11.647  0.1732 -0.1392  0.0262
27807W        W43991   2.406   3.068   0.812  0.2251 -0.0955 -0.1446
27808W        W43992   5.058  11.293  11.181 -0.1499 -0.2147  0.0010
27809W        W43993   5.014  18.305   3.649 -0.0881  0.0058 -0.1364
27810W        W43994   1.779   2.390   3.959 -0.1286  0.0543 -0.2189
27811W        W43995  13.411   4.291  11.578  0.2175 -0.0697 -0.1178
27812W        W43996  11.031  15.351   4.057 -0.3094 -0.0782  0.1010
27813W        W43997   1.247  17.421  13.264 -0.1401 -0.2349 -0.1728
27814W        W43998  11.855   8.823   1.671 -0.1960 -0.0620  0.0769
27815W        W43999  15.000   3.278   4.187 -0.2921  0.4400  0.2382
27816W        W44000   5.462  13.161   4.495  0.0403 -0.1169 -0.0730
27817W        W44001   8.297  17.219   0.458 -0.1368  0.0239 -0.0374
27818W        W44002   0.974   5.560  10.859 -0.0421  0.2704 -0.0226
27819W        W44003   2.502  15.464   3.253 -0.2041  0.4445 -0.4063
27820W        W44004  15.989  10.830   5.372 -0.0364  0.1615 -0.0577
27821W        W44005   9.278   9.262   0.762  0.5377 -0.1794  0.1630
27822W        W44006  11.579  12.056   1.889 -0.1439  0.1242 -0.0472
27823W        W44007  15.023  16.376   0.421  0.0794  0.2945 -0.1397
27824W        W44008   3.175   0.627   4.304  0.1011 -0.1989  0.0982
27825W        W44009   6.797  10.157   2.920  0.0071  0.2547 -0.1949
27826W        W44010  14.229   3.557   1.642 -0.3025  0.2518 -0.1156
27827W        W44011   1.485  10.394  13.966 -0.2836 -0.0705  0.1384
27828W        W44012   0.826   8.058   2.945  0.1878 -0.1493  0.0227
27829W        W44013   5.859   3.254  11.173 -0.0343  0.3063 -0.0513
27830W        W44014   4.884   2.844  14.135  0.0073  0.2231  0.1589
27831W        W44015   6.324   5.255  10.200 -0.2905  0.1507  0.0728
27832W        W44016   6.030  16.797   4.806  0.0061 -0.1414 -0.0565
27833W        W44017  10.086  10.011  11.945 -0.0194  0.1470 -0.1601
27834W        W44018   0.679  15.688  12.999 -0.0847  0.0838 -0.1249
27835W        W44019   2.476   3.140   2.392  0.0114  0.0525 -0.4227
27836W        W44020  18.802   3.063  12.816 -0.4987 -0.0503 -0.2295
27837W        W44021  17.838   8.916   1.920  0.1228 -0.1188  0.1481
27838W        W44022   3.963  16.348   3.209  0.0902 -0.1933 -0.0704
27839W        W44023  17.154   8.078  11.534  0.1311 -0.1753  0.0367
27840W        W44024   6.336  12.515  11.451 -0.3691 -0.1285 -0.0836
27841W        W44025  10.003  13.867  12.240  0.0511 -0.1720 -0.0410
27842W        W44026   7.213  17.704   0.520  0.0269  0.2907 -0.0886
27843W        W44027   2.237   9.628   2.332  0.1477  0.2087  0.0897
27844W        W44028   6.247   3.634   2.479  0.1408 -0.1271  0.2497
27845W        W44029   7.887   0.545  11.491  0.0452  0.3833  0.0050
27846W        W44030  11.278  10.577   3.357  0.2914 -0.1653 -0.2588
27847W        W44031   2.562  10.373  13.452 -0.0712  0.0770 -0.0652
27848W        W44032  13.129   6.304   5.305 -0.1812  0.1247 -0.1879
27849W        W44033   6.581   5.206  12.368 -0.1112  0.0150  0.1545
27850W        W44034   7.668  16.218   0.218  0.3143 -0.0766  0.1566
27851W        W44035  15.969   4.951  12.807  0.5611 -0.1429  0.0146
27852W        W44036   1.340  14.365   3.209 -0.1810 -0.1167  0.0564
27853W        W44037  12.027   2.205   3.216  0.0750  0.0995 -0.0209
27854W        W44038   4.869  10.902  12.547 -0.0731 -0.4334 -0.1935
27855W        W44039  13.121  12.121  12.580 -0.0448 -0.0413 -0.2162
27856W        W44040   2.651   3.103   4.840  0.0204  0.1361  0.1869
27857W        W44041  14.519  15.195   0.261 -0.2260 -0.1853  0.2140
27858W        W44042  17.557  17.213  13.636 -0.1319  0.1256  0.0418
27859W        W44043   2.850  14.623  11.771  0.3958  0.0525  0.1088
27860W        W44044  18.924  13.514  14.306  0.0419  0.0244  0.1497
27861W        W44045   9.281  13.845   4.384  0.1472  0.5428 -0.1431
27862W        W44046  18.700   6.921   4.720  0.2997  0.1766  0.0535
27863W        W44047  16.886  18.801   0.050  0.1052  0.1264  0.2437
27864W        W44048   0.683  17.547   2.004 -0.0452  0.0299 -0.2520
27865W        W44049  11.570   4.552   3.416 -0.0851 -0.1838 -0.1719
27866W        W44050   5.166   0.676   1.961  0.3442  0.0980 -0.1634
27867W        W44051  14.604  15.182   4.432 -0.3054  0.1194 -0.1355
27868W        W44052   3.737   6.376   3.244 -0.2783 -0.1300  0.1572
27869W        W44053   9.904   1.863   4.632 -0.3571  0.2581  0.1701
27870W        W44054  12.962   5.600   4.868  0.3171 -0.1976 -0.2795
27871W        W44055   5.733  15.914  12.398 -0.1476  0.1107  0.2214
27872W        W44056   7.806   5.629   2.824 -0.1619 -0.0644 -0.0729
27873W        W44057   9.271  18.399   0.727  0.3841  0.0480  0.0259
27874W        W44058   9.217  10.448  10.845  0.2916  0.2728 -0.2825
27875W        W44059  17.713   9.118   3.258 -0.1862  0.0026 -0.2553
27876W        W44060   3.750  17.793   2.775  0.1416  0.0373 -0.1835
27877W        W44061  17.339   9.780  10.903  0.1044 -0.1236  0.0927
27878W        W44062  18.999   6.376   0.751 -0.1523  0.2039  0.1812
27879W        W44063  13.009  16.780   2.422 -0.2847 -0.2740  0.0285
27880W        W44064   0.413  11.988  14.482  0.1253 -0.1303 -0.0315
27881W        W44065  16.772  11.183  14.920  0.0862 -0.2784 -0.0118
27882W        W44066  17.733  10.449   1.238  0.0201 -0.0901 -0.1048
27883W        W44067  14.318   1.615  10.571 -0.2340  0.1134 -0.1047
27884W        W44068   3.235   4.067  13.198  0.3124 -0.1942  0.3337
27885W        W44069   8.028   3.704   3.496  0.2564 -0.0996 -0.1621
27886W        W44070  11.753   6.660  11.222  0.0381  0.0525 -0.2084
27887W        W44071  14.926  18.687  11.997  0.0516 -0.0243 -0.0589
27888W        W44072   9.373   3.329  14.925 -0.1467  0.2492  0.1396
27889W        W44073  12.151  15.323  13.290 -0.0608  0.4847  0.1780
27890W        W44074  11.142   9.715  12.102  0.3302  0.0648 -0.2399
27891W        W44075   1.401   9.099   3.987 -0.0614  0.2435  0.1726
27892W        W44076   0.795  16.250  11.367 -0.3816 -0.2903  0.2106
27893W        W44077  13.336  17.625   2.198 -0.3161 -0.2807 -0.2818
27894W        W44078  14.643   3.779  12.157 -0.1434  0.1257  0.0115
27895W        W44079  17.366  16.247   1.516  0.0232 -0.0355  0.0337
27896W        W44080  18.986   4.637   1.122  0.1578  0.1243  0.1706
27897W        W44081  18.923  18.270  14.201  0.0624  0.3523  0.2396
27898W        W44082   6.912  16.766  14.728  0.0837 -0.1301  0.0977
27899W        W44083   6.601  18.676  12.570  0.1232  0.1705 -0.0801
27900W        W44084   4.454   4.709  10.967 -0.2033 -0.0328 -0.0388
27901W        W44085  13.973  12.765  15.047 -0.0827 -0.0529 -0.3598
27902W        W44086   2.053  15.398  10.798  0.0676 -0.1305  0.0485
27903W        W44087   4.976   5.226  14.677 -0.0384  0.4121  0.2907
27904W        W44088  17.283   0.869  12.284 -0.3139  0.1062  0.0350
27905W        W44089   6.226   4.689   5.196 -0.2350 -0.2637  0.0613
27906W        W44090   0.494  17.449   5.884 -0.3116 -0.0878 -0.1386
27907W        W44091   6.881   3.190   3.281 -0.1262  0.2473 -0.0311
27908W        W44092  16.337   5.756  13.276 -0.0365  0.1512 -0.0473
27909W        W44093   2.042  10.327   3.955 -0.2232 -0.3352  0.0900
27910W        W44094   8.864   0.026   5.464 -0.0796 -0.1172 -0.1702
27911W        W44095  13.375   4.631   0.716  0.1744 -0.5441 -0.3124
27912W        W44096   3.568   9.411   3.885  0.0433 -0.0033 -0.0601
27913W        W44097   6.355  18.550   2.616 -0.0220  0.0383 -0.1651
27914W        W44098   1.915   5.056   3.167 -0.2942 -0.2032 -0.2347
27915W        W44099   7.207  12.467  14.466 -0.2238 -0.1103  0.1835
27916W        W44100  14.160   4.703   1.791 -0.0478 -0.1088 -0.2250
27917W        W44101   3.254   8.936  14.908 -0.0859 -0.0051  0.0384
27918W        W44102   0.385   3.308  14.681  0.0171 -0.0099  0.1805
27919W        W44103  14.369   0.140   3.204  0.1336  0.2806  0.3035
27920W        W44104   9.254   1.120   5.501 -0.0875 -0.2516 -0.1313
27921W        W44105   0.896  15.977  12.475 -0.0534  0.0769  0.1610
27922W        W44106   1.309  18.866   5.269 -0.0041  0.1320  0.0389
27923W        W44107  10.034   6.893   0.521  0.0928  0.2234 -0.0288
27924W        W44108  12.490   2.220  12.091  0.0076 -0.0534  0.0324
27925W        W44109   9.312   1.313   3.320  0.1146 -0.2498  0.4634
27926W        W44110   5.211   6.594   3.745 -0.1268 -0.1391 -0.4059
27927W        W44111  11.335   4.876  14.311 -0.0400  0.3395  0.2391
27928W        W44112   7.408  17.713  15.359 -0.0614 -0.0033 -0.0521
27929W        W44113   3.986   7.577   3.766  0.2721  0.2409  0.0954
27930W        W44114   8.784  13.623  14.301 -0.0238  0.1071 -0.0869
27931W        W44115   6.850  13.885   0.456 -0.0709  0.3343 -0.4205
27932W        W44116   7.707  16.538   3.825 -0.2272 -0.0012  0.1309
27933W        W44117  13.227  13.487   2.739  0.0424  0.2508  0.0062
27934W        W44118  15.797   3.992   3.266 -0.2770  0.2178 -0.0408
27935W        W44119   2.022   9.373   4.064  0.2989  0.1184  0.1473
27936W        W44120  12.017   3.622   1.219  0.0003 -0.0014 -0.0934
27937W        W44121   2.610  15.386   2.390  0.0298 -0.0016 -0.1454
27938W        W44122  10.904  16.370   0.021  0.2298  0.0642 -0.0224
27939W        W44123  10.804   6.379  14.117  0.1414  0.1049  0.0992
27940W        W44124  11.018  10.745  13.596  0.1124 -0.3373 -0.2944
27941W        W44125  10.249   2.018   3.645 -0.0092  0.3587  0.1079
27942W        W44126   6.453   7.014   2.277  0.0307  0.0847  0.1217
27943W        W44127   3.757  11.788  15.371 -0.2287 -0.1751 -0.0152
27944W        W44128  13.151  10.054  13.774 -0.0951  0.2963  0.0537
27945W        W44129  16.888  13.163   4.178  0.1092  0.1718 -0.2710
27946W        W44130   6.882  10.226  12.439 -0.0390  0.2675  0.0182
27947W        W44131   7.981   8.298  12.036 -0.2670  0.2358  0.1364
27948W        W44132   1.731  12.056   0.788  0.1494 -0.1164 -0.0242
27949W        W44133   3.081   2.162   4.623  0.1045 -0.0983  0.1479
27950W        W44134  13.958  12.284   2.255  0.0113  0.4198  0.0845
27951W        W44135  10.192  10.370   1.057 -0.3481  0.0056 -0.2962
27952W        W44136   6.710   8.639  14.250 -0.0712 -0.0700 -0.0044
27953W        W44137   4.273   1.329  14.806  0.2177 -0.0036  0.1459
27954W        W44138  11.963   2.687  12.058 -0.1466  0.0940 -0.4737
27955W        W44139   5.672  10.616   0.537  0.3405 -0.0021  0.1643
27956W        W44140   0.897   0.167   2.091 -0.1173  0.3316 -0.0528
27957W        W44141  18.620   9.903   3.868  0.0428 -0.2993  0.3208
27958W        W44142   4.547  12.680   4.966 -0.0419  0.0815  0.0332
27959W        W44143   6.620   9.496  11.531 -0.5384  0.0302 -0.3583
27960W        W44144  12.808   2.036  10.527 -0.0373 -0.0130 -0.2784
27961W        W44145  15.958   6.520   0.236  0.1362 -0.3285  0.1746
27962W        W44146   9.107  11.896  12.993  0.3826 -0.2369  0.1018
27963W        W44147   5.621  15.608   0.359 -0.0327  0.3331 -0.1412
27964W        W44148  15.671   3.365  12.737 -0.1865 -0.1832  0.0917
27965W        W44149  16.836   6.435   1.876  0.0849  0.2493 -0.2603
27966W        W44150   1.761  14.197  12.537  0.0675 -0.0640  0.2432
27967W        W44151   2.838  18.038   4.497  0.2646  0.2608  0.2998
27968W        W44152   4.953   8.277  14.948 -0.2003 -0.0123  0.0651
27969W        W44153  10.991  14.602  11.727 -0.1363  0.2220 -0.1821
27970W        W44154  17.249   6.409   0.960 -0.0769 -0.1579 -0.2133
27971W        W44155   7.040   7.781   1.354 -0.2813 -0.0825 -0.1280
27972W        W44156   4.631   6.229  12.812  0.0141 -0.0241  0.0720
27973W        W44157  16.914   4.947   3.664  0.1738 -0.0973  0.1894
27974W        W44158  16.797  16.374  11.310 -0.2798  0.1043 -0.0864
27975W        W44159  12.662   0.731  11.064 -0.0213 -0.1485 -0.0309
27976W        W44160   3.957   7.448   1.704  0.1757 -0.1386 -0.0639
27977W        W44161  16.224   3.991   2.029 -0.3155  0.2384  0.1152
27978W        W44162  10.122  10.674  12.769 -0.3686 -0.6037  0.1557
27979W        W44163  14.529   0.263   4.914  0.1203 -0.0020  0.4462
27980W        W44164  10.037  17.769   9.643 -0.1290 -0.3016 -0.0224
27981W        W44165   5.254   2.932  13.793  0.2607  0.0019  0.0488
27982W        W44166   4.082   0.254   0.151  0.1577 -0.1597  0.0025
27983W        W44167  13.597   4.749   2.435 -0.0810  0.1346  0.2066
27984W        W44168  14.701   6.208  10.534  0.2055  0.1574 -0.1854
27985W        W44169   0.657  12.333   3.723 -0.1527 -0.1571  0.0561
27986W        W44170  16.057  13.875  12.367 -0.1440 -0.1716 -0.2011
27987W        W44171   9.199  10.609   3.719 -0.1864 -0.0130 -0.2402
27988W        W44172  18.792  16.219   4.270  0.0150 -0.2819 -0.1226
27989W        W44173   0.738  18.858  13.320 -0.2164  0.0684  0.1752
27990W        W44174  17.462   1.979   5.847 -0.4124 -0.1484 -0.0468
27991W        W44175  15.057  15.215   0.745 -0.0960 -0.1105 -0.2124
27992W        W44176  17.495  17.771  13.657  0.1045 -0.1983  0.3501
27993W        W44177   2.257  13.421  14.722 -0.3258 -0.3702  0.1618
27994W        W44178   0.181   6.619   5.083 -0.2637  0.3097 -0.5522
27995W        W44179   5.873  15.029   1.309 -0.0297 -0.4050 -0.1696
27996W        W44180   8.239   9.902  10.945  0.0453 -0.0561 -0.0870
27997W        W44181   8.388   7.402   3.733 -0.0410  0.1226 -0.1345
27998W        W44182  11.840  16.825   0.336  0.1356 -0.3583 -0.0152
27999W        W44183   5.143   3.853  14.752 -0.3407 -0.0628 -0.0838
28000W        W44184  13.457   7.854  12.032 -0.2174  0.2585  0.0056
28001W        W44185  13.174   1.305   2.155  0.3637 -0.0075 -0.0388
28002W        W44186   7.838   4.437   0.357 -0.0741 -0.0616 -0.1784
28003W        W44187  18.174  12.186  12.498 -0.1288 -0.0548 -0.1506
28004W        W44188  16.180   8.654  12.212  0.0235 -0.1185  0.2010
28005W        W44189   0.234   6.836  12.416  0.4097 -0.2748 -0.1311
28006W        W44190  13.583   5.407  13.077 -0.2012  0.3885  0.1425
28007W        W44191   8.179   1.170   2.625  0.0323 -0.0620 -0.3734
28008W        W44192  10.571  16.913  15.047  0.4296 -0.1918 -0.0866
28009W        W44193   9.874   2.689  11.034 -0.0220  0.0909 -0.0107
28010W        W44194  15.775  17.885  14.288  0.1551  0.3176  0.1553
28011W        W44195   0.204  12.007  11.456 -0.3438 -0.0577  0.4908
28012W        W44196   5.104   0.714   0.275  0.1636 -0.1364  0.2589
28013W        W44197   0.257  18.292  15.266 -0.1067 -0.0057  0.4291
28014W        W44198   0.370  11.763   4.957 -0.2007 -0.1417 -0.1219
28015W        W44199  18.959   9.200  14.201 -0.2630  0.0102 -0.0345
28016W        W44200   3.902  17.426  10.828  0.0299 -0.0754  0.0095
28017W        W44201   3.665  10.721  13.748  0.2465  0.1539 -0.0508
28018W        W44202   8.172   4.619   3.630 -0.3609  0.2588 -0.0842
28019W        W44203  17.017  15.110  15.082  0.4035 -0.0524  0.1337
28020W        W44204  13.216  10.801   2.892 -0.1709  0.1107 -0.1243
28021W        W44205   8.400  11.281   3.037  0.2267 -0.0303 -0.1728
28022W        W44206  11.947   8.899  12.457  0.0721 -0.0829  0.0547
28023W        W44207  18.211  16.088   3.660 -0.1530  0.4574  0.0127
28024W        W44208   3.414   3.039  12.591 -0.0304 -0.2517  0.1779
28025W        W44209   6.713   0.312  14.437  0.1741  0.2874 -0.1538
28026W        W44210   6.494  14.550   1.337  0.1453 -0.0438  0.3017
28027W        W44211  17.781   7.508  13.242  0.0559 -0.0219 -0.0458
28028W        W44212  16.932   6.354   2.401  0.0212  0.0197 -0.1140
28029W        W44213  15.247  11.614   2.471 -0.2501  0.0179  0.0110
28030W        W44214  10.565   1.885   4.061 -0.2038  0.0687  0.2680
28031W        W44215   8.640  12.852   1.413 -0.0481 -0.1540  0.0102
28032W        W44216   1.612  10.980  14.770  0.0916 -0.0584 -0.0390
28033W        W44217   6.070  17.915  11.919 -0.2197 -0.1356 -0.1561
28034W        W44218   5.783   0.377  11.962  0.0099 -0.0448 -0.1871
28035W        W44219  15.768   0.594  14.418 -0.0080  0.2000 -0.1302
28036W        W44220   1.084   3.889  13.056 -0.0859  0.0396  0.3347
28037W        W44221  17.984  13.797   4.347  0.3330  0.0713  0.2055
28038W        W44222  13.994   4.616   4.955  0.2397 -0.0056 -0.0074
28039W        W44223   4.686   8.958  11.877 -0.3474  0.0461 -0.0346
28040W        W44224  18.246   0.408  11.662  0.0985 -0.0333  0.5125
28041W        W44225  12.069   6.367   1.971 -0.1364 -0.3680  0.4760
28042W        W44226   8.367   9.112  13.308 -0.0876 -0.1270 -0.3295
28043W        W44227  14.056   3.689   5.111 -0.0528 -0.1484  0.4355
28044W        W44228  11.441   6.088  15.249 -0.2040 -0.1671  0.3124
28045W        W44229  12.272  18.147  12.157 -0.4790  0.2807  0.0942
28046W        W44230   0.059  17.164   5.745 -0.0354 -0.0986  0.2419
28047W        W44231  17.523   0.995  15.015  0.1990  0.2037  0.1009
28048W        W44232   9.529   4.315  14.475  0.0549  0.0139 -0.2502
28049W        W44233   1.584   0.487   1.677  0.1303 -0.0365 -0.0202
28050W        W44234  14.130  13.840  11.460 -0.0033 -0.1315 -0.2403
28051W        W44235  16.596   5.112   1.887  0.3675  0.0971 -0.2374
28052W        W44236   8.671   8.288   2.662  0.1106  0.1149 -0.0275
28053W        W44237   1.476   8.974   1.645  0.1346  0.0407  0.1570
28054W        W44238   0.345   2.010   4.164  0.0014  0.2425  0.0254
28055W        W44239   5.422   0.672   0.913  0.2653  0.1678  0.5152
28056W        W44240   3.153   5.960  11.242 -0.2266 -0.2392 -0.0851
28057W        W44241   4.809   0.144  11.772 -0.2011  0.1624 -0.0570
28058W        W44242   5.648   0.812   3.836 -0.0494  0.1780 -0.0644
28059W        W44243  12.281   1.774   0.637 -0.1926  0.1861  0.2175
28060W        W44244   6.096  14.845  11.003 -0.0151 -0.0125 -0.1648
28061W        W44245   8.202  18.508  13.229  0.1092 -0.0736 -0.0192
28062W        W44246  15.858   1.364   3.162  0.0277 -0.0342  0.2672
28063W        W44247  16.262   8.581  10.495  0.2753  0.1385  0.0644
28064W        W44248  16.706   2.541  14.886  0.0400  0.1670 -0.1288
28065W        W44249  10.229  12.238  15.338  0.3432  0.2274 -0.0622
28066W        W44250   2.777   2.557  11.450  0.0796  0.0839  0.1151
28067W        W44251   7.267   2.970  11.272 -0.3339  0.2285 -0.0879
28068W        W44252   2.170   7.333  10.798  0.0941  0.1202 -0.1809
28069W        W44253   6.211   3.320   4.397 -0.3756 -0.1219  0.1919
28070W        W44254  11.504   8.687  13.628 -0.0911 -0.3606 -0.1831
28071W        W44255   4.254   6.037  13.165  0.0672 -0.0999 -0.0542
28072W        W44256  15.880   5.205  13.873 -0.1781 -0.2546 -0.1312
28073W        W44257  17.600   9.774   2.935  0.2620  0.1735 -0.0906
28074W        W44258   4.163  17.129   2.452 -0.0604 -0.0950 -0.2330
28075W        W44259  11.404  18.922  13.014  0.2764 -0.4617 -0.2462
28076W        W44260  17.685   7.097  15.054  0.2589 -0.3680 -0.1923
28077W        W44261   5.051   3.043   2.798  0.1074  0.0072 -0.1189
28078W        W44262   7.967  11.981   3.116 -0.1629  0.1455 -0.1406
28079W        W44263   3.007   3.812  12.158  0.0021  0.2846  0.1769
28080W        W44264   6.670   5.699   5.594  0.0138 -0.0390  0.0472
28081W        W44265  18.998  12.482  11.708  0.0813  0.2761  0.0969
28082W        W44266  17.913  18.662   1.475  0.1237  0.0455 -0.1470
28083W        W44267   9.267  12.175  15.318 -0.1327 -0.1120  0.3954
28084W        W44268   3.404   9.531  12.225 -0.1194 -0.0681 -0.0994
28085W        W44269   2.212   3.892   2.671 -0.1892  0.0845 -0.1402
28086W        W44270   9.830  17.135   4.348 -0.0355 -0.1912  0.0102
28087W        W44271  11.613  14.733   1.297  0.3239  0.1228 -0.1869
28088W        W44272   2.204  12.204   4.803  0.1816  0.2089 -0.0387
28089W        W44273   3.419  11.658   3.612 -0.0124  0.1294  0.0597
28090W        W44274  18.091   1.699   1.418  0.1128 -0.1924  0.0946
28091W        W44275  18.864   7.791   0.894 -0.4128  0.1748  0.1359
28092W        W44276   3.789   4.502   1.182 -0.0381  0.1238  0.2388
28093W        W44277  11.802   2.465   4.658  0.1991  0.2809  0.1656
28094W        W44278   8.533  18.203  14.382 -0.1654  0.2164  0.2275
28095W        W44279   9.038  11.084  14.345 -0.0635 -0.0613  0.2470
28096W        W44280   6.140  13.582   3.562  0.1842  0.2878  0.2260
28097W        W44281  10.717  12.012  12.652 -0.1379 -0.1859  0.0225
28098W        W44282  15.923   7.284   3.206  0.0774  0.1328  0.1846
28099W        W44283   5.435   1.850  12.895  0.0275 -0.0626 -0.1041
28100W        W44284   5.987  10.579  11.615  0.3655  0.0773 -0.2514
28101W        W44285  15.665  17.321   1.986  0.0961  0.1935  0.1502
28102W        W44286   6.912  16.186  14.287  0.0999  0.1265 -0.0814
28103W        W44287   1.601   7.333  14.841 -0.1661  0.0889  0.1839
28104W        W44288  10.659   3.903  11.679  0.1316  0.0140  0.0945
28105W        W44289   4.089  14.792  11.706 -0.3397 -0.1002 -0.2082
28106W        W44290  10.684  14.086   0.668  0.2415 -0.2008 -0.0590
28107W        W44291  16.603   2.932  13.063 -0.0900  0.0396 -0.2364
28108W        W44292   6.547  10.605   4.601  0.0628  0.1940 -0.1346
28109W        W44293  12.612   4.807   3.220 -0.0324  0.2011  0.1575
28110W        W44294   5.554   9.623   2.420  0.1301  0.1089 -0.0921
28111W        W44295   2.596  15.513  10.934  0.0685  0.2949 -0.2416
28112W        W44296   0.184  13.866  14.665 -0.0080 -0.0354  0.1740
28113W        W44297   2.182   0.529   1.073  0.0196  0.2378  0.0706
28114W        W44298  10.024  15.985  12.300 -0.3114 -0.0878 -0.2498
28115W        W44299  15.595   2.969  13.408 -0.4187 -0.1811 -0.1601
28116W        W44300   2.689  14.618  11.255 -0.1210 -0.2383 -0.3772
28117W        W44301  12.570  12.665   4.855 -0.0328 -0.0250 -0.0731
28118W        W44302  18.174   0.023   0.494  0.0533  0.0895  0.0447
28119W        W44303  11.061   7.228  11.952 -0.1223  0.2306 -0.0408
28120W        W44304   9.823  17.494  13.238 -0.1351 -0.1453 -0.0016
28121W        W44305  13.008  18.580   5.159  0.0909  0.0969  0.4385
28122W        W44306   4.298  13.136  13.727 -0.1147 -0.0244  0.2509
28123W        W44307  10.734   5.706   1.727  0.0027 -0.3251  0.0967
28124W        W44308   9.656  15.739  12.526 -0.0254 -0.3862  0.3299
28125W        W44309  16.776   8.636  14.604 -0.3189  0.3515  0.0921
28126W        W44310  18.982   6.437  11.216 -0.1025 -0.1292 -0.2589
28127W        W44311  17.545   4.771  11.860  0.0212 -0.2551 -0.3124
28128W        W44312  10.785  13.214   4.038 -0.0874  0.1317 -0.0852
28129W        W44313  18.879  11.944   3.189 -0.2148 -0.2683  0.0747
28130W        W44314  17.992  17.691   4.727  0.0583  0.2071  0.0127
28131W        W44315   9.462  16.084  14.823  0.0547 -0.3753 -0.0916
28132W        W44316   5.248   5.918   5.821  0.1866  0.1401  0.0286
28133W        W44317   7.640   5.704   3.897  0.1450 -0.2129 -0.1505
28134W        W44318   8.654   5.881  11.627 -0.0574  0.2159  0.2530
28135W        W44319  12.331  10.539  11.718 -0.1955 -0.0016 -0.1232
28136W        W44320   5.815   8.907  14.512 -0.1184 -0.2882 -0.1892
28137W        W44321  13.742  10.433   4.360 -0.2376 -0.1526 -0.0951
28138W        W44322  16.429  13.922   1.855 -0.0690 -0.1660  0.2593
28139W        W44323  11.546   1.596   3.953  0.0666 -0.1377 -0.1551
28140W        W44324   2.103  18.197   0.979 -0.3555 -0.1477 -0.0996
28141W        W44325  18.636  16.100  10.870 -0.2551  0.0314  0.1198
28142W        W44326  10.771  13.880  11.520  0.2916  0.4068  0.0598
28143W        W44327   2.228   9.446   1.853 -0.3401  0.0976 -0.3295
28144W        W44328  15.124   8.676  12.400 -0.2518 -0.0719  0.1198
28145W        W44329  11.997   7.216  13.595  0.1524  0.0358 -0.1237
28146W        W44330   0.704  13.176  10.393 -0.0347 -0.0393 -0.0870
28147W        W44331   2.563  12.495  14.792  0.1716 -0.4526  0.0280
28148W        W44332  16.175   6.958  11.726 -0.0114 -0.1552  0.0992
28149W        W44333   1.874  15.364  13.284 -0.1693  0.0243  0.0633
28150W        W44334   8.525   2.027  12.300 -0.1740 -0.2305  0.3314
28151W        W44335   6.375   6.733  12.714  0.0858  0.1911 -0.4982
28152W        W44336   5.125   6.243  14.131 -0.3154 -0.1027 -0.0896
28153W        W44337  16.031   4.384   2.284 -0.0898  0.0867 -0.3597
28154W        W44338   8.419   1.774   3.297  0.3913  0.1366 -0.1442
28155W        W44339   3.483   4.104  14.172  0.0051  0.0477  0.0992
28156W        W44340   9.012  12.027  13.465  0.1344  0.3624  0.0918
28157W        W44341  13.043   1.451  11.886 -0.3410  0.0375  0.0233
28158W        W44342   1.878   5.324   4.567 -0.1726 -0.0138  0.2886
28159W        W44343  17.874   9.798   4.521  0.2312 -0.3106 -0.0768
28160W        W44344  16.574  12.636  10.699  0.1928 -0.0323  0.1798
28161W        W44345  14.440  12.020   1.459  0.0687 -0.1052 -0.0625
28162W        W44346  13.031  18.372   0.227 -0.2251 -0.1611 -0.1059
28163W        W44347  16.689   1.106  11.682  0.2199  0.0014 -0.0938
28164W        W44348  15.626   4.527   5.030  0.2919  0.2835  0.1393
28165W        W44349  14.172  13.270   0.121  0.0435 -0.0878  0.2125
28166W        W44350   3.468   6.620   4.432 -0.0125 -0.1427 -0.1183
28167W        W44351  16.767  18.983   1.360  0.0154 -0.3173 -0.2072
28168W        W44352   9.044  16.866  14.357 -0.0477 -0.0813  0.1584
28169W        W44353   6.778  14.810   0.944 -0.0064 -0.1484 -0.1408
28170W        W44354  12.664  10.081  10.842  0.1260  0.2916  0.2116
28171W        W44355  13.607   8.593   4.063 -0.0860  0.0987 -0.0923
28172W        W44356  13.118  14.038  12.546  0.1387  0.0354 -0.1168
28173W        W44357   8.066   3.817  12.434  0.0154  0.2717  0.1661
28174W        W44358  14.009  13.055  14.262  0.4598 -0.0367 -0.0975
28175W        W44359  10.926   7.864  13.451 -0.0542 -0.3773  0.1916
28176W        W44360  11.622   4.830   4.386 -0.0797 -0.2603 -0.2339
28177W        W44361  15.715   2.298   3.694 -0.1284 -0.2172  0.1196
28178W        W44362   0.489   5.429   2.174  0.0879  0.0512  0.0303
28179W        W44363  13.912  16.991  14.706  0.5901  0.2380 -0.1672
28180W        W44364   0.927   2.801  13.925 -0.0347  0.1203 -0.0707
28181W        W44365   9.943   0.943   0.350 -0.0483  0.0419  0.3601
28182W        W44366   4.456   6.731   2.397  0.0558  0.2133  0.0605
28183W        W44367  13.962   8.839   0.955 -0.1737 -0.2164  0.1551
28184W        W44368   8.961  15.950  13.040  0.2248 -0.0575  0.4858
28185W        W44369   5.795   6.035   0.528  0.2324 -0.1387  0.1963
28186W        W44370  18.203   5.147   1.800 -0.0143 -0.0406  0.0806
28187W        W44371   8.961   7.312   2.539  0.1192  0.1640  0.0968
28188W        W44372  15.156  16.866  15.232 -0.1831  0.1983  0.0945
28189W        W44373   8.424   8.319  11.765 -0.0065 -0.0366  0.0650
28190W        W44374   7.737  12.455  10.937  0.3538  0.1035  0.0948
28191W        W44375  18.796   1.547  13.424  0.1662  0.1323 -0.2648
28192W        W44376   3.941  16.696   5.575 -0.0581  0.0447  0.1687
28193W        W44377   6.921   6.560  15.002 -0.0084  0.1053  0.1925
28194W        W44378   6.003  17.512  11.636  0.1896  0.0706 -0.0880
28195W        W44379  13.891  14.071  14.492  0.0217  0.3344 -0.0873
28196W        W44380   9.132   3.912  15.158  0.4353  0.4052 -0.0013
28197W        W44381   2.829  15.739   2.103  0.0311 -0.1982 -0.0484
28198W        W44382   1.033  14.146  12.077  0.1231 -0.1904  0.2276
28199W        W44383  14.658   5.954   2.270  0.0072  0.1021 -0.0094
28200W        W44384   0.784  13.008  13.105  0.0078 -0.2313  0.3229
28201W        W44385   1.596  17.839  13.206 -0.2519 -0.0606 -0.1153
28202W        W44386  17.803   6.053   1.961 -0.0655 -0.0583 -0.0621
28203W        W44387   5.008  15.886  12.946  0.2215  0.0188 -0.2035
28204W        W44388   0.655  11.155  11.702  0.4775 -0.1692  0.3062
28205W        W44389  15.730   2.353  14.746 -0.1838  0.2769  0.1330
28206W        W44390   2.572  13.969   5.745  0.1266 -0.0371 -0.1159
28207W        W44391  12.977  13.953  13.399  0.1184  0.1550 -0.1910
28208W        W44392  18.255  17.382  12.784  0.0291 -0.0888  0.1514
28209W        W44393  13.782   9.264  11.140  0.4647  0.3071 -0.1787
28210W        W44394   9.507   0.299  10.762 -0.0856  0.3320 -0.2114
28211W        W44395  15.895  11.378   0.025 -0.3326  0.0918 -0.1437
28212W        W44396   8.370  17.016   2.071  0.2410 -0.1838 -0.0937
28213W        W44397  18.666   2.005  14.816 -0.1516  0.0802 -0.1168
28214W        W44398  13.535  16.839  12.661  0.4293 -0.0374 -0.0440
28215W        W44399   7.975  18.187   2.042  0.2134  0.0983  0.0686
28216W        W44400   3.474   7.491  12.801 -0.0230 -0.3865 -0.1265
28217W        W44401  12.454  16.725  15.152  0.4096  0.2440  0.1317
28218W        W44402   7.847   0.020   2.800  0.0584  0.5025 -0.0839
28219W        W44403   9.773   5.951  15.339 -0.2764 -0.1681  0.0320
28220W        W44404  11.038  14.547   0.116 -0.0459  0.0001 -0.3299
28221W        W44405   9.701   5.832   1.884 -0.0549 -0.0999 -0.2894
28222W        W44406  18.642  13.622   4.293  0.2262  0.0555 -0.0187
28223W        W44407   2.919   7.432   4.897 -0.2434  0.3932 -0.1064
28224W        W44408  15.021   2.043  12.853 -0.1350 -0.0846 -0.0442
28225W        W44409   7.831   7.585   5.401 -0.2159  0.0148  0.0720
28226W        W44410   1.620  18.953  13.652 -0.1620  0.1322  0.3983
28227W        W44411   0.203   6.407  11.667  0.0938  0.0172 -0.0947
28228W        W44412  15.068   8.704   1.835 -0.1861 -0.0057 -0.1417
28229W        W44413   2.624   7.067  15.189 -0.1666  0.0555 -0.1349
28230W        W44414   5.928  12.774   0.789 -0.1496  0.1898  0.0465
28231W        W44415  12.297  12.967  12.430  0.4439  0.1074  0.3961
28232W        W44416  11.719  14.548   4.262 -0.2556  0.1104 -0.2778
28233W        W44417   0.931  15.445  10.594 -0.1068  0.2100 -0.2973
28234W        W44418   4.800   9.169   4.678 -0.0776 -0.0921  0.0553
28235W        W44419  18.138   5.949   3.900  0.1891 -0.0141  0.4712
28236W        W44420  14.541  14.583  12.434  0.2016  0.0438  0.2420
28237W        W44421  11.733   6.450   3.591 -0.0804 -0.0345 -0.1598
28238W        W44422   9.753  13.001  11.441 -0.0556  0.0667 -0.0040
28239W        W44423  12.871   2.597   2.131  0.3584 -0.4306 -0.0976
28240W        W44424   0.721  13.369  11.360 -0.0650 -0.1196 -0.2209
28241W        W44425  15.669   8.504   4.181 -0.2567  0.1695  0.0188
28242W        W44426   8.113  17.774  10.535 -0.2056  0.1980  0.2097
28243W        W44427  17.728   0.241   1.765  0.0246 -0.0959  0.1939
28244W        W44428  18.248   5.450  12.698 -0.1544 -0.0377 -0.1158
28245W        W44429   2.238   0.642  12.534  0.3494 -0.0213 -0.2557
28246W        W44430   3.336  14.757  14.629 -0.1644 -0.0040 -0.1178
28247W        W44431  16.842   2.527   9.760  0.1503 -0.1575 -0.5146
28248W        W44432  16.282   0.751   0.073 -0.0611  0.3416 -0.0731
28249W        W44433   9.399  11.961  14.767  0.1181 -0.0866  0.0253
28250W        W44434   9.470   5.072   2.942 -0.0750 -0.2756  0.0941
28251W        W44435  10.358  16.678  10.407  0.1143 -0.1063  0.0195
28252W        W44436   0.457  14.769   0.612 -0.1107 -0.5358  0.1023
28253W        W44437  13.589  15.501   5.201  0.1018  0.2484 -0.2664
28254W        W44438  13.238  18.571  12.438 -0.4209  0.0087 -0.2323
28255W        W44439   1.996  12.379   1.352  0.2592  0.3034  0.0348
28256W        W44440   5.499   5.160   1.592 -0.1566 -0.0848  0.3589
28257W        W44441  18.258   6.121   1.094  0.2691  0.4108  0.2616
28258W        W44442   4.692   4.543  12.142  0.1747 -0.0110 -0.0588
28259W        W44443  14.189   6.489   0.234 -0.2401  0.0166  0.1063
28260W        W44444  17.757   3.336   2.391 -0.3973  0.2116  0.0210
28261W        W44445  11.034   8.183  13.053 -0.1166  0.0069  0.1827
28262W        W44446   3.635   9.656   4.915  0.0349  0.0585 -0.2070
28263W        W44447  16.256   4.947  14.016 -0.0151 -0.0516  0.1710
28264W        W44448   5.673   5.899  11.751  0.2159 -0.0091 -0.0867
28265W        W44449   6.988   2.961   3.764 -0.1295 -0.1417  0.0833
28266W        W44450   9.258  17.389  11.518  0.2319  0.2061  0.1854
28267W        W44451  15.893   3.708  12.001 -0.0735  0.1982  0.1614
28268W        W44452  17.349   8.865   3.585  0.4817  0.1022  0.1628
28269W        W44453  13.658   8.528  10.431 -0.2765 -0.2157 -0.2906
28270W        W44454  16.990  10.381   0.021 -0.1066  0.0167 -0.0988
28271W        W44455   8.754   1.120  14.285 -0.0216  0.0116  0.1680
28272W        W44456   1.918  15.523  13.777  0.2231  0.1290 -0.0732
28273W        W44457   5.456   3.985  13.012 -0.1261  0.1401  0.3210
28274W        W44458   1.110  17.548   2.292 -0.1642  0.1498  0.2750
28275W        W44459  17.258  16.217  10.230 -0.2207  0.0225  0.2146
28276W        W44460  12.944   3.360  12.987  0.1024  0.0463 -0.0195
28277W        W44461   2.067  16.624   0.223  0.2132 -0.0681  0.2110
28278W        W44462  10.332   9.595   0.625 -0.0759  0.0166  0.2295
28279W        W44463   7.690   6.260   0.733  0.0885  0.1749 -0.0727
28280W        W44464   2.794   8.668  14.038 -0.4645 -0.0941  0.2374
28281W        W44465  10.665   3.940  14.760  0.0637  0.0356 -0.2000
28282W        W44466   4.683   7.142   3.566  0.1514 -0.2737 -0.1010
28283W        W44467  12.651   5.262   2.711 -0.2846 -0.1998  0.0768
28284W        W44468   1.003   4.925   0.176 -0.0821  0.0715 -0.1908
28285W        W44469   6.787  17.437   4.963 -0.0037 -0.0451 -0.2464
28286W        W44470   5.427   7.844  13.009  0.0089 -0.3715 -0.1331
28287W        W44471  17.579   0.435  13.095 -0.0360  0.0994  0.0223
28288W        W44472   2.742   2.893   1.302 -0.0069 -0.1689  0.0282
28289W        W44473   2.735   2.036  14.302  0.3102 -0.4519  0.1444
28290W        W44474  17.348  17.062   3.242 -0.0848 -0.1733  0.4947
28291W        W44475  15.241   5.248  11.540  0.0478  0.2964 -0.1368
28292W        W44476   6.953   2.693   9.618  0.0875 -0.3204  0.0378
28293W        W44477  11.916  13.786   1.576 -0.0222 -0.4067 -0.2261
28294W        W44478   7.294  17.164   0.602 -0.3012  0.2819  0.1021
28295W        W44479  17.806  18.107  13.379  0.2009 -0.2488  0.0377
28296W        W44480  14.579  15.867  11.524  0.0458 -0.0678 -0.1090
28297W        W44481   8.852   4.753   4.893 -0.1074  0.1084 -0.1699
28298W        W44482  12.712   0.366  12.684  0.1929  0.3108  0.2090
28299W        W44483  16.913   9.097  12.075 -0.0846  0.3536 -0.2011
28300W        W44484   1.804   0.617  14.711  0.0503  0.0495  0.0041
28301W        W44485   0.332  17.960  11.921 -0.3475 -0.0288  0.3428
28302W        W44486  18.249  15.520   2.336  0.0282  0.1329 -0.0171
28303W        W44487   0.432  14.075   1.176  0.2884 -0.0533  0.1787
28304W        W44488   3.680  17.760   1.701  0.0236  0.0564  0.0080
28305W        W44489   4.442   5.571  11.595  0.0961  0.1646 -0.1135
28306W        W44490  14.350   1.280   2.904  0.0847 -0.2129  0.1917
28307W        W44491  14.909   2.860   0.662 -0.2097  0.0754  0.0831
28308W        W44492  16.631  10.651   0.202  0.0623  0.0708 -0.0546
28309W        W44493  17.026  15.650  10.643 -0.0844  0.2608 -0.1306
28310W        W44494  12.979  17.679  11.635 -0.1699  0.0145 -0.2886
28311W        W44495  14.054   9.687  14.087 -0.0152 -0.2201 -0.2130
28312W        W44496   4.326   5.142   4.496  0.1877  0.1263  0.2541
28313W        W44497   6.234   7.179  15.024 -0.1669  0.1526 -0.0139
28314W        W44498  18.005  12.611  13.480 -0.0388 -0.0965  0.1555
28315W        W44499   2.601   8.264   4.821  0.0651  0.2389 -0.0856
28316W        W44500  15.828   4.114   0.746  0.2425 -0.3101 -0.1048
28317W        W44501  11.183  17.851  10.195  0.0351  0.3745 -0.0470
28318W        W44502   4.086   8.478   2.790 -0.2892 -0.0851  0.2420
28319W        W44503  14.862   8.252   3.516 -0.2078 -0.2882 -0.0893
28320W        W44504   7.765  15.205  10.868  0.0605  0.2835 -0.2009
28321W        W44505  14.793  13.690   3.361  0.1663 -0.1634  0.1357
28322W        W44506  13.264  15.735  15.381  0.3238  0.1640  0.1738
28323W        W44507   2.101   6.480  12.145  0.1139  0.3171  0.1625
28324W        W44508  11.688  16.393   2.136  0.1828  0.0255 -0.1458
28325W        W44509  13.226   6.237  14.990 -0.1173  0.0944  0.3839
28326W        W44510  15.659  18.344   2.310 -0.0950  0.3196 -0.2319
28327W        W44511   5.146  10.663   1.995  0.0871 -0.1750  0.0125
28328W        W44512   4.306   0.007  13.098 -0.0531  0.0860 -0.0138
28329W        W44513  15.467   3.937  14.654  0.1956 -0.0065 -0.4054
28330W        W44514  17.399  14.569   5.821  0.3395 -0.0180  0.6839
28331W        W44515  17.736   8.421   0.626  0.1248  0.1417  0.1262
28332W        W44516  13.316  18.867  14.256  0.1440  0.0666 -0.0973
28333W        W44517   3.029   5.098  11.828  0.3117  0.1511  0.4212
28334W        W44518   9.148   7.698   5.597 -0.1307  0.1473  0.0523
28335W        W44519  15.436   1.403   0.450  0.1088  0.2870 -0.0439
28336W        W44520   2.881   6.446   5.233 -0.1068  0.0875  0.0344
28337W        W44521   2.170  11.260  13.193  0.2050 -0.1626  0.1245
28338W        W44522  17.778  18.330   4.764  0.2314  0.1375  0.1058
28339W        W44523   0.959   1.600  13.311  0.2888  0.0395  0.1518
28340W        W44524   0.074  13.754  11.853 -0.0473  0.0358  0.0612
28341W        W44525  17.854   6.513  14.830  0.0427 -0.1858 -0.3311
28342W        W44526   2.434   0.453   4.647  0.0997  0.0342 -0.0583
28343W        W44527  18.765   8.676  15.138 -0.1637  0.0367  0.0654
28344W        W44528   3.904   4.959   9.986  0.0144 -0.2149 -0.0196
28345W        W44529   5.083  12.962  11.362 -0.1111 -0.1344  0.1498
28346W        W44530   4.112   6.880  12.380  0.1302  0.3187  0.4259
28347W        W44531   3.984   9.639   2.484  0.0223  0.2806  0.1409
28348W        W44532  18.744  12.627   1.732  0.1557 -0.1254  0.0568
28349W        W44533  12.335  18.544  13.347  0.1280  0.1878 -0.0030
28350W        W44534  18.183   9.217  12.880  0.2548 -0.1319  0.2513
28351W        W44535  12.376   7.993  11.033 -0.0437 -0.0735  0.2142
28352W        W44536  15.281   2.382  13.321 -0.0986  0.2326  0.0097
28353W        W44537   3.161   2.666   4.722 -0.3826  0.0618 -0.3167
28354W        W44538   0.827  11.162  12.240 -0.3480  0.0472  0.1093
28355W        W44539   9.003  13.237  11.942 -0.0702  0.0020  0.1257
28356W        W44540  16.717  18.663   4.874 -0.0451 -0.0621 -0.3276
28357W        W44541   1.003  15.334   1.793  0.0200 -0.1234  0.0335
28358W        W44542  15.484   9.686  14.736 -0.0157 -0.0398 -0.0527
28359W        W44543   1.107  14.770   2.998 -0.0813  0.2397 -0.1042
28360W        W44544   7.017   8.573  12.880  0.1299  0.2020 -0.2352
28361W        W44545   2.502  16.972   2.454 -0.3242  0.0440 -0.2758
28362W        W44546   4.537  13.700   4.724  0.0864 -0.4308 -0.1236
28363W        W44547  14.152  18.619   4.161  0.4603  0.2268  0.2086
28364W        W44548  17.860   7.009   4.826  0.2657 -0.0295 -0.0097
28365W        W44549   1.418  15.054  12.603 -0.2293  0.1141 -0.1040
28366W        W44550   4.117   3.923   2.921  0.2285  0.1209 -0.1613
28367W        W44551   7.668   6.089  15.079  0.0845 -0.0409 -0.1546
28368W        W44552   3.180   0.471   1.507 -0.0254  0.0156  0.2678
28369W        W44553  14.870  16.667   2.763  0.0901 -0.1637  0.2854
28370W        W44554  17.462  17.472  12.147  0.1102 -0.3064  0.0488
28371W        W44555  10.791  10.370   7.221  0.0315  0.2127 -0.1061
28372W        W44556   8.007   8.806   2.883  0.0589 -0.0668  0.0402
28373W        W44557  15.005  17.148  10.698  0.0669 -0.3556  0.4028
28374W        W44558   2.486  12.969  15.031  0.1009 -0.1576 -0.3677
28375W        W44559   1.929  16.818   2.285  0.2896  0.2536  0.0685
28376W        W44560   2.269   5.217   1.009 -0.2697  0.1039  0.2677
28377W        W44561  17.523   7.967   3.163 -0.0616 -0.2583  0.0923
28378W        W44562  18.774   2.629   3.929 -0.1335 -0.0760 -0.3346
28379W        W44563  14.626   5.567  11.048  0.3650 -0.1832 -0.0382
28380W        W44564  13.147   7.227  14.734  0.0305  0.0122  0.0004
28381W        W44565   1.058   0.479  14.977 -0.2027 -0.0228  0.0324
28382W        W44566   0.785   3.322   4.497 -0.0146 -0.1722 -0.1397
28383W        W44567   9.755  17.729   5.484 -0.0670 -0.0117  0.3576
28384W        W44568   4.593  11.960   1.979 -0.0682 -0.0255  0.1485
28385W        W44569   1.374   8.087  12.777  0.1333 -0.0102 -0.0462
28386W        W44570  15.304   5.793  14.461 -0.1595 -0.1489  0.3490
28387W        W44571  15.435   0.634  12.808  0.0933 -0.1992  0.3108
28388W        W44572  14.721  17.699   0.855 -0.0572  0.1905  0.4108
28389W        W44573  11.918  14.556   4.894 -0.0950  0.1970  0.6475
28390W        W44574  10.309   5.755   1.179  0.2497  0.2094  0.0946
28391W        W44575  14.617   9.200   2.492 -0.1393  0.1533 -0.3469
28392W        W44576   9.215   0.316  15.267  0.0888 -0.2905  0.1669
28393W        W44577   9.692   9.182   1.651 -0.1895 -0.0996 -0.2300
28394W        W44578   7.219   6.522   4.918 -0.0471 -0.0812 -0.2210
28395W        W44579  11.758  14.276  10.541 -0.1410 -0.2825  0.2538
28396W        W44580  18.970  18.340   2.162  0.0124 -0.3072  0.0357
28397W        W44581  15.960   7.820   1.792 -0.3662  0.1366  0.1210
28398W        W44582  12.042   9.854  12.166 -0.2332 -0.1144 -0.0643
28399W        W44583   5.182  16.676  10.816 -0.0072  0.1422 -0.1760
28400W        W44584   0.815  11.630  15.217  0.0523 -0.1253 -0.0586
28401W        W44585   8.445   4.432   4.943 -0.2006 -0.1198 -0.1775
28402W        W44586   2.667  18.496  11.626  0.2751  0.5303  0.0894
28403W        W44587  11.866   2.521   2.240 -0.0971 -0.2542 -0.0149
28404W        W44588   7.894   5.087   1.509  0.1385 -0.1581  0.5146
28405W        W44589   0.936  11.468  10.610  0.0700  0.3890  0.0323
28406W        W44590  10.013   2.605  11.631  0.1924  0.0912  0.0234
28407W        W44591  13.653   5.272   2.033 -0.1387 -0.1629  0.3686
28408W        W44592   4.654  17.055   2.410 -0.2885  0.1465  0.2919
28409W        W44593  18.000  18.320  15.218  0.0584 -0.1184  0.1308
28410W        W44594   3.896   7.396  15.230 -0.2380 -0.3603  0.2386
28411W        W44595  15.432   7.069  13.828  0.0131 -0.2277  0.1591
28412W        W44596   4.315   8.125  15.316  0.0450 -0.1440  0.0680
28413W        W44597   7.376   0.666  11.308  0.0873  0.1658  0.1926
28414W        W44598  14.656   0.929   1.514  0.1310 -0.2003 -0.0447
28415W        W44599   3.827  17.759   3.814  0.3462  0.2044 -0.2930
28416W        W44600   3.606   1.270   0.550 -0.0184  0.0076  0.0036
28417W        W44601   8.707  16.215   0.745 -0.2495 -0.0120 -0.0588
28418W        W44602   4.769   4.549   0.256  0.2447 -0.2893  0.2185
28419W        W44603  10.971   2.370   0.131  0.3132 -0.2948 -0.3684
28420W        W44604  16.759  13.252   3.637  0.0199 -0.1112  0.2010
28421W        W44605   2.271  13.006  12.762  0.0197  0.0402  0.1366
28422W        W44606  17.147   3.109   3.852  0.2382 -0.0988 -0.1856
28423W        W44607  15.318   5.607  13.950 -0.2205 -0.0877  0.0170
28424W        W44608  13.537  10.319   2.330 -0.2838  0.0230  0.0163
28425W        W44609   2.451   3.775  11.746 -0.0834  0.0028 -0.0285
28426W        W44610   0.500   1.487   6.102  0.1784  0.1360  0.0459
28427W        W44611   0.335   6.446  12.672 -0.0616 -0.1306  0.1015
28428W        W44612  12.325  17.355   0.190  0.0437 -0.3483  0.1201
28429W        W44613  15.828   0.455   3.636 -0.2282  0.0522  0.4154
28430W        W44614   4.843   2.591   6.262 -0.0507 -0.1234  0.0455
28431W        W44615   7.089  12.922   2.839  0.3255 -0.0020  0.3455
28432W        W44616   5.683   0.125  11.200 -0.1127 -0.1281 -0.0400
28433W        W44617   6.055  12.207  11.956  0.0887 -0.1531 -0.0660
28434W        W44618  15.660   1.017  14.742  0.0958  0.0558  0.2270
28435W        W44619  13.510  17.200   2.992  0.4056 -0.3032 -0.0338
28436W        W44620   8.475   0.666  12.641  0.0650  0.3964  0.0299
28437W        W44621   5.999   2.913  11.999  0.1273 -0.0874  0.1118
28438W        W44622   4.634   1.398  11.885 -0.2133  0.1481  0.2384
28439W        W44623   4.555  12.733   2.458  0.3816 -0.0148 -0.0736
28440W        W44624   3.024  18.797   2.768 -0.0882 -0.0427  0.0135
28441W        W44625  18.782   9.380  10.544 -0.0280 -0.0455  0.1340
28442W        W44626   0.299  18.337   3.073  0.0980  0.2067 -0.3594
28443W        W44627  16.982  18.946   1.849  0.1422  0.2524 -0.1642
28444W        W44628   8.409  12.595  14.582 -0.3486  0.2438 -0.3473
28445W        W44629   3.015   3.714  14.092  0.0758  0.0188  0.1935
28446W        W44630  12.644   9.576   4.724 -0.1360 -0.0814 -0.0226
28447W        W44631   8.911   2.685   2.168  0.2974 -0.0722 -0.3159
28448W        W44632   0.348   1.018  15.312  0.0828  0.4911 -0.1688
28449W        W44633   1.490   2.587   3.138 -0.1284  0.1028 -0.2798
28450W        W44634  14.630   7.606  13.929  0.2468 -0.0751  0.3051
28451W        W44635   7.760   9.029   1.933  0.1271 -0.2594  0.1328
28452W        W44636   5.624   4.110   0.627  0.5384 -0.1664 -0.0722
28453W        W44637  16.546  11.321   3.073 -0.3248  0.1573  0.4540
28454W        W44638   4.203   6.293   3.394  0.1486  0.3526  0.2886
28455W        W44639   4.555   4.337   4.218 -0.0227 -0.0909 -0.0448
28456W        W44640   5.877  18.452   0.649 -0.1509  0.1421 -0.3664
28457W        W44641   1.284  11.319  13.414  0.0213  0.1237  0.1476
28458W        W44642   2.881   4.299  10.865 -0.1914 -0.0093  0.1017
28459W        W44643  16.861   3.292   0.986  0.0307  0.0600  0.4351
28460W        W44644   0.950  11.910   3.356 -0.0094  0.1892 -0.0713
28461W        W44645  14.884   9.653  12.384  0.3448 -0.0876  0.0384
28462W        W44646   2.883  17.019  11.667  0.3607 -0.2641 -0.1923
28463W        W44647  15.840  17.446  14.140 -0.0705  0.0149  0.0033
28464W        W44648   8.092   2.856  10.938  0.0385 -0.1281  0.0605
28465W        W44649   3.033   5.592   4.461 -0.0284 -0.2347 -0.0822
28466W        W44650  14.992  13.312  15.325 -0.0019 -0.2833  0.1667
28467W        W44651  13.923   2.487  11.190  0.0548  0.0541 -0.1477
28468W        W44652  13.235   4.694  13.482 -0.1913 -0.1786 -0.0156
28469W        W44653   6.932   9.567   2.045 -0.0405  0.2460 -0.1182
28470W        W44654  16.179   4.140   2.962  0.0181 -0.2789  0.2236
28471W        W44655  13.082   3.099   2.966 -0.0304  0.5303 -0.1787
28472W        W44656   3.716   3.118  13.080  0.1205 -0.0401  0.2982
28473W        W44657   1.705  18.476  13.465  0.1368  0.1443 -0.1436
28474W        W44658   8.176   8.949  10.708  0.2259 -0.1351 -0.1164
28475W        W44659   8.271  14.202  13.556 -0.2192 -0.0348  0.0527
28476W        W44660   4.557   3.082   4.380 -0.1018  0.0060  0.2529
28477W        W44661  13.244   8.254   2.117  0.1950  0.3448 -0.3062
28478W        W44662   5.018   8.598   1.770 -0.2954  0.0806 -0.3765
28479W        W44663  12.038  17.860  11.853  0.1010 -0.3171  0.3382
28480W        W44664   7.228   3.635   2.779 -0.0560  0.1003  0.3513
28481W        W44665   0.041  12.195   0.901  0.0125  0.3059  0.0266
28482W        W44666   3.873   9.817   0.593  0.0478  0.2324  0.0724
28483W        W44667   8.100  11.481   3.354 -0.1528  0.1693 -0.1362
28484W        W44668  14.087  13.066  13.706 -0.2038  0.0408  0.1305
28485W        W44669  10.318   6.369   1.299  0.0297  0.1429 -0.0741
28486W        W44670   8.360  10.264  11.793  0.0480  0.2997  0.1465
28487W        W44671   9.770  13.014   2.313 -0.1200  0.1363 -0.2836
28488W        W44672   4.463   7.481  12.096 -0.1390 -0.0525 -0.0196
28489W        W44673   7.932  12.325   4.396 -0.0715  0.0507 -0.2520
28490W        W44674   5.636  16.092   0.277  0.0997 -0.2238  0.1473
28491W        W44675   3.495  13.194   1.466 -0.0496  0.0198 -0.2158
28492W        W44676   9.729  12.934   0.580  0.0972 -0.2257  0.0815
28493W        W44677   5.944   5.109   1.854  0.1605 -0.3469  0.2336
28494W        W44678  14.335   7.492  12.176 -0.5087  0.1742 -0.1801
28495W        W44679  15.593  10.110  11.411  0.4045  0.4472 -0.3238
28496W        W44680   7.073   6.805   3.532  0.2164 -0.1281 -0.1615
28497W        W44681  10.532  10.238   1.470  0.2375 -0.1369 -0.1453
28498W        W44682   8.423   0.418   1.991 -0.0818 -0.2086 -0.0060
28499W        W44683  18.260  15.876   1.637 -0.1416  0.1141 -0.0896
28500W        W44684  13.184   4.147  12.571  0.0868 -0.1630 -0.2200
28501W        W44685   5.495   6.263  13.018 -0.2953 -0.2075  0.0452
28502W        W44686  14.239  15.824   3.267 -0.0120  0.0914  0.0467
28503W        W44687   1.944   2.543  14.742  0.2450  0.3265 -0.0166
28504W        W44688   9.161  17.674   1.229 -0.0148  0.0512  0.1001
28505W        W44689   8.125  16.836  11.095  0.0716  0.1035  0.0005
28506W        W44690   1.941  16.452  13.351  0.3091 -0.1222  0.1449
28507W        W44691   2.620  18.254  10.512  0.4724 -0.2300  0.3145
28508W        W44692   0.416  13.424  11.742 -0.0961 -0.1863 -0.0097
28509W        W44693   9.330   0.135   1.763 -0.2727 -0.2511  0.1062
28510W        W44694   3.521   1.460  14.234 -0.1847 -0.0381  0.1487
28511W        W44695   3.086  18.853   4.110  0.2587  0.1132  0.1993
28512W        W44696  16.901   2.068  12.112 -0.1424 -0.1326  0.0823
28513W        W44697   6.395   6.344   5.022  0.3552  0.0944 -0.0766
28514W        W44698  10.302   7.173   3.457  0.0703  0.2075 -0.0803
28515W        W44699   9.027   6.329  14.976 -0.0518 -0.3431  0.2045
28516W        W44700  18.981   3.138   2.067 -0.2037 -0.2169 -0.2107
28517W        W44701   7.202   2.056   4.515  0.0628  0.0928 -0.3746
28518W        W44702   1.130   9.580   5.626 -0.2481  0.0483 -0.1838
28519W        W44703  17.749   9.923  13.195  0.1790 -0.0348 -0.0340
28520W        W44704   7.637   3.078  10.961 -0.0119 -0.3593  0.2547
28521W        W44705  17.366   7.499   2.996  0.0144  0.0109 -0.1658
28522W        W44706  15.402  15.700  14.377 -0.2978  0.0798  0.3641
28523W        W44707   7.632   3.146   1.345  0.2321  0.1127 -0.2361
28524W        W44708  16.656  18.300  15.370 -0.1140  0.4866 -0.0463
28525W        W44709   2.837   6.758   1.143 -0.1252  0.1567  0.3170
28526W        W44710   9.848  14.626   2.938 -0.0420  0.2456 -0.0621
28527W        W44711   7.549   6.984   9.719 -0.1512 -0.0839 -0.1844
28528W        W44712   7.526  11.628  14.383  0.0724  0.0139  0.0243
28529W        W44713  13.632  18.173  10.569 -0.1522 -0.0642  0.0556
28530W        W44714   8.253  17.007   5.620 -0.0243 -0.2099 -0.4245
28531W        W44715   9.443   1.813  10.533 -0.0018 -0.0559 -0.0713
28532W        W44716   7.376   7.311  13.255  0.0335 -0.3121  0.0904
28533W        W44717  14.489   8.066   0.098  0.0460 -0.1773  0.4345
28534W        W44718  11.138   4.933   2.159 -0.1654  0.2111  0.1090
28535W        W44719   9.968  11.824   4.795 -0.0002 -0.0720 -0.1844
28536W        W44720  17.595   7.211   0.449  0.1693  0.2509  0.0301
28537W        W44721   1.304  16.857   4.999  0.0181 -0.0320 -0.2995
28538W        W44722  10.328  11.761   5.419  0.0227  0.0272 -0.3644
28539W        W44723  13.243  10.488  11.996 -0.0376  0.0562 -0.0344
28540W        W44724   5.649  13.351   3.568 -0.3369  0.1342  0.1535
28541W        W44725   8.707  18.729   3.627  0.1352  0.2421 -0.0395
28542W        W44726   1.798  12.890  11.246  0.2574  0.0269 -0.1103
28543W        W44727   8.312   9.534  11.329  0.2098 -0.1391  0.1085
28544W        W44728  13.684  14.754   2.115  0.4451  0.0382 -0.1811
28545W        W44729   9.351  15.763   5.381 -0.0844  0.2915  0.0672
28546W        W44730   1.770   7.836  13.108  0.2677 -0.2349  0.2348
28547W        W44731  18.206   3.410   1.002  0.0895 -0.0513 -0.1595
28548W        W44732  17.995  12.669   3.016 -0.1198 -0.1055  0.0900
28549W        W44733   4.259   7.083   2.917  0.0307  0.0223  0.1909
28550W        W44734   6.052   4.367   0.555  0.3645  0.2120  0.1258
28551W        W44735   1.341   5.348   0.489 -0.2520  0.2674 -0.0126
28552W        W44736  13.478  12.087   3.252  0.0868  0.2008 -0.2467
28553W        W44737  17.795   4.448   2.399 -0.1157 -0.2163  0.0309
28554W        W44738   4.637  15.740  10.203 -0.2266 -0.1395  0.3708
28555W        W44739  18.159  15.558   5.284  0.1002 -0.2176  0.2363
28556W        W44740  12.465  11.212   3.935  0.1088  0.1166  0.1167
28557W        W44741   3.154   6.276   1.041 -0.0883  0.2109  0.2165
28558W        W44742   9.716  15.026  12.165  0.1785  0.1264 -0.3045
28559W        W44743   6.865  16.066  12.917  0.3818  0.0735 -0.1208
28560W        W44744  13.793   2.280   0.248 -0.2113  0.3114  0.0261
28561W        W44745  12.877  10.820   2.031  0.2487  0.1380 -0.2124
28562W        W44746  16.919  14.389  12.223 -0.0413  0.2797 -0.1916
28563W        W44747   4.749  11.551  13.367 -0.1801  0.1772  0.3827
28564W        W44748  12.907   1.950  14.242  0.2639 -0.1533 -0.0814
28565W        W44749  10.708   8.708   0.949 -0.2497 -0.2087 -0.0760
28566W        W44750  16.154  12.797   4.724  0.6124  0.0678  0.3543
28567W        W44751  12.595  18.298  12.987  0.0630 -0.1338  0.0596
28568W        W44752   3.021   0.350   5.353  0.2400  0.2564  0.0914
28569W        W44753  15.098  12.466  12.924  0.0469 -0.1200  0.2812
28570W        W44754   0.990  11.959  14.655  0.3445  0.0734 -0.3107
28571W        W44755   3.036   2.104  14.997  0.2809 -0.1779 -0.1418
28572W        W44756  14.898   7.217   1.779  0.0810  0.2084 -0.1121
28573W        W44757  15.733   0.461  14.882 -0.0035 -0.0623 -0.0976
28574W        W44758  10.201   6.887  11.769  0.3361 -0.1239  0.0024
28575W        W44759  16.013  14.602   4.662  0.1174  0.4043  0.1822
28576W        W44760  11.212   4.682   1.679 -0.2255 -0.2103  0.2061
28577W        W44761  15.014   4.115   5.747  0.1843 -0.2846 -0.0846
28578W        W44762  10.036  15.805  14.719 -0.2120  0.3052 -0.3650
28579W        W44763   8.535  10.569   0.258 -0.0284  0.1433  0.1086
28580W        W44764   2.318   8.186  11.938 -0.1276  0.1727 -0.1702
28581W        W44765   0.004  13.286   4.482  0.0584 -0.3363 -0.1226
28582W        W44766  11.718  14.948   1.791 -0.1640 -0.1790 -0.4602
28583W        W44767  16.704   0.842   3.215 -0.0468 -0.1972 -0.0629
28584W        W44768   6.371   5.151   4.803 -0.0621  0.2967  0.0375
28585W        W44769  10.120   2.612  10.544  0.1807  0.0186 -0.1328
28586W        W44770  14.101   7.654   4.129 -0.2135 -0.3296 -0.0658
28587W        W44771  15.639  16.921   4.301  0.0845 -0.0219  0.2042
28588W        W44772  11.581   7.880   5.781  0.2051  0.2019 -0.3630
28589W        W44773   2.134  10.341   1.318  0.1013  0.0627 -0.1750
28590W        W44774  10.768   3.500  12.924 -0.0346 -0.4194 -0.0523
28591W        W44775  18.744  18.815   0.913 -0.3668 -0.0083 -0.0495
28592W        W44776   4.638   9.711   1.838 -0.4450  0.1042  0.1041
28593W        W44777   9.131   2.295   1.862  0.2618  0.0538  0.2552
28594W        W44778  17.649  14.034  13.789  0.2339 -0.0738 -0.0638
28595W        W44779  13.092   0.489  12.915  0.1982 -0.1222  0.0535
28596W        W44780  11.339   9.446  12.519 -0.2041 -0.4832  0.3585
28597W        W44781  12.407  18.894  12.875 -0.1985  0.2916  0.5323
28598W        W44782  14.003   2.657   2.779 -0.0825 -0.0368 -0.1055
28599W        W44783  16.359  11.103   2.105 -0.2310 -0.1930  0.0173
28600W        W44784   2.289   5.582   0.724  0.1518 -0.1145  0.2536
28601W        W44785   2.364  16.397   1.458  0.0454 -0.2881 -0.0880
28602W        W44786  11.424  10.089  13.075  0.2442 -0.0237 -0.0084
28603W        W44787  13.868  16.870   4.928 -0.1643  0.1012 -0.1762
28604W        W44788   1.236  16.571   5.376 -0.3159 -0.0221  0.0345
28605W        W44789  16.292  15.440   0.292  0.1955  0.1026 -0.0305
28606W        W44790  12.190   9.417  11.843  0.0042  0.0348  0.0115
28607W        W44791  10.426  17.192  10.492  0.0113  0.3037 -0.3500
28608W        W44792  16.164   5.141  11.513 -0.0012 -0.1573  0.1436
28609W        W44793  12.427  13.274  13.397 -0.1235 -0.1255 -0.3034
28610W        W44794   4.540  14.623  15.206 -0.1133  0.0358 -0.0041
28611W        W44795   8.608   0.245  15.235  0.0453 -0.1932  0.2709
28612W        W44796   1.322  12.931   4.316 -0.1777  0.0233  0.0154
28613W        W44797  11.962  16.541  11.837  0.0287 -0.2861  0.1483
28614W        W44798  15.129   6.955  10.932 -0.0994  0.0261 -0.1257
28615W        W44799  14.091   8.545  11.354  0.0262  0.3073  0.1162
28616W        W44800   6.689  18.971  11.797 -0.0293  0.1617 -0.1997
28617W        W44801  16.942  16.586   1.545  0.1974 -0.0514  0.1751
28618W        W44802   3.465  13.113  14.246 -0.1068  0.0716 -0.0585
28619W        W44803   8.024  15.266   2.803  0.3329  0.0831  0.0077
28620W        W44804   0.292  14.732   1.437  0.1937 -0.1720 -0.1760
28621W        W44805  16.635  17.154  11.045  0.2394 -0.2427  0.0794
28622W        W44806   7.245  11.827   1.993  0.1242  0.1135 -0.2067
28623W        W44807  10.357  18.028  11.365 -0.1627  0.0524 -0.0438
28624W        W44808  13.437  13.419   0.965  0.2203  0.3155 -0.3080
28625W        W44809   7.523   1.872   2.724 -0.2009 -0.1955  0.0077
28626W        W44810  14.699  12.184  10.769  0.1898 -0.2972  0.1812
28627W        W44811   1.311   3.771   3.960 -0.3052  0.1664 -0.1105
28628W        W44812   7.456  14.377   1.695 -0.1268 -0.2350  0.1181
28629W        W44813  11.898   2.791   0.786  0.3673  0.0189 -0.0383
28630W        W44814   1.194   0.765   5.069  0.2853 -0.2667  0.0060
28631W        W44815  12.262  18.323   3.639 -0.2339  0.1061  0.1630
28632W        W44816   0.830  13.224   2.216 -0.0419 -0.1117 -0.1309
28633W        W44817  16.003   8.040   3.461 -0.0111  0.0032  0.3198
28634W        W44818   9.013  12.519   1.659 -0.0668  0.1796  0.1003
28635W        W44819  17.520  17.919   2.173 -0.0330 -0.1747 -0.0827
28636W        W44820   4.796   0.602   2.953  0.0322 -0.3760 -0.0783
28637W        W44821  16.557  17.942  13.831  0.0198  0.4095 -0.4284
28638W        W44822   2.559   9.969   0.491 -0.0665 -0.0917 -0.2805
28639W        W44823  16.818   5.986   0.130  0.1293 -0.4290 -0.3308
28640W        W44824  11.063   2.569  11.850  0.0624 -0.1253  0.0514
28641W        W44825  16.115  14.663  15.309  0.0947  0.2712  0.0393
28642W        W44826   0.525  10.022   9.513 -0.0646  0.0669 -0.0458
28643W        W44827   0.520   6.317  11.253 -0.0208 -0.1826  0.1620
28644W        W44828  16.716  10.330   5.860  0.0844  0.0116  0.0937
28645W        W44829   0.183   6.956  14.623  0.1594 -0.2939  0.0789
28646W        W44830  16.537   1.407   3.908  0.4057 -0.0262  0.0809
28647W        W44831   2.322  12.098  15.008 -0.0201 -0.1448  0.3335
28648W        W44832   4.443   4.240  13.676  0.2487 -0.0373 -0.0879
28649W        W44833   7.277   2.834   1.658 -0.0561  0.3131  0.2556
28650W        W44834  15.103   4.431  10.664  0.1201  0.2405  0.0015
28651W        W44835   9.449  18.828  13.441 -0.1366 -0.1062  0.0867
28652W        W44836  15.245   2.064  10.599  0.2254  0.0543 -0.1198
28653W        W44837   7.024  14.265   4.884  0.3185 -0.0791 -0.3892
28654W        W44838   3.816  17.819   1.183 -0.0133  0.2889 -0.0187
28655W        W44839   2.532  11.882  10.996  0.0871 -0.0610  0.1622
28656W        W44840   1.106  11.569  12.389  0.0681  0.1454 -0.3257
28657W        W44841   7.575  12.948   2.616 -0.0439 -0.0293 -0.1152
28658W        W44842  14.859  15.762   3.625  0.0632  0.2158  0.1042
28659W        W44843   1.056   8.742   3.666  0.1245  0.0050 -0.1793
28660W        W44844   2.968  17.723   2.533  0.2829 -0.2373 -0.1203
28661W        W44845   9.353  12.986  11.133 -0.1335 -0.0069 -0.1776
28662W        W44846   1.273  17.868  10.854 -0.0664  0.1065 -0.0236
28663W        W44847  11.544   0.402   3.895  0.1566 -0.2260  0.1580
28664W        W44848  10.700   9.684  10.154  0.1149  0.1355 -0.1402
28665W        W44849   2.303   4.358   0.828  0.1479 -0.2782 -0.1289
28666W        W44850   0.338   4.177  12.682  0.0193  0.1043 -0.1723
28667W        W44851   7.505  10.569  10.711 -0.0025  0.4221  0.2673
28668W        W44852   3.066  11.400  13.666  0.0661  0.3757  0.0639
28669W        W44853  14.834   4.927   2.563  0.1346 -0.2116 -0.0975
28670W        W44854  14.878   9.997   1.909 -0.0096 -0.0123 -0.1207
28671W        W44855   2.328   3.689   3.946 -0.3449  0.0876 -0.2140
28672W        W44856  18.592   9.854  14.290 -0.0847  0.0267  0.4904
28673W        W44857  12.521  15.391   1.425  0.1044  0.2372 -0.2257
28674W        W44858  18.515   8.762  10.016 -0.1520  0.1286 -0.1723
28675W        W44859  15.872  10.181   3.862  0.0796  0.2430  0.2039
28676W        W44860  16.271   8.490  11.094 -0.0025 -0.0176  0.0414
28677W        W44861   4.204  13.665   3.501 -0.3479 -0.1583  0.2771
28678W        W44862  12.254  14.879   5.393 -0.0138 -0.1753  0.1175
28679W        W44863   3.426   2.052  15.325  0.0623  0.2815 -0.0628
28680W        W44864  10.368  11.242   0.511  0.1082 -0.2241  0.0203
28681W        W44865   0.631   5.753  12.205  0.1513 -0.3746  0.2495
28682W        W44866  11.046   3.874  13.996 -0.0066 -0.2278 -0.1754
28683W        W44867   1.640   2.593   5.062 -0.1691 -0.1704 -0.0196
28684W        W44868   4.443  17.623  13.746 -0.0589  0.3622 -0.3781
28685W        W44869  11.575  11.031  14.242 -0.3711  0.2897 -0.2936
28686W        W44870   4.031  15.807  14.872 -0.0023 -0.1800 -0.0235
28687W        W44871   1.152   1.962   4.897  0.2245  0.0051 -0.3039
28688W        W44872   4.787   7.433  13.402 -0.1538 -0.2548 -0.2021
28689W        W44873  18.719   9.426   3.708 -0.1351 -0.3568 -0.0672
28690W        W44874   7.005  18.836  13.305  0.0635  0.2602 -0.0750
28691W        W44875  12.901   1.192   1.352 -0.1490 -0.2449 -0.0637
28692W        W44876  14.506   1.148  10.706  0.2469 -0.0244 -0.3318
28693W        W44877  11.995  16.341   9.617 -0.0986  0.0574 -0.0208
28694W        W44878   8.762   4.792   0.113 -0.0402 -0.3127 -0.0944
28695W        W44879  14.035  15.299   2.934 -0.0589 -0.2087 -0.0963
28696W        W44880  15.852   9.806  11.012  0.1823 -0.0560 -0.3724
28697W        W44881   1.276   0.441   3.103  0.0708 -0.0900  0.1162
28698W        W44882  10.702   1.462   1.420 -0.0145 -0.3207 -0.0435
28699W        W44883   1.186   2.483   4.759 -0.3621 -0.0608  0.0044
28700W        W44884  18.084  10.748   1.465 -0.2360  0.4403  0.1482
28701W        W44885   7.061   1.921  14.516  0.1017 -0.1024 -0.1146
28702W        W44886  16.532  14.247  13.395  0.0640 -0.1054 -0.1971
28703W        W44887   5.594   0.049  14.885 -0.1515 -0.0821 -0.1709
28704W        W44888   9.666   8.134   3.561 -0.1751  0.1282  0.1330
28705W        W44889   8.794   4.996  11.959  0.0056 -0.0448 -0.3002
28706W        W44890  10.384  12.008   3.296  0.1086 -0.1932 -0.0384
28707W        W44891  17.112   0.445   9.801 -0.0512 -0.1799  0.2074
28708W        W44892  10.503  16.202   0.997 -0.3288  0.1175 -0.0011
28709W        W44893  10.346   7.958  12.537 -0.1228 -0.2264 -0.1263
28710W        W44894   4.309  13.143  11.552  0.0998  0.1346 -0.1418
28711W        W44895  14.414  10.223   2.223  0.1399  0.2679  0.2010
28712W        W44896  18.010   0.898  12.130  0.1903  0.0808  0.0953
28713W        W44897  17.940   3.009   0.146  0.0731  0.0630 -0.1020
28714W        W44898   6.458   9.876   0.176 -0.0580 -0.3184  0.0028
28715W        W44899  15.694  12.962  12.505  0.2772 -0.1885  0.2780
28716W        W44900  16.971   5.476   0.192 -0.3064  0.2518 -0.0491
28717W        W44901   3.196   8.752   2.275 -0.2092  0.0963  0.0446
28718W        W44902  14.108  18.222  10.744  0.0297 -0.0666 -0.2420
28719W        W44903  12.044   4.490   0.223  0.0178 -0.0829  0.2062
28720W        W44904  13.491  13.610  10.720 -0.0328 -0.0772 -0.1990
28721W        W44905  10.335  13.123  12.670  0.1206 -0.2682  0.0519
28722W        W44906  14.994   5.312  13.756  0.1652 -0.0974  0.3214
28723W        W44907   5.098  12.428   4.380 -0.1817  0.1366  0.1090
28724W        W44908   8.032   7.064  12.657 -0.0823  0.1847 -0.3764
28725W        W44909   9.748   1.367  12.217  0.3017 -0.2233  0.4064
28726W        W44910   4.385  11.011   1.703  0.1612  0.2017  0.1619
28727W        W44911   3.855   8.056   1.956 -0.3745 -0.0991 -0.0089
28728W        W44912  18.412  10.804   3.514 -0.0443  0.1579 -0.1369
28729W        W44913  14.142   3.265  10.872  0.0569 -0.2230 -0.1998
28730W        W44914   2.385   9.007  11.466 -0.3323 -0.2495  0.1320
28731W        W44915  18.426  13.775   5.919 -0.0225 -0.1970  0.1290
28732W        W44916   2.426   0.021  14.135 -0.1884  0.0398 -0.0940
28733W        W44917  13.392   2.906  13.584  0.1134  0.1531  0.2588
28734W        W44918   1.129   3.239  14.428 -0.0517  0.3246  0.0826
28735W        W44919  16.878  17.160  11.626  0.0255  0.1422  0.2704
28736W        W44920   6.732   6.577   3.820  0.2268  0.2556 -0.0968
28737W        W44921   2.445   7.563  13.682 -0.3102  0.5302 -0.0964
28738W        W44922   6.402  17.895  12.292  0.0927 -0.1723  0.1719
28739W        W44923  12.533   5.344   1.597  0.1714 -0.0342 -0.1562
28740W        W44924   9.146  10.924  10.780  0.0780 -0.0547  0.0715
28741W        W44925   4.826   1.740  15.236  0.0325  0.0688  0.0295
28742W        W44926   8.814  18.777  11.351 -0.0237  0.1609 -0.2711
28743W        W44927   4.358   0.157   2.250 -0.0321 -0.0557  0.2103
28744W        W44928   6.481   5.782   1.744  0.1309  0.0386  0.2227
28745W        W44929  11.380  13.301  14.315 -0.0104  0.1557  0.0985
28746W        W44930   4.801   7.459  15.230  0.1112 -0.0235  0.3244
28747W        W44931   7.935  18.192   3.361 -0.1312  0.1938  0.0887
28748W        W44932  12.016  13.860   0.683 -0.0989 -0.0514 -0.0075
28749W        W44933  12.600  10.103   4.876 -0.1165  0.1215 -0.0134
28750W        W44934   1.547  12.618  12.096 -0.2928 -0.3945  0.1316
28751W        W44935   0.157   7.807   1.879  0.2267 -0.0893 -0.1613
28752W        W44936   3.313   9.966   5.591 -0.1923 -0.0357  0.2845
28753W        W44937   8.377   5.356   2.889  0.0607 -0.1195  0.1231
28754W        W44938  14.108   6.408  12.292 -0.0108 -0.0116  0.1548
28755W        W44939   2.985  10.308  12.502 -0.1299  0.0991  0.0624
28756W        W44940   9.957   2.429   3.463 -0.1818 -0.0176 -0.1043
28757W        W44941   7.907  11.612  13.444  0.1615  0.0736  0.0827
28758W        W44942   6.608   2.076  14.768 -0.1965  0.0343 -0.3583
28759W        W44943   1.489  10.823   4.600  0.3861 -0.0658 -0.0019
28760W        W44944   9.892  14.680   1.461  0.0086 -0.1552  0.0773
28761W        W44945  13.618  11.100   2.806 -0.0533 -0.0881  0.1573
28762W        W44946  10.194  13.760  10.924 -0.0188 -0.0334  0.0943
28763W        W44947  15.394   6.250   4.838  0.3025  0.1040  0.2509
28764W        W44948  18.776  18.483   1.708 -0.2869  0.3026  0.0766
28765W        W44949   5.660   0.873   5.590 -0.0550 -0.2413  0.0158
28766W        W44950   5.132  16.713  12.268  0.0887 -0.0421  0.1554
28767W        W44951  11.033   1.301   0.390  0.0331 -0.2567  0.1329
28768W        W44952   3.052   0.324   2.752 -0.2131  0.1134 -0.2615
28769W        W44953   3.954   2.106  14.667  0.0573  0.1188 -0.1849
28770W        W44954  14.589   0.274   2.751 -0.1646  0.2590 -0.0034
28771W        W44955   7.697  11.252  12.452 -0.2570  0.1477 -0.2144
28772W        W44956  16.294  18.910   0.514  0.0501  0.0073  0.0987
28773W        W44957   4.431   8.683   4.285 -0.0540  0.1656  0.1050
28774W        W44958   8.382   5.311   0.834 -0.0276 -0.0460  0.2098
28775W        W44959  13.640   6.820  12.118 -0.4062 -0.0571 -0.1417
28776W        W44960  13.990   2.432   0.743  0.2682  0.1288 -0.2384
28777W        W44961  14.427   4.194   3.735  0.1727  0.0782 -0.1690
28778W        W44962  16.753  12.399  14.714 -0.1632  0.0599 -0.2498
28779W        W44963  18.219  17.485  15.077 -0.2201 -0.1627  0.0936
28780W        W44964   1.775  16.779   4.221 -0.2709 -0.1004  0.0252
28781W        W44965   5.777   1.444   2.453 -0.0174 -0.0723 -0.0851
28782W        W44966  15.613   2.495  13.702 -0.2942 -0.1651 -0.2088
28783W        W44967   9.971   3.043   9.644  0.0989 -0.1531  0.2056
28784W        W44968   1.462   6.768   1.959  0.0584 -0.0063  0.0384
28785W        W44969   6.215  13.136   3.257 -0.0681  0.1176 -0.1880
28786W        W44970   3.917   9.528   1.588 -0.0077  0.2394 -0.0619
28787W        W44971  11.917  14.766   2.551 -0.0646  0.1944 -0.1186
28788W        W44972  16.219   5.098   4.458  0.0668 -0.0911  0.1733
28789W        W44973  17.879   5.747   0.978 -0.0079  0.2040 -0.0264
28790W        W44974   5.277   5.312   2.921  0.1983 -0.0879  0.1261
28791W        W44975   0.228   6.138  14.538 -0.0170  0.2592  0.0380
28792W        W44976   4.579   1.143  15.169  0.2354  0.2408 -0.3033
28793W        W44977  10.594   2.939  11.119 -0.0245 -0.0021 -0.0983
28794W        W44978  13.141   1.174   3.224 -0.1018 -0.1090 -0.0107
28795W        W44979  16.015  17.618   1.731  0.0949  0.0728 -0.0241
28796W        W44980  11.067   4.831  11.882  0.3827  0.1098  0.0546
28797W        W44981   9.342  15.870   1.860 -0.3715  0.1897 -0.1094
28798W        W44982   7.340   6.673   0.854  0.0960 -0.4507 -0.1498
28799W        W44983   7.061  10.526   4.563 -0.1409 -0.1995 -0.2639
28800W        W44984   5.853   4.859   0.838  0.1631  0.2299  0.1319
28801W        W44985   1.668   9.057  15.109  0.3229 -0.0914 -0.1254
28802W        W44986   6.042   8.524   3.240 -0.1313  0.0906  0.0222
28803W        W44987  14.616  12.189   3.201 -0.1466  0.1228  0.0021
28804W        W44988   2.593  12.373  12.011 -0.0230  0.1682  0.1191
28805W        W44989  15.977  14.619   5.349 -0.3190  0.0914 -0.4033
28806W        W44990  10.292   2.644   2.000 -0.0314 -0.1014  0.4267
28807W        W44991   4.908   4.884   2.817 -0.1045  0.0145  0.0236
28808W        W44992  13.951  10.169   2.055  0.3132 -0.0538 -0.2828
28809W        W44993  17.469  11.739  14.634 -0.0568  0.3634 -0.0967
28810W        W44994  12.713  18.104  14.896 -0.0046 -0.1557 -0.0513
28811W        W44995  15.755   4.899  11.924  0.1828  0.2999 -0.1342
28812W        W44996   4.283  10.437   0.077 -0.0216 -0.0767 -0.1602
28813W        W44997  10.997   0.061   4.892 -0.0608  0.1250  0.1277
28814W        W44998   0.504   2.491   2.888 -0.1439 -0.1694  0.4288
28815W        W44999   1.787  18.343  13.037 -0.1271 -0.0165 -0.0151
28816W        W45000   6.582  10.916  10.927 -0.0400 -0.0196 -0.4452
28817W        W45001   3.062   7.209  14.254  0.0762  0.1703  0.1610
28818W        W45002  11.812  11.270   2.539 -0.3274 -0.5883 -0.0253
28819W        W45003   7.813  11.374   9.800  0.0556 -0.1477 -0.0381
28820W        W45004  10.728  18.422  13.510 -0.2741  0.0368 -0.2397
28821W        W45005   7.330   4.168  13.181  0.1317 -0.1000  0.0300
28822W        W45006  13.373   0.873  11.595 -0.0265  0.2808  0.2649
28823W        W45007  14.225   3.865  11.823 -0.2356  0.2347  0.3394
28824W        W45008   3.945   1.596   5.809  0.0911 -0.0447 -0.2368
28825W        W45009  10.221  17.232  11.926 -0.1048 -0.0802  0.1988
28826W        W45010  10.231   5.819   5.063 -0.0676 -0.2156  0.1415
28827W        W45011   1.428   6.513  15.038 -0.0951  0.0169  0.0423
28828W        W45012  13.142  18.615   4.014 -0.2551 -0.0654 -0.1684
28829W        W45013  14.078   9.877  11.945  0.3760 -0.0148 -0.1334
28830W        W45014   7.282  16.391   3.399  0.0515  0.0700 -0.0623
28831W        W45015  18.186   6.688  14.222 -0.1783  0.1139  0.0192
28832W        W45016   1.890   5.237   2.285 -0.0225 -0.0689 -0.1215
28833W        W45017  18.475   1.008  11.828 -0.2323 -0.1618 -0.5269
28834W        W45018  10.643   4.349   3.787  0.0124 -0.0362  0.0688
28835W        W45019   7.786   6.648   2.972 -0.3497  0.0970  0.1173
28836W        W45020   1.651  17.935  12.694  0.0362  0.1922  0.0992
28837W        W45021   3.146   3.420   4.105  0.1269 -0.0484 -0.0348
28838W        W45022  13.419  16.783  15.316  0.1501  0.0339 -0.0329
28839W        W45023  13.303   3.297   4.865  0.1047 -0.0048 -0.0419
28840W        W45024  16.708  10.430   2.694 -0.2848 -0.1123 -0.1731
28841W        W45025  12.393  14.456  12.832  0.4435 -0.1337 -0.1306
28842W        W45026   9.853  12.864  14.728  0.2392 -0.2466 -0.0388
28843W        W45027  10.746  17.613   4.228  0.1169 -0.0330  0.1095
28844W        W45028  18.598  10.834   0.230  0.1591  0.3048  0.0747
28845W        W45029   8.748   3.446   2.838  0.0647  0.0516  0.2043
28846W        W45030   2.456  11.400   4.771  0.3287  0.2447 -0.1582
28847W        W45031  12.839  11.594  11.976 -0.2255  0.1696  0.0467
28848W        W45032  12.338  15.291   9.344 -0.1104 -0.1148 -0.0954
28849W        W45033   3.903  13.580  10.766 -0.0573  0.3208  0.2097
28850W        W45034  13.769  18.847   5.225  0.1303 -0.0986 -0.0368
28851W        W45035   7.892  15.709   1.020  0.3673 -0.0023 -0.0226
28852W        W45036  12.670  14.722  12.014  0.2116  0.0771  0.4071
28853W        W45037  12.744  15.436  12.425  0.1459 -0.0261  0.0615
28854W        W45038   7.675   8.715   4.630  0.2404  0.1489  0.0294
28855W        W45039   1.618   6.361   4.900 -0.0523  0.0320 -0.0643
28856W        W45040  18.623  10.340  14.517  0.0720  0.0928 -0.0711
28857W        W45041  18.298   1.662  15.017  0.4597 -0.0447  0.0461
28858W        W45042   4.165  16.923  12.369  0.2209 -0.1519  0.3249
28859W        W45043  15.455  14.011  11.623 -0.4457  0.2430  0.1463
28860W        W45044   3.322   6.032   3.277  0.0155  0.0510 -0.2266
28861W        W45045  12.532  11.884   2.670  0.1027  0.1559 -0.0830
28862W        W45046   2.568  17.909  12.019  0.3701  0.2445  0.0195
28863W        W45047   2.289   8.162   1.548 -0.1251 -0.3974 -0.1380
28864W        W45048   1.683  18.422  12.137  0.0644 -0.0695 -0.1258
28865W        W45049   5.690  16.922   1.346 -0.0304 -0.2739  0.1731
28866W        W45050  11.663   6.863   3.993  0.5318  0.2279  0.2446
28867W        W45051  13.017   4.364   3.561 -0.1621  0.0858  0.0587
28868W        W45052   3.655  16.525   2.828  0.2263 -0.2103 -0.0725
28869W        W45053   1.857  14.860   0.329 -0.0393 -0.1609  0.2086
28870W        W45054  14.043   5.559   2.328  0.0491  0.2037  0.0132
28871W        W45055   8.662   0.782   4.379 -0.0581  0.0342 -0.1248
28872W        W45056   6.065  11.847   0.630  0.0500 -0.1508  0.2005
28873W        W45057  10.102  18.883  11.998  0.0463  0.2786 -0.3745
28874W        W45058   4.827   2.659   2.006 -0.0548 -0.1027  0.1074
28875W        W45059   2.153  16.485  15.065  0.1680 -0.0013 -0.2388
28876W        W45060   4.707   6.964  11.425 -0.2149 -0.1504 -0.2271
28877W        W45061   6.428   2.622   0.435  0.1645 -0.0702 -0.0700
28878W        W45062  15.604  15.524  11.692  0.1114  0.2126  0.1499
28879W        W45063   8.108  12.999   1.229 -0.0768  0.0073  0.2585
28880W        W45064   5.060  13.110   4.922 -0.3367 -0.1816  0.0525
28881W        W45065  16.342  12.403   0.680 -0.4800 -0.2569 -0.2801
28882W        W45066  11.892   5.174   4.609  0.0072  0.1263 -0.0263
28883W        W45067   3.564   8.259   2.635  0.2929 -0.0924  0.0094
28884W        W45068  12.031   5.398   1.694 -0.0770 -0.2919 -0.0440
28885W        W45069  12.080   9.119   4.358 -0.4011  0.2371  0.3254
28886W        W45070  18.783   3.678  14.050 -0.0029  0.0683  0.1767
28887W        W45071   7.519   7.551   3.751  0.1935  0.1915 -0.2291
28888W        W45072  16.021   2.537   5.215 -0.0643 -0.0207 -0.1412
28889W        W45073   2.613   7.832   1.806  0.1774  0.2450  0.2208
28890W        W45074  18.734   8.966   4.811 -0.0807  0.0764 -0.2033
28891W        W45075   5.356   6.911   2.938  0.2098  0.3533 -0.2655
28892W        W45076  11.905   6.322  11.672  0.0560  0.1952  0.1004
28893W        W45077  10.387   2.075   2.160 -0.0562 -0.2523 -0.0946
28894W        W45078  18.125   6.202  13.369  0.1597  0.0406 -0.0178
28895W        W45079   8.789  10.636   4.552  0.1173  0.0173  0.2845
28896W        W45080   5.579   0.210   4.870  0.0406 -0.1318  0.0870
28897W        W45081   7.405  12.163   4.385  0.0301 -0.0444  0.2227
28898W        W45082  14.851   5.640  14.823 -0.7884  0.0943 -0.0547
28899W        W45083   1.438  11.941   5.355 -0.2151 -0.0536 -0.3146
28900W        W45084   8.818   9.719  14.543 -0.0346 -0.2478  0.2729
28901W        W45085   5.839  11.748   4.265 -0.1013 -0.1317  0.1942
28902W        W45086   1.951   1.302   1.777 -0.2424 -0.1964  0.0321
28903W        W45087   2.049  18.515   0.128 -0.2978  0.0191  0.2255
28904W        W45088  18.475  12.957   2.006 -0.1343 -0.0769  0.0006
28905W        W45089  14.950   4.996   1.120  0.1102 -0.0630  0.2596
28906W        W45090   1.421  16.305  13.258 -0.3037  0.0749 -0.1563
28907W        W45091   7.214   6.210  14.799 -0.2380 -0.0403 -0.0720
28908W        W45092  13.982   7.978  11.124 -0.2092 -0.1663  0.0073
28909W        W45093   3.185  12.715   0.844 -0.1147  0.0347 -0.3607
28910W        W45094   2.432  12.673  12.388 -0.0353 -0.0355 -0.1465
28911W        W45095   4.970  13.304   9.848  0.1134 -0.0659 -0.3858
28912W        W45096  11.773  10.500   1.000 -0.1787 -0.0324  0.3637
28913W        W45097   6.257   6.814  13.827  0.2838 -0.1901  0.2247
28914W        W45098  17.243  12.409   1.154 -0.0203  0.3965  0.1201
28915W        W45099   1.669  10.607   0.258  0.0145  0.0125 -0.2319
28916W        W45100   7.911  14.870   3.651  0.3126 -0.1539  0.1993
28917W        W45101  13.224   9.229   1.278 -0.1750 -0.0940 -0.1671
28918W        W45102   6.221   0.229  11.004  0.2551  0.0316 -0.3873
28919W        W45103   3.162  14.175  12.278 -0.0785 -0.0575 -0.0536
28920W        W45104  10.372  15.767  10.016  0.2362 -0.1151 -0.0268
28921W        W45105   0.543   9.060  11.002  0.1715  0.1595  0.0305
28922W        W45106   3.187  12.889  11.101  0.1277 -0.0570  0.0036
28923W        W45107  17.044  11.237  12.517 -0.2612 -0.0067  0.0291
28924W        W45108   0.718   0.821  14.986  0.0517  0.1848  0.0154
28925W        W45109  15.953  10.158  13.989 -0.2553  0.0767  0.0233
28926W        W45110  13.754  16.486   2.079  0.1547  0.4281 -0.2258
28927W        W45111  14.145   1.181   3.564  0.1623 -0.3167 -0.2373
28928W        W45112  18.020   7.980   3.609 -0.3251  0.1015 -0.1283
28929W        W45113   9.111   7.812   3.632 -0.0176  0.2000 -0.0020
28930W        W45114   2.173  10.243   2.301  0.1597 -0.0165  0.2601
28931W        W45115   6.173  16.884   0.047  0.0475 -0.1174 -0.1012
28932W        W45116  18.124  14.733   1.973 -0.0731  0.1585 -0.0953
28933W        W45117   7.740  18.752  13.997 -0.2818 -0.1205 -0.3310
28934W        W45118   9.411   4.363  12.975  0.0544  0.0558 -0.5031
28935W        W45119  17.888  17.153   3.039 -0.1011  0.2636 -0.0558
28936W        W45120   3.927   4.696  12.840 -0.1689 -0.2196  0.1875
28937W        W45121  11.944  12.127  11.311  0.0741  0.0181  0.1133
28938W        W45122   3.886   6.637  12.735  0.2535  0.0518  0.0861
28939W        W45123  18.466   2.435  14.893  0.1157 -0.1810  0.0882
28940W        W45124  14.902   3.944   4.574  0.1066 -0.1478  0.0011
28941W        W45125   7.791   5.999   5.406 -0.1433 -0.3483 -0.0413
28942W        W45126  15.012   7.679   4.375 -0.2413 -0.0618 -0.0991
28943W        W45127   3.483  12.353   0.592 -0.1461  0.2893 -0.1272
28944W        W45128  14.630   1.001   3.459  0.1724  0.4015 -0.0435
28945W        W45129  18.092  17.558  10.825  0.0923 -0.0614 -0.1746
28946W        W45130  14.809  13.347   2.960  0.1265 -0.1826  0.1939
28947W        W45131  14.021   4.579  13.283  0.0762  0.1789  0.1099
28948W        W45132   7.326  11.789  11.448 -0.1927 -0.1692  0.1884
28949W        W45133   4.959  17.026  14.523 -0.3639 -0.0411  0.1599
28950W        W45134   8.314  10.241   2.125 -0.3215 -0.0327 -0.2465
28951W        W45135   6.919   8.159  10.814 -0.1393  0.1370 -0.0394
28952W        W45136  13.074  11.080  14.156 -0.1347  0.0798 -0.0353
28953W        W45137   8.657   1.598   0.017  0.1154 -0.3136 -0.0078
28954W        W45138   6.568  17.477  12.500  0.0189 -0.1286  0.1772
28955W        W45139  17.914  15.761   5.729 -0.0078  0.1075 -0.1403
28956W        W45140   2.157  14.753  14.815  0.0023 -0.0935  0.2240
28957W        W45141   5.418   6.462   2.581  0.1251 -0.1423  0.0978
28958W        W45142   7.691   6.136   3.042 -0.1254  0.0736  0.1697
28959W        W45143  15.897   1.113   1.689 -0.0717  0.3550  0.2205
28960W        W45144   5.376   3.204  10.877 -0.0103  0.1765  0.0255
28961W        W45145   2.223   1.086   9.640  0.2115  0.2087 -0.0324
28962W        W45146   6.159  17.564  12.904  0.0081 -0.3943 -0.0996
28963W        W45147   7.939   9.340   2.304  0.0769  0.2632  0.3770
28964W        W45148  11.253   4.392  10.940 -0.1891 -0.0156 -0.0750
28965W        W45149   4.118   7.048  13.994 -0.1531  0.0072  0.0099
28966W        W45150   6.600  10.846  13.322  0.0098 -0.0315  0.2231
28967W        W45151   1.831   9.327   2.175  0.0196  0.0893 -0.1235
28968W        W45152   0.367  13.542   2.347  0.2672  0.2297  0.1152
28969W        W45153  13.343   2.586   1.998 -0.1828 -0.0015 -0.1604
28970W        W45154  14.357  10.699   4.863  0.1704 -0.3420 -0.2015
28971W        W45155  10.968   7.760   1.057  0.0492 -0.0183  0.1317
28972W        W45156  18.576  13.952  11.119  0.0038  0.0661  0.0392
28973W        W45157  12.319   5.370  11.366 -0.1654 -0.3472 -0.0782
28974W        W45158  15.027  15.104  11.012  0.0013  0.0613 -0.0760
28975W        W45159   0.940  11.667   1.705 -0.0524 -0.2694  0.1902
28976W        W45160   9.484  16.787  13.538  0.2535 -0.1849  0.2319
28977W        W45161  15.758   6.372   1.022  0.0064 -0.0314  0.0063
28978W        W45162   6.214   4.757   3.884  0.0071  0.1407 -0.3429
28979W        W45163   0.998   7.756   2.241 -0.0226 -0.2355 -0.1550
28980W        W45164   8.665   3.024   1.735  0.3480 -0.2348 -0.3382
28981W        W45165  18.022  11.291  13.615  0.2702 -0.0324  0.4373
28982W        W45166   8.761   4.500   0.979  0.2814  0.1041 -0.2200
28983W        W45167   0.682   1.865  12.923 -0.1948  0.0222  0.0207
28984W        W45168   9.409  13.366  12.724  0.2164  0.2643  0.1388
28985W        W45169  18.198  10.670   2.504  0.0119  0.0128 -0.0922
28986W        W45170   7.535  10.873  13.827 -0.0656 -0.1638 -0.2000
28987W        W45171  18.917   1.299  11.922 -0.0086  0.1709  0.1680
28988W        W45172  12.592  15.380   0.660 -0.1135  0.3783  0.0773
28989W        W45173  18.736   5.588   1.124  0.1024  0.0347 -0.2503
28990W        W45174  18.176   9.719  13.407  0.4031 -0.0690 -0.2165
28991W        W45175   3.204   2.216   0.932  0.0896 -0.0456 -0.0839
28992W        W45176  13.504   3.481  13.159  0.0529  0.3606  0.0263
28993W        W45177  11.607  15.768  10.589 -0.4049  0.1409 -0.2161
28994W        W45178   2.142   7.552  13.048 -0.1093  0.1843  0.0915
28995W        W45179  11.423  14.238  10.925  0.1283 -0.3910  0.0882
28996W        W45180   2.150   6.244   2.652  0.3414  0.1015  0.2067
28997W        W45181  16.538  15.194   2.352 -0.0325 -0.3179  0.0880
28998W        W45182   8.159  12.479  12.040 -0.2666 -0.0703  0.0178
28999W        W45183  14.541   1.931  10.945 -0.1528  0.5214 -0.1129
29000W        W45184   9.950   2.143  11.869 -0.0123 -0.2616  0.2078
29001W        W45185   3.139   7.895   3.845  0.0266  0.1828 -0.2152
29002W        W45186  13.201   3.776   0.455 -0.3044  0.1724  0.0966
29003W        W45187   7.049   8.473  13.712  0.2044 -0.1410 -0.0096
29004W        W45188  12.115   9.265  12.865 -0.0042  0.1340 -0.1609
29005W        W45189   0.959   5.077  15.079  0.2926 -0.3655 -0.1262
29006W        W45190  17.480   0.868   2.632  0.1954 -0.0101 -0.3142
29007W        W45191  13.542  17.301   0.706 -0.1264  0.2281  0.2680
29008W        W45192   1.008  10.216   4.291  0.1755  0.0631 -0.2624
29009W        W45193  15.462   6.251   0.152 -0.1896 -0.2511 -0.0569
29010W        W45194  16.083   6.542  10.865 -0.0368 -0.2060 -0.0281
29011W        W45195   3.713  10.660   0.590 -0.1128  0.1396  0.2910
29012W        W45196  11.138   5.038   0.847 -0.2209  0.0826 -0.1275
29013W        W45197  17.882   9.063  10.814 -0.3499 -0.1995  0.1622
29014W        W45198   8.271   4.516  11.110  0.1982  0.0434 -0.3512
29015W        W45199  15.790   3.297   1.846 -0.0687  0.0476  0.1112
29016W        W45200   1.775   0.772   3.505  0.1370  0.2240  0.1077
29017W        W45201  14.172  12.139   0.294 -0.3243  0.0507  0.1030
29018W        W45202  15.882   8.696   0.456  0.0251  0.2310 -0.3693
29019W        W45203  15.616  12.034   5.015  0.2374 -0.1142 -0.0053
29020W        W45204   4.358   7.292   3.980  0.0018 -0.0687  0.1051
29021W        W45205   3.949   9.338   2.913 -0.4482  0.0051 -0.1212
29022W        W45206   5.674   0.728   1.894 -0.1406 -0.1609 -0.0504
29023W        W45207  14.280  14.765   4.271 -0.0173  0.3255  0.2080
29024W        W45208  14.817  18.945   3.997 -0.0112  0.3879  0.1332
29025W        W45209   4.153   5.074   5.016 -0.1740 -0.0606  0.1691
29026W        W45210   8.233  15.733   3.883 -0.3493  0.2135  0.0439
29027W        W45211   6.476  10.087   3.307 -0.0957 -0.2846  0.1658
29028W        W45212   3.621   7.933  14.343 -0.0186  0.0557  0.0210
29029W        W45213   1.168  15.148   2.722  0.1770  0.1581 -0.1728
29030W        W45214  14.453  16.853  14.576 -0.0625  0.0527  0.1481
29031W        W45215  10.391   3.750   5.358  0.0636 -0.1037  0.2735
29032W        W45216  14.342  17.905   0.551 -0.1716  0.0741 -0.3980
29033W        W45217   2.688   0.675  13.430 -0.2209 -0.0639  0.2621
29034W        W45218   8.858  18.544   2.048 -0.0554  0.0219 -0.1061
29035W        W45219  13.435  10.589  10.544 -0.1126 -0.0075 -0.1157
29036W        W45220  15.459   4.909   1.158 -0.1253  0.0567  0.1256
29037W        W45221  11.849   1.854  14.814 -0.0741 -0.2013 -0.1339
29038W        W45222  12.587   0.507  13.723 -0.0211  0.0685 -0.1214
29039W        W45223   7.606   6.141   3.554  0.0554  0.2730  0.2240
29040W        W45224  12.260   5.946   4.261 -0.2609  0.0381  0.1014
29041W        W45225   5.950   0.288   0.496 -0.0477 -0.0343  0.0463
29042W        W45226  10.633  16.628   3.814  0.1760 -0.1466  0.3513
29043W        W45227   5.636   7.393  12.224 -0.1679  0.2124  0.1142
29044W        W45228  14.712  15.837  10.384  0.0213 -0.2589 -0.0231
29045W        W45229   3.606   2.436  14.037  0.0212 -0.2990 -0.0537
29046W        W45230  11.065   8.924  12.684  0.0770  0.0846 -0.1695
29047W        W45231   6.676   0.889   1.627  0.1398  0.1020  0.0420
29048W        W45232   6.168  13.189  13.430  0.0112 -0.0714 -0.3336
29049W        W45233  17.581  11.352  13.382  0.0902 -0.0894  0.1927
29050W        W45234   8.807   0.630  14.291  0.0202 -0.0252 -0.0813
29051W        W45235  11.759   9.777   0.016  0.0323  0.1513 -0.1678
29052W        W45236   7.661   4.802   4.499  0.2082 -0.0192 -0.0110
29053W        W45237  16.414   8.695  12.894 -0.1155 -0.6024 -0.0269
29054W        W45238   1.517  15.006  11.387  0.1623 -0.3652  0.0153
29055W        W45239  17.510   0.812   3.437 -0.0683 -0.0041  0.2085
29056W        W45240   3.519   5.263  13.090  0.0194  0.4143  0.1701
29057W        W45241  11.570  12.678  14.181  0.1148 -0.1419  0.1975
29058W        W45242  11.308   1.777  10.680 -0.1378  0.2615  0.4262
29059W        W45243  12.636   2.353  10.858  0.1702  0.0041 -0.0365
29060W        W45244  12.492  15.165  11.176  0.2783  0.1349 -0.1303
29061W        W45245   0.750   5.901  11.358 -0.2973  0.1304  0.1721
29062W        W45246   4.631   0.367  10.900 -0.0236  0.0440 -0.2245
29063W        W45247   7.236   1.110   2.947  0.0925 -0.3707 -0.1578
29064W        W45248  16.455   9.039  14.140  0.4087 -0.0277  0.3085
29065W        W45249   2.053   8.056   0.172  0.1698  0.2243  0.0478
29066W        W45250  13.277  13.936  11.780  0.2611  0.0801 -0.3011
29067W        W45251  12.860   9.375   2.813  0.0951 -0.1715 -0.1084
29068W        W45252  11.012  15.670  10.718 -0.3761 -0.1680 -0.4105
29069W        W45253  18.994   3.835  12.883 -0.0641 -0.1715  0.2763
29070W        W45254   7.920   9.991  12.097  0.0160 -0.0316 -0.1477
29071W        W45255   8.933  18.274  15.151  0.3223 -0.2699  0.1954
29072W        W45256   0.933  14.903   9.723  0.0644 -0.0915  0.2053
29073W        W45257  18.022   0.650   0.468 -0.0392 -0.2770  0.0081
29074W        W45258  14.699   7.055   5.519  0.1331  0.2470 -0.0995
29075W        W45259   9.435  16.551  11.582  0.1266  0.1954  0.1037
29076W        W45260  11.410  15.564  12.133  0.2128 -0.2284  0.2864
29077W        W45261   1.810   2.437  11.531  0.0025 -0.3097  0.0843
29078W        W45262  12.312   9.567  12.552  0.1462 -0.2403 -0.1560
29079W        W45263   8.531  17.418   2.493 -0.3861 -0.0247 -0.1241
29080W        W45264  16.382  15.436  14.497  0.2166  0.1630  0.2344
29081W        W45265  15.195  17.742  13.779 -0.0996 -0.0137 -0.0292
29082W        W45266  14.501   4.898  12.496 -0.0968 -0.2181 -0.2532
29083W        W45267  10.902  18.167   9.808  0.1149 -0.1704  0.0688
29084W        W45268  10.711  11.613   0.324 -0.0210  0.1255  0.0730
29085W        W45269   7.558   6.984  11.484 -0.3023 -0.4059 -0.1881
29086W        W45270  17.462  12.094   1.446 -0.0295  0.1739 -0.0139
29087W        W45271   2.540   0.331   3.780  0.0046 -0.3235 -0.2141
29088W        W45272  10.025  14.601  10.571 -0.1191  0.0077 -0.2401
29089W        W45273  18.097  13.520   1.224  0.0009  0.0360  0.1788
29090W        W45274  11.095   0.691  14.296 -0.0879 -0.0915 -0.2368
29091W        W45275   5.457  17.665  14.957  0.1491  0.0118 -0.0766
29092W        W45276  16.182   0.845   1.058  0.0005  0.0591 -0.2117
29093W        W45277  16.435  10.325   0.868 -0.0722  0.5102 -0.0273
29094W        W45278   9.294   7.133  11.860 -0.0258 -0.1814  0.1509
29095W        W45279  11.296  11.263   2.615 -0.4764  0.0767  0.1138
29096W        W45280   2.596   1.413  11.750  0.0838  0.0707 -0.2532
29097W        W45281  14.622   0.941  14.784 -0.2813 -0.2300 -0.3155
29098W        W45282   1.996   8.107  12.379  0.0204  0.1604 -0.0180
29099W        W45283   6.091  12.999   1.456 -0.0829  0.3567  0.1299
29100W        W45284   3.847  11.932   1.369  0.0404  0.1804  0.0504
29101W        W45285   1.383   6.054  12.606 -0.2537  0.1804 -0.0432
29102W        W45286  13.170  15.770   5.478 -0.0187  0.3423 -0.1892
29103W        W45287   8.637  16.144  15.037  0.0469  0.1374  0.0015
29104W        W45288   2.244   6.634   3.096 -0.0660  0.0545 -0.1170
29105W        W45289   2.334   6.306   0.263  0.3716 -0.0625 -0.3122
29106W        W45290   8.426  18.420  11.807 -0.0698 -0.3317 -0.2760
29107W        W45291   8.298  12.758   3.791  0.0092 -0.2419 -0.2403
29108W        W45292  18.223  12.148  13.523  0.0281  0.1654  0.0756
29109W        W45293   1.967   0.476   2.305 -0.1469 -0.1266  0.2188
29110W        W45294  18.486  17.141  10.202  0.2043 -0.1292 -0.0610
29111W        W45295  16.098   8.095  14.464 -0.0285 -0.0781 -0.0953
29112W        W45296  13.316   2.893  15.051 -0.1797 -0.0919 -0.0107
29113W        W45297   9.426   9.325  10.690 -0.2875 -0.1030  0.3771
29114W        W45298   0.170  18.014   2.689  0.0899  0.0414 -0.2414
29115W        W45299   4.135  18.977  12.567 -0.0667  0.0610  0.0894
29116W        W45300  16.910   7.172   5.649 -0.1660 -0.2283  0.0590
29117W        W45301  17.531  12.072   2.506 -0.0285 -0.1966 -0.1984
29118W        W45302   9.593  10.427  15.090  0.1824  0.1856 -0.2442
29119W        W45303  11.255  12.639   2.844 -0.0832 -0.0819  0.3264
29120W        W45304   2.761  17.677  15.184  0.0791  0.0011  0.2198
29121W        W45305  12.542  17.307   3.212  0.1847 -0.1398 -0.1113
29122W        W45306   3.158  16.249  10.953 -0.0871  0.0428  0.0374
29123W        W45307  13.674   0.046  11.809 -0.1023 -0.1958  0.1401
29124W        W45308  14.009  11.531  11.614 -0.4557  0.0227 -0.2904
29125W        W45309   5.257   0.543   2.969 -0.1984  0.1879 -0.0192
29126W        W45310   9.169  10.236   1.301 -0.1906  0.1598 -0.2854
29127W        W45311  12.014   4.468   1.887  0.0142 -0.3949 -0.2264
29128W        W45312   1.309   9.437  14.068  0.1109 -0.1133 -0.2670
29129W        W45313  15.400  15.599   0.776  0.0186 -0.0183 -0.0599
29130W        W45314   1.266   8.402   4.945  0.0361  0.0226 -0.1924
29131W        W45315   8.372   3.491  13.741 -0.0274  0.1625  0.0029
29132W        W45316  11.473   7.439  11.764 -0.0638  0.0701 -0.0812
29133W        W45317  18.856  16.293   1.419 -0.2414 -0.2689  0.4932
29134W        W45318   7.682   8.460   0.883  0.0735 -0.0760 -0.0494
29135W        W45319  11.250  15.963   1.358 -0.1835 -0.2399  0.1288
29136W        W45320   7.197   8.849  15.314 -0.1100  0.0517 -0.1465
29137W        W45321   4.665  12.304   4.562 -0.0239 -0.1483 -0.0200
29138W        W45322   0.092  18.181   5.696 -0.0162 -0.0981  0.1676
29139W        W45323  18.752  15.528   5.378  0.0581  0.1650 -0.1180
29140W        W45324   6.935   5.183  14.016 -0.1027 -0.0050 -0.2894
29141W        W45325  14.826  14.358   0.614  0.1827  0.1121  0.1172
29142W        W45326   7.108   7.930   3.202 -0.1327 -0.3745  0.0308
29143W        W45327   3.072   7.397  11.549  0.1990 -0.2490  0.0743
29144W        W45328   2.885   7.511   2.192  0.1486  0.1665  0.2254
29145W        W45329   3.503  11.100   3.625  0.0188 -0.0743  0.3344
29146W        W45330  11.385   8.200   4.344  0.1883  0.1907 -0.1637
29147W        W45331   1.680   7.036   1.597  0.0989  0.0780  0.0632
29148W        W45332   4.995   2.651   5.384  0.0335  0.0383 -0.1681
29149W        W45333   8.049   0.140  14.035  0.0114  0.5383 -0.3108
29150W        W45334  14.664   0.174  14.020  0.0664  0.2247  0.3317
29151W        W45335  11.573   7.213   2.426 -0.0648  0.1834  0.1315
29152W        W45336   8.061  12.658   2.452  0.0226  0.3552 -0.0757
29153W        W45337  16.123  13.204  14.807  0.0203  0.2402 -0.1816
29154W        W45338  13.281   1.938  13.823  0.0446  0.1291  0.2663
29155W        W45339   8.322   3.671  11.191 -0.1708  0.4705 -0.3734
29156W        W45340  12.770  11.194  10.514 -0.2329  0.2327 -0.3312
29157W        W45341   6.091   6.212   3.722  0.1067  0.2251  0.0093
29158W        W45342  13.840   3.752   2.991 -0.2378  0.0216 -0.1807
29159W        W45343  18.961   8.506  10.978 -0.0657  0.3247  0.0172
29160W        W45344   8.999   4.336  15.384  0.2381  0.0208 -0.2324
29161W        W45345   3.680   6.011   2.809  0.0347  0.0211 -0.0630
29162W        W45346  14.568   2.749   1.562  0.2618  0.1130  0.0663
29163W        W45347  10.010  18.846   2.372 -0.0109 -0.1419 -0.1120
29164W        W45348   1.467  14.057   0.683 -0.1169 -0.3994  0.0703
29165W        W45349  10.089  14.893  15.359  0.0687  0.0619  0.0020
29166W        W45350   7.558  18.169  11.789  0.0756  0.2343  0.1610
29167W        W45351   1.492   8.669   0.120  0.0813 -0.2325 -0.0809
29168W        W45352  11.801  12.503   2.042  0.0122 -0.5140 -0.3382
29169W        W45353  10.724   4.550   0.822 -0.2934 -0.1876  0.1104
29170W        W45354   2.932  11.381   3.725  0.1362 -0.1550  0.0545
29171W        W45355  18.929   4.897   0.118 -0.1614 -0.2269 -0.0551
29172W        W45356  13.545   1.421   1.852 -0.3707 -0.2236  0.0523
29173W        W45357   7.474  13.327   4.645 -0.1490 -0.0583 -0.0668
29174W        W45358  15.543   3.309  14.444  0.3351 -0.0596 -0.0594
29175W        W45359   3.624   5.046  12.678  0.3361  0.2338  0.2100
29176W        W45360  14.676   4.631   3.603 -0.2195 -0.0585 -0.1186
29177W        W45361  13.877   9.244   3.155  0.1840 -0.1618  0.0272
29178W        W45362   3.806   6.176  14.019 -0.0461  0.1321 -0.0652
29179W        W45363   9.380   5.033  10.519  0.1052  0.0169  0.1530
29180W        W45364  11.713   5.962   4.886 -0.0851 -0.1027  0.0167
29181W        W45365  15.965  15.408   3.064 -0.0339  0.1616  0.1619
29182W        W45366   8.902  17.007   0.033 -0.0399  0.0011  0.1490
29183W        W45367  16.037  17.630  12.007 -0.1989 -0.1415 -0.1213
29184W        W45368   3.972   3.596  12.056  0.3436  0.0527 -0.4942
29185W        W45369   0.580  12.847   3.760  0.0470 -0.0305 -0.0475
29186W        W45370   5.415  15.003  14.965 -0.2808 -0.3577  0.2955
29187W        W45371  14.388  17.927   2.506 -0.0891 -0.0856  0.0349
29188W        W45372  13.089   2.187  10.978 -0.0993 -0.0577 -0.0320
29189W        W45373   8.338  18.373   2.685 -0.0535 -0.0175 -0.3367
29190W        W45374   1.419   0.011   4.487  0.1679 -0.0671  0.1370
29191W        W45375  12.719  10.338   3.380 -0.1201 -0.0514  0.2252
29192W        W45376   6.480  13.877  13.596  0.0309  0.1707  0.0652
29193W        W45377   0.362  16.642  13.073  0.1742  0.1376  0.0756
29194W        W45378   9.926   1.137   4.714 -0.2269  0.3894 -0.0613
29195W        W45379   2.101  13.729   0.278  0.1682  0.2445  0.0423
29196W        W45380   1.140   3.804  10.957  0.1665 -0.0446  0.3198
29197W        W45381   1.722   7.927  11.357  0.4266  0.1388 -0.0755
29198W        W45382  17.767  16.791  12.761 -0.0061  0.0148  0.2768
29199W        W45383   6.986   7.575   3.598 -0.0982  0.0851  0.0200
29200W        W45384  12.786   2.734   4.566  0.4833 -0.1951 -0.4466
29201W        W45385  11.921  11.711  14.893  0.1003  0.1330 -0.0625
29202W        W45386   2.980  11.398  14.968 -0.2333 -0.0850  0.2033
29203W        W45387   7.265   1.650  11.125 -0.2579  0.1253  0.1287
29204W        W45388   1.022   0.174  12.456  0.0992  0.1635 -0.3931
29205W        W45389   7.210   6.758   2.178 -0.1686  0.1646 -0.1207
29206W        W45390   1.698  12.508   1.779 -0.2185 -0.0310 -0.0566
29207W        W45391  10.171  13.612   2.698  0.3915 -0.1230  0.0466
29208W        W45392  13.577  13.486  11.547  0.2105 -0.2264  0.3026
29209W        W45393   3.845  17.449  13.281 -0.3847 -0.2529  0.0347
29210W        W45394  15.640  16.902  11.843  0.0894 -0.2991  0.1415
29211W        W45395   1.800   1.052   5.692 -0.0815  0.4248  0.0395
29212W        W45396  16.034  12.981  11.230 -0.0623  0.2057  0.0499
29213W        W45397   2.513  13.302  11.564  0.1166 -0.0102  0.2403
29214W        W45398   8.571  17.661  13.473 -0.2061 -0.0193  0.0530
29215W        W45399   6.581   4.351  12.380 -0.2113  0.1365  0.2222
29216W        W45400  12.756  14.955   1.599  0.1285  0.0008 -0.0646
29217W        W45401  17.877  13.405  12.318 -0.0513 -0.0627 -0.1873
29218W        W45402  12.776   9.882  13.499 -0.0446  0.0824  0.0737
29219W        W45403   5.652  13.869   3.442  0.1346 -0.1098 -0.0836
29220W        W45404  14.666   4.190  10.883 -0.2696 -0.1102  0.0755
29221W        W45405   8.211   1.967  13.655  0.1153  0.2985 -0.1597
29222W        W45406  18.183   1.983   1.003 -0.1061 -0.0275 -0.4155
29223W        W45407  12.965   5.032   1.094  0.1174 -0.1589 -0.0014
29224W        W45408   7.243   9.315  12.432  0.2286  0.1939 -0.0838
29225W        W45409  15.640   6.705   4.646  0.0584  0.3483  0.1311
29226W        W45410   6.238  14.809  14.927  0.1144 -0.3968 -0.2043
29227W        W45411   1.153  13.527   3.893  0.3899  0.3413  0.2672
29228W        W45412  13.898   0.814   2.455  0.1110  0.0250 -0.2207
29229W        W45413   3.214  13.433  14.700 -0.0765 -0.0291 -0.1553
29230W        W45414  15.034   9.703   3.478  0.0813 -0.2396  0.1914
29231W        W45415  11.792  16.961  13.607  0.0670  0.0023 -0.0478
29232W        W45416  10.043  18.309   3.096 -0.1232 -0.0450  0.0267
29233W        W45417  15.821   0.042  14.677 -0.1289  0.2038 -0.0767
29234W        W45418   0.036   5.740   2.453 -0.0393  0.1295  0.0005
29235W        W45419   7.039  11.762   2.957  0.0148  0.2302  0.1793
29236W        W45420  14.700  14.027   5.165  0.0469 -0.4262  0.4832
29237W        W45421   9.793   1.427  14.944  0.1213 -0.0501  0.0035
29238W        W45422  12.591   4.529  12.348  0.1605 -0.1468 -0.2557
29239W        W45423   7.208  13.979  12.828 -0.0569 -0.2584 -0.1152
29240W        W45424   2.311  18.643   1.036 -0.1462  0.1218  0.0097
29241W        W45425   9.445   6.168  14.468  0.0975 -0.1085 -0.0550
29242W        W45426  16.397  14.647   5.027 -0.5789 -0.0391  0.2580
29243W        W45427  16.956  16.226  10.634 -0.1685  0.0744 -0.2413
29244W        W45428  17.239  13.385   1.624 -0.0347  0.0099  0.1292
29245W        W45429  15.230  11.374   3.350  0.0225 -0.0968 -0.1026
29246W        W45430  18.721  11.137   3.009 -0.1211 -0.0228  0.1925
29247W        W45431   6.133  18.037  14.325  0.1633 -0.2706  0.2192
29248W        W45432   9.486  17.618   2.529 -0.1954  0.0092 -0.1895
29249W        W45433  16.798   2.682   3.239 -0.3716  0.4212 -0.1598
29250W        W45434  14.042  17.136   4.568  0.0263  0.1464  0.1514
29251W        W45435   2.615   8.404  13.584  0.0319  0.2531  0.3236
29252W        W45436   6.003   1.829   5.375 -0.2938 -0.0942 -0.1500
29253W        W45437   5.479   2.032   0.312  0.0901 -0.3908 -0.2510
29254W        W45438  14.400  14.770   1.480 -0.0426 -0.0652  0.4134
29255W        W45439   9.750  14.990   2.248 -0.1787 -0.2241  0.1540
29256W        W45440   1.614  17.751  12.280 -0.0716  0.2961 -0.0411
29257W        W45441  14.458   3.404  14.427 -0.0063 -0.2218 -0.3389
29258W        W45442  14.295  10.079  10.334  0.1696 -0.2238  0.0347
29259W        W45443   6.283   2.872  13.159 -0.1659 -0.0494  0.0848
29260W        W45444  12.673   5.728   0.245 -0.0242  0.4176  0.3135
29261W        W45445  10.170  16.420   1.635 -0.1694 -0.1081  0.0879
29262W        W45446   8.498  17.668  14.614  0.1352 -0.1202 -0.1760
29263W        W45447   4.063  13.298  13.001  0.0618  0.1299  0.3401
29264W        W45448   8.515   5.001  11.024 -0.6383 -0.0974 -0.0417
29265W        W45449   9.621   0.259  12.634  0.0621 -0.0629  0.0500
29266W        W45450   4.643  17.689  12.784  0.4054  0.1981  0.0932
29267W        W45451  17.064  12.391   2.711 -0.0555 -0.2801  0.5241
29268W        W45452  16.399  18.320   2.365 -0.0627  0.2420  0.3015
29269W        W45453   5.749   8.863  15.108  0.0826 -0.0794  0.0393
29270W        W45454   2.148  17.555  14.313  0.2329  0.0988 -0.0667
29271W        W45455   0.120  18.175   4.327  0.0731  0.0871 -0.2674
29272W        W45456   6.499   3.798  11.902 -0.0898  0.0010 -0.2675
29273W        W45457   8.396   3.827  11.869 -0.0916  0.1859  0.1013
29274W        W45458   0.092   5.566  13.320 -0.0230  0.1930  0.0467
29275W        W45459   4.090   9.021   1.891  0.0213  0.0696  0.1199
29276W        W45460  10.754   3.499   2.279 -0.0248  0.1438  0.4269
29277W        W45461  11.455  17.232   3.676 -0.1256  0.3569 -0.0246
29278W        W45462  15.990   4.661  14.528  0.1100 -0.0954  0.1980
29279W        W45463   8.677  11.049   4.816 -0.0051 -0.1347 -0.3094
29280W        W45464  17.743  17.336  11.078  0.2526 -0.1012  0.0690
29281W        W45465   8.359  16.956   0.021 -0.2215 -0.2288 -0.0311
29282W        W45466  17.977  12.961  11.229  0.1590 -0.0105  0.0074
29283W        W45467   1.472  11.941   2.531  0.1255 -0.1880 -0.1018
29284W        W45468  12.384   4.055  13.467 -0.1155  0.0112 -0.2081
29285W        W45469   5.166   0.385   5.156 -0.0518  0.1654 -0.2007
29286W        W45470   0.107   7.256   1.860  0.2382  0.2429  0.1035
29287W        W45471   2.805  13.575   1.442 -0.0192  0.2400 -0.2180
29288W        W45472  10.337  17.056   4.623 -0.1409  0.0090  0.0410
29289W        W45473   3.508   9.616   2.926 -0.0066 -0.1752  0.1847
29290W        W45474  15.751  13.568   4.277 -0.4713  0.0357  0.2632
29291W        W45475  18.065   6.884   0.459 -0.1982  0.1807  0.0339
29292W        W45476   0.848   6.690  11.575  0.1299  0.0034 -0.1418
29293W        W45477   2.496  13.408   0.445  0.0137  0.1102  0.1334
29294W        W45478  17.831   3.277  12.647 -0.0260 -0.0191 -0.2233
29295W        W45479  18.381  13.143  11.469 -0.2450 -0.1945 -0.3242
29296W        W45480   8.907  18.956  14.949  0.3864  0.4657  0.3159
29297W        W45481   0.835   1.600  13.762 -0.0734  0.1146 -0.1527
29298W        W45482  12.256   9.538   0.664  0.2511  0.1132 -0.1345
29299W        W45483   2.381  11.340   3.737  0.4415  0.1286  0.2050
29300W        W45484  17.821   6.787   3.618  0.0120  0.0767 -0.3276
29301W        W45485   7.650  17.859  11.441 -0.1751  0.0905  0.1987
29302W        W45486  16.524   9.445  10.719 -0.0213  0.0199 -0.0049
29303W        W45487  17.537  10.704  15.298  0.0629  0.4881 -0.0719
29304W        W45488  15.278   8.946  11.330  0.2915  0.0610  0.0510
29305W        W45489   1.711   5.355   2.712 -0.0587 -0.0069  0.4252
29306W        W45490   2.905  10.643  11.021 -0.2773  0.3405  0.3539
29307W        W45491   0.983  15.369   2.340  0.0628  0.0725 -0.1433
29308W        W45492  15.359  12.900   1.482 -0.0650 -0.0984 -0.0676
29309W        W45493   7.048   6.126  15.282  0.0677 -0.2376 -0.0828
29310W        W45494  12.454   0.771  11.977  0.0472 -0.1467  0.1153
29311W        W45495   1.743   1.870   1.787  0.3270 -0.0974  0.2411
29312W        W45496   7.630  11.811   9.971  0.0320 -0.4168 -0.1836
29313W        W45497  10.300   8.719   4.222 -0.3036 -0.0689 -0.0067
29314W        W45498   3.366  15.664   3.610 -0.1404 -0.0283  0.0826
29315W        W45499  10.757  13.457   3.556  0.3158  0.2102 -0.4309
29316W        W45500   6.761   6.197  13.865 -0.0069  0.0891 -0.3628
29317W        W45501   1.372  12.289   0.460 -0.1630 -0.2087  0.0817
29318W        W45502   2.303   3.081   0.322  0.0846  0.0407  0.1938
29319W        W45503  11.962   5.593   5.378  0.0964 -0.1054  0.3025
29320W        W45504  13.289   8.120  11.167 -0.0762  0.0081  0.2634
29321W        W45505  15.422   4.782  11.579 -0.4005  0.2188  0.0917
29322W        W45506  10.539   2.365  13.536 -0.0078  0.2046 -0.0417
29323W        W45507   4.518  16.044   3.210 -0.0886 -0.0108 -0.1832
29324W        W45508  17.994   4.329   3.290  0.0853  0.1262 -0.0455
29325W        W45509  15.934  16.190   2.460 -0.1274  0.1164  0.1505
29326W        W45510   7.716  12.145   6.040 -0.1616  0.0778 -0.2342
29327W        W45511   1.169  17.549  15.030 -0.4668  0.0762  0.1025
29328W        W45512  10.813   4.898   0.495 -0.2123  0.1429  0.1810
29329W        W45513   9.656   6.100   4.920 -0.0743  0.2732  0.0717
29330W        W45514   4.036  16.003  12.397 -0.1830 -0.2158  0.2807
29331W        W45515   7.257  11.819   4.899  0.6522 -0.2501  0.2307
29332W        W45516  15.827   2.950  11.509  0.1602  0.0992 -0.0147
29333W        W45517  13.056  13.576  10.403  0.0104  0.1732 -0.6392
29334W        W45518  14.534  11.548   2.534 -0.0097  0.1805  0.3233
29335W        W45519  16.546  18.820   4.164 -0.2711  0.0115 -0.2363
29336W        W45520   0.029  10.737   2.304 -0.0449  0.2683  0.2638
29337W        W45521  14.579  14.494   5.321 -0.2142  0.3660  0.3268
29338W        W45522   3.636  14.855  11.337  0.1228  0.2232 -0.4617
29339W        W45523  12.965  15.710   4.431  0.2601  0.0047  0.1549
29340W        W45524  12.757  10.600   1.500  0.2295 -0.1628 -0.0285
29341W        W45525   0.146  10.425  10.567 -0.0102  0.3459 -0.0018
29342W        W45526  18.003  10.887  14.569 -0.0888 -0.0112  0.2257
29343W        W45527   6.139  15.058  14.496  0.0103  0.0430 -0.2880
29344W        W45528   8.103   3.713   5.684  0.1505  0.1278 -0.2722
29345W        W45529   1.167   3.137   1.659  0.0624  0.0383 -0.0140
29346W        W45530  16.623  13.582   3.250  0.0695  0.0796 -0.0753
29347W        W45531   9.568   6.208  11.331  0.0211 -0.2401 -0.4519
29348W        W45532   6.227   1.687   0.598  0.0665 -0.1025 -0.0691
29349W        W45533   1.028  12.446   2.854 -0.2786  0.3299  0.1499
29350W        W45534   3.598  16.099   3.472 -0.0836 -0.0158  0.0376
29351W        W45535  14.641  18.189   2.901  0.0024 -0.1297 -0.1819
29352W        W45536   0.313  17.374   5.374 -0.0285 -0.0644 -0.1347
29353W        W45537   8.479  11.905   3.308  0.2466 -0.1221 -0.0639
29354W        W45538  10.596   8.419  14.893 -0.1825  0.0162  0.1511
29355W        W45539   1.129  17.847  14.000 -0.1920  0.0692 -0.2076
29356W        W45540  18.663  13.811   0.630 -0.1185  0.0109  0.1127
29357W        W45541   1.749   7.716  10.881  0.1738 -0.2010  0.0432
29358W        W45542  12.352   8.504  11.159  0.1204 -0.0811 -0.1460
29359W        W45543   4.809   8.965  12.840  0.1172 -0.3425  0.0032
29360W        W45544   3.423  18.679  15.332  0.0109 -0.0111  0.3845
29361W        W45545   8.246   6.600   0.493 -0.1246 -0.1939 -0.2308
29362W        W45546  12.194   2.660   0.426 -0.2269 -0.0205 -0.1743
29363W        W45547   1.503  13.673  14.763  0.1224 -0.1127  0.2668
29364W        W45548   1.116  18.753  14.420 -0.0475  0.0051 -0.0056
29365W        W45549  11.472  14.582   5.159  0.1266 -0.2170 -0.4432
29366W        W45550   9.928   5.499  13.830  0.2093  0.3497  0.2099
29367W        W45551  10.326  14.192  11.854 -0.0597 -0.0341  0.2872
29368W        W45552  17.836  14.117  14.832 -0.0918  0.0580 -0.0526
29369W        W45553  15.324  18.633  12.784 -0.1821 -0.0243 -0.0728
29370W        W45554  14.768   1.476   4.772 -0.1705 -0.0907 -0.0787
29371W        W45555   5.347  13.932   4.351  0.0390  0.0679 -0.2269
29372W        W45556  17.234   1.367   3.296 -0.1823  0.0160  0.3375
29373W        W45557   0.530   5.296  14.821 -0.1476 -0.0498 -0.1092
29374W        W45558   3.583  17.201   4.368 -0.1111  0.2798 -0.2099
29375W        W45559   9.813   7.006  14.479 -0.0918  0.4003  0.3776
29376W        W45560  14.138   1.193  13.248 -0.0248  0.2329  0.0155
29377W        W45561  16.807   5.486   3.625  0.2993 -0.1442 -0.4954
29378W        W45562  18.691  13.326  13.194  0.0796  0.1353  0.2624
29379W        W45563  15.284   4.458  11.984  0.2385 -0.0846 -0.0133
29380W        W45564   7.218   0.480   5.692 -0.0401 -0.0959 -0.2038
29381W        W45565   3.403   0.458  10.976 -0.1877 -0.1871 -0.0298
29382W        W45566  12.639   3.705  13.882  0.1742 -0.0292 -0.0963
29383W        W45567   4.390  12.259   3.456  0.0424 -0.0449 -0.1813
29384W        W45568   6.304  11.124  14.666  0.1284 -0.0286 -0.0132
29385W        W45569  16.756  17.020   0.758 -0.1626 -0.0048 -0.0159
29386W        W45570   7.088   4.228  14.342  0.1535 -0.0625 -0.4544
29387W        W45571  12.746  11.584   0.854 -0.1519  0.0616 -0.2253
29388W        W45572   5.574   7.600  14.540  0.0644 -0.0275 -0.1608
29389W        W45573   2.382   6.818   1.476  0.1958  0.1482  0.1052
29390W        W45574   3.178  16.753  14.104 -0.1227  0.0196 -0.2076
29391W        W45575   8.752  15.008  12.519  0.1858 -0.0283  0.0282
29392W        W45576   4.371   2.485   1.837  0.4112 -0.0343  0.0069
29393W        W45577  17.552  11.618   4.228 -0.0780  0.2162 -0.2576
29394W        W45578   4.276  12.617   0.752 -0.0529  0.3864 -0.2318
29395W        W45579  15.458   8.716   3.641  0.1696  0.0784 -0.2377
29396W        W45580   1.368   2.133  14.016 -0.2258  0.1960  0.1490
29397W        W45581  16.779   2.576   4.932  0.3103  0.3000  0.0207
29398W        W45582   9.939  18.057   1.251 -0.0192  0.0948  0.1587
29399W        W45583   7.714   3.223  14.780 -0.1123  0.0837  0.2230
29400W        W45584   5.890  16.203  15.205  0.1406  0.0392 -0.4586
29401W        W45585   3.308  14.538  12.659  0.1610  0.0553  0.0671
29402W        W45586   4.165  16.954  11.792 -0.1166 -0.1885 -0.0261
29403W        W45587  17.776   1.576   3.380 -0.1278 -0.1174 -0.4222
29404W        W45588  14.260   6.262  11.802 -0.3812  0.1568 -0.0509
29405W        W45589  17.029   8.408   4.504  0.0436  0.0724 -0.0762
29406W        W45590  10.773  18.049  14.973  0.0741  0.3651  0.0709
29407W        W45591  11.624  13.709  13.181 -0.1784 -0.4162  0.2414
29408W        W45592  16.015  14.130   5.491  0.1479  0.1413  0.2020
29409W        W45593  14.047  17.381   3.698  0.0367  0.2540  0.2321
29410W        W45594  16.091  13.991  10.915  0.2849  0.1881  0.0939
29411W        W45595  16.083  11.761  15.028  0.2314 -0.0231 -0.1317
29412W        W45596  18.726   3.433  12.472  0.1234  0.2060  0.1087
29413W        W45597  17.430   5.465  10.903 -0.0420  0.0006 -0.1946
29414W        W45598   9.235   9.260   2.236  0.2137  0.0497 -0.1011
29415W        W45599   1.190  14.657  11.463  0.2820  0.0398 -0.0328
29416W        W45600  12.473   3.512   0.882 -0.0573 -0.3027 -0.2164
29417W        W45601  13.241  18.682   0.592 -0.0114  0.0103  0.2496
29418W        W45602   1.031  18.387   2.506  0.2050 -0.1083  0.1090
29419W        W45603   5.690   4.427  13.766 -0.1228  0.0787  0.3009
29420W        W45604   3.675  11.873   3.959  0.0874  0.0661 -0.1299
29421W        W45605  10.994   6.109  13.181  0.0489  0.2886 -0.2088
29422W        W45606   0.049   8.801   9.574 -0.0805  0.1281  0.0767
29423W        W45607   0.556  13.994  12.931  0.1952  0.2720 -0.1562
29424W        W45608   4.928  16.435  11.545  0.1240  0.2484  0.1054
29425W        W45609   3.823  13.269  11.241  0.1456 -0.3409 -0.1028
29426W        W45610  18.772   8.400  12.091  0.1655 -0.2290 -0.2084
29427W        W45611   5.835   5.516  15.173  0.5852 -0.1865  0.0100
29428W        W45612  13.513   5.826  14.009 -0.0445  0.0322  0.4306
29429W        W45613   8.361   7.827  11.487 -0.1278  0.3333  0.3225
29430W        W45614   3.091   4.689  10.097 -0.0828  0.0042 -0.0508
29431W        W45615  15.145   6.482   0.948 -0.2899 -0.0618 -0.2045
29432W        W45616  13.184  17.834  14.918  0.0433  0.2348  0.3790
29433W        W45617   8.621  12.602   2.504  0.5699 -0.2391  0.0900
29434W        W45618  14.192  12.254   5.423  0.2031 -0.0673  0.0737
29435W        W45619  15.903   6.634   2.403 -0.4038  0.3198 -0.2565
29436W        W45620  10.814   5.471  14.486  0.2123 -0.0031  0.1309
29437W        W45621   1.611   4.971  14.891 -0.1129  0.1211 -0.1711
29438W        W45622  18.108   3.099  13.839  0.2329  0.3809  0.1245
29439W        W45623   9.145  10.389   1.992  0.0085 -0.0849  0.1497
29440W        W45624  11.723  10.736   2.568 -0.1090  0.0901 -0.2639
29441W        W45625   6.422  16.753   1.910  0.0777 -0.1864  0.3076
29442W        W45626  18.588   2.753   4.432 -0.3017  0.0933 -0.1633
29443W        W45627  17.163  11.803  11.602  0.2285 -0.1672  0.0134
29444W        W45628   2.113   1.381  11.749 -0.4919 -0.2846 -0.0005
29445W        W45629  13.261   2.787  11.747 -0.1102  0.2583  0.2577
29446W        W45630  15.929   1.798   1.435 -0.2641 -0.0617 -0.1681
29447W        W45631  10.338   5.753  14.510 -0.0565  0.2603  0.0914
29448W        W45632   8.797  18.880   2.853  0.0618 -0.0740 -0.3472
29449W        W45633   0.513  17.122  13.223  0.1122 -0.2469 -0.1834
29450W        W45634  15.405   7.260   3.198  0.0429 -0.1264 -0.0840
29451W        W45635   6.403   4.910  11.841  0.1347 -0.0477  0.1964
29452W        W45636  10.269   7.269   1.655  0.0423  0.1951  0.0525
29453W        W45637   5.649  15.050  14.519  0.0677 -0.1875  0.3319
29454W        W45638   0.473   1.635  13.447  0.2243 -0.7174  0.0042
29455W        W45639   5.105   6.183   3.435 -0.0538  0.2774 -0.0176
29456W        W45640  12.222   2.957   2.075 -0.3054 -0.0367  0.1270
29457W        W45641  16.690  18.680   0.987 -0.3959  0.2992 -0.1680
29458W        W45642  10.581  15.190   4.403  0.0454 -0.0973  0.1092
29459W        W45643   9.529  14.548   2.592  0.2658 -0.1649 -0.3647
29460W        W45644   0.400  13.524   0.908 -0.0076 -0.1284 -0.1903
29461W        W45645  17.922   8.390   5.189 -0.1147 -0.1618 -0.0328
29462W        W45646   2.725   4.611   4.218  0.0490 -0.0141 -0.0720
29463W        W45647   2.939  18.030  12.467 -0.2759  0.0106  0.1457
29464W        W45648   8.493  18.800   4.502  0.3845  0.0774 -0.3438
29465W        W45649   5.100   4.838   0.488 -0.0711  0.3155 -0.5305
29466W        W45650  14.461   5.112  11.108 -0.3140  0.0594 -0.2016
29467W        W45651  15.247  15.750   1.794  0.1760 -0.1794  0.0103
29468W        W45652  13.437  15.903   0.516 -0.1059  0.1812 -0.0216
29469W        W45653   1.321   4.111   0.047 -0.0371  0.1658  0.0718
29470W        W45654  13.471  18.672   1.024 -0.0284 -0.1711  0.3470
29471W        W45655  13.166  13.152   2.268  0.0070 -0.1159  0.1459
29472W        W45656   2.309   7.734  11.698 -0.2513 -0.0528 -0.0054
29473W        W45657   3.525   6.262  10.583  0.1570 -0.0526  0.1358
29474W        W45658  10.896   9.977   0.047  0.0224 -0.0320  0.2436
29475W        W45659   4.611   6.986  13.815  0.1770  0.0344 -0.0055
29476W        W45660   0.971  17.014   2.071  0.1866  0.0052  0.3550
29477W        W45661  14.278   5.697   0.915  0.0764 -0.0973 -0.0890
29478W        W45662  10.227  12.900  11.155 -0.0755 -0.0139 -0.1232
29479W        W45663   4.995  13.498   1.770 -0.2883 -0.0968  0.2960
29480W        W45664  12.847  10.693  14.379  0.0568 -0.3437 -0.3530
29481W        W45665   8.208  14.817   4.895  0.0715 -0.2274 -0.0451
29482W        W45666  14.440   2.403   0.443  0.0842 -0.2132 -0.1059
29483W        W45667   1.920   6.890  11.107 -0.2516 -0.0318 -0.2873
29484W        W45668   8.372   4.939  14.656  0.1734 -0.1362  0.0227
29485W        W45669  17.413   5.362  14.709 -0.3117  0.2174  0.1208
29486W        W45670   2.364   6.712  11.801  0.0480 -0.3116 -0.1394
29487W        W45671  11.117  16.671   4.584  0.2670 -0.1180 -0.0738
29488W        W45672   5.076   3.527   1.776  0.4793 -0.0163 -0.0142
29489W        W45673  13.267   4.810   3.455  0.1551 -0.1196  0.0485
29490W        W45674   8.485   4.259  13.066 -0.4119  0.1729 -0.0777
29491W        W45675  15.860  15.143  14.586 -0.0385 -0.0036 -0.1305
29492W        W45676   8.098   0.939  10.412 -0.2791  0.3402  0.1462
29493W        W45677   4.935   8.981   1.480 -0.1102 -0.1177  0.1721
29494W        W45678  10.288  15.063   1.356 -0.1079 -0.2942 -0.0618
29495W        W45679   3.402   4.197  12.038  0.3944 -0.0856 -0.0764
29496W        W45680  18.013   3.527  14.465  0.3303 -0.0336 -0.2875
29497W        W45681  10.551   1.081   2.987 -0.2907 -0.1614  0.1418
29498W        W45682   5.257   2.835  14.585  0.4057  0.2753 -0.2219
29499W        W45683   6.795  12.677   1.177  0.2958 -0.2054  0.3884
29500W        W45684   3.942   1.944   1.259 -0.1951  0.1050  0.2208
29501W        W45685  15.141   4.576   4.861 -0.1901 -0.0690  0.1206
29502W        W45686   6.587   0.121  12.314  0.2363  0.0842 -0.0654
29503W        W45687  16.874   9.885   5.830  0.0703 -0.0400  0.1555
29504W        W45688  16.516   7.760  12.796 -0.0569  0.1136  0.1093
29505W        W45689   6.090  13.392  14.301  0.0925 -0.0704 -0.3424
29506W        W45690   9.066   8.187  12.306  0.0652  0.0287 -0.0640
29507W        W45691   4.583  18.867   0.895  0.0068 -0.1520 -0.1531
29508W        W45692   8.160   9.223   0.199  0.2761  0.0688 -0.2959
29509W        W45693   8.714   7.137   3.392  0.2533  0.4869 -0.1559
29510W        W45694   3.302  10.116   2.939  0.0424  0.0696 -0.1715
29511W        W45695  13.454  15.252  10.913 -0.2128  0.0888 -0.1541
29512W        W45696   2.280   7.673   0.796  0.2123 -0.1465  0.1222
29513W        W45697  17.402  14.041  13.366  0.1179  0.2970  0.2119
29514W        W45698   9.165  18.888   3.214  0.0494  0.2108 -0.1093
29515W        W45699   3.099  14.175   0.108 -0.3782  0.2523  0.0084
29516W        W45700   9.962  17.012   3.367  0.1505  0.0326 -0.0211
29517W        W45701   6.092   2.803   2.790  0.1304 -0.1735 -0.1601
29518W        W45702  11.673  17.147   0.865 -0.1833 -0.0792  0.1206
29519W        W45703   7.172   5.176   0.664 -0.1210 -0.3327  0.1322
29520W        W45704  11.275   0.287  10.757 -0.0379  0.0451 -0.2209
29521W        W45705  13.218   9.260  12.282  0.0806  0.2418 -0.1853
29522W        W45706   9.683   8.246   0.880  0.2209  0.3902 -0.3461
29523W        W45707   6.771   5.974   0.883 -0.0925 -0.1184 -0.0605
29524W        W45708  16.593  15.632   1.665 -0.1656  0.0577  0.2002
29525W        W45709   5.065   9.419   1.215 -0.0551  0.2390  0.0875
29526W        W45710   6.229   9.642  15.195  0.2115 -0.0479 -0.1927
29527W        W45711  15.896   0.397   3.144  0.2572 -0.2182 -0.0165
29528W        W45712  13.719   3.981   0.360 -0.1225  0.0006 -0.1328
29529W        W45713  16.409   6.371  14.092 -0.3883  0.0001  0.0272
29530W        W45714   7.306   9.815   2.302 -0.1326  0.0475  0.3202
29531W        W45715  15.457  10.081  13.625  0.0852  0.0639 -0.5207
29532W        W45716  14.075  11.796  12.755 -0.0138 -0.6235 -0.0511
29533W        W45717  13.577  18.510   1.565  0.1387 -0.0815  0.0154
29534W        W45718   4.779  11.135   0.696 -0.1490 -0.2490 -0.2954
29535W        W45719  17.885  11.756  13.418  0.0492  0.2008  0.1096
29536W        W45720  15.809   3.050  14.952  0.0609 -0.0691  0.2336
29537W        W45721   3.264   9.260   0.850  0.2048 -0.0154 -0.1373
29538W        W45722  16.411   2.801   5.411 -0.2392  0.3954 -0.0929
29539W        W45723  10.178   9.759   3.309 -0.0584  0.3545  0.0348
29540W        W45724  16.603  17.647   3.316  0.1322  0.0488  0.2524
29541W        W45725  15.381  17.444  12.661 -0.0166 -0.1293  0.1754
29542W        W45726   7.199   2.811  14.808 -0.0394 -0.3141 -0.1535
29543W        W45727  11.832  13.776  10.707 -0.0636 -0.1144 -0.0255
29544W        W45728  16.248   5.575   4.608 -0.1078 -0.4843 -0.0515
29545W        W45729   1.717  17.249  13.413 -0.0681 -0.1658 -0.1140
29546W        W45730  11.714  16.912  12.039  0.1109  0.2563  0.3171
29547W        W45731  13.283  12.855  12.273  0.1717  0.0700  0.2499
29548W        W45732  15.566  15.561  12.172 -0.1199  0.2863  0.0347
29549W        W45733  11.926   5.630  11.263  0.1107 -0.2781 -0.2700
29550W        W45734  18.781  13.229  14.722  0.0616 -0.4350 -0.0642
29551W        W45735   8.131   1.903  12.600  0.0570 -0.0044  0.1909
29552W        W45736   8.791   4.685  12.533 -0.0075 -0.0612 -0.1047
29553W        W45737  13.048   2.002   0.785 -0.1413  0.1334  0.1414
29554W        W45738  11.602  16.930  11.142 -0.0988 -0.0887  0.0914
29555W        W45739  10.562   8.749  12.435  0.0403 -0.0282  0.0768
29556W        W45740  12.176   4.636   1.204  0.0865  0.0090  0.4187
29557W        W45741  16.536   3.529   1.745  0.0897  0.2637 -0.2097
29558W        W45742   1.632  12.672  14.938 -0.1644 -0.1386 -0.1190
29559W        W45743   7.336  16.093  10.764  0.3879 -0.1434 -0.0740
29560W        W45744  14.491  16.933   4.582 -0.3244  0.0666 -0.0547
29561W        W45745   0.926   2.803  13.045 -0.1397  0.2081  0.3168
29562W        W45746   0.692  14.312  13.504  0.1870  0.2480 -0.0446
29563W        W45747  16.038   7.026   9.526 -0.0028 -0.0505 -0.1110
29564W        W45748   0.351   2.143   2.507  0.2449 -0.0601  0.0425
29565W        W45749  18.200  11.038   1.874 -0.0353 -0.1951  0.0665
29566W        W45750   2.352   9.534   6.031  0.2861  0.1274  0.0091
29567W        W45751   0.105  10.298   1.420 -0.2977  0.3353  0.2544
29568W        W45752  18.434  16.968   0.807  0.2195 -0.0628 -0.2756
29569W        W45753  17.734  13.666   3.730 -0.2006  0.5009 -0.0953
29570W        W45754  11.936  10.736  11.501  0.2145  0.1720  0.0865
29571W        W45755   4.509  18.392  13.359  0.2559  0.1291 -0.0719
29572W        W45756   1.386   7.865  13.402 -0.2247 -0.1521 -0.0397
29573W        W45757   4.813  17.046  15.342  0.0297 -0.1382  0.0213
29574W        W45758  13.734   0.381  14.215  0.0168  0.1916  0.0939
29575W        W45759  11.242  13.074   3.198 -0.1059 -0.3620  0.0770
29576W        W45760  14.522  10.375  13.012 -0.1291  0.1029  0.1598
29577W        W45761  17.921   7.499   4.926  0.1240  0.1632 -0.4343
29578W        W45762  15.610  13.088  14.801  0.2360  0.0906  0.1357
29579W        W45763  10.230   8.652   4.884  0.0196  0.2565 -0.0635
29580W        W45764  15.753  13.201   4.698  0.0659  0.2637 -0.1760
29581W        W45765   0.915   8.771   5.012 -0.1328 -0.0328 -0.2320
29582W        W45766   5.496   0.384  13.235 -0.3028  0.1346  0.0261
29583W        W45767   8.595  18.025  11.952 -0.4040 -0.3304 -0.0908
29584W        W45768   8.358   2.723   4.452  0.1104 -0.0251 -0.3680
29585W        W45769   3.664  14.461   0.501  0.1019  0.1578 -0.1429
29586W        W45770   0.617   3.713  11.904 -0.0277 -0.0270 -0.1248
29587W        W45771   8.379  16.921   0.870 -0.0255 -0.0235  0.0144
29588W        W45772   8.223  13.577   3.055 -0.3293  0.1469 -0.0396
29589W        W45773  17.121   2.951   0.400 -0.0952 -0.0267 -0.0726
29590W        W45774   7.652   6.871  12.409  0.0019  0.2338 -0.1429
29591W        W45775  18.679  13.281   0.517 -0.1233  0.2640  0.4056
29592W        W45776  10.153  10.173   4.184  0.0142 -0.2888  0.2073
29593W        W45777  16.417  16.647   3.584 -0.0770 -0.1634 -0.0931
29594W        W45778   4.507  18.125   0.713  0.1771 -0.4072 -0.1075
29595W        W45779  13.920  14.693   4.673 -0.0363  0.0136  0.3971
29596W        W45780  14.203  16.515  11.475 -0.1349  0.1074 -0.1582
29597W        W45781   1.521   5.282  12.919  0.2258  0.1132 -0.0412
29598W        W45782   8.629  18.537  12.229  0.0612 -0.1216 -0.2653
29599W        W45783   6.823   4.538   4.444 -0.1372  0.0204 -0.0236
29600W        W45784  13.556   8.442  14.036 -0.1558 -0.3563 -0.2614
29601W        W45785  13.243  12.064   9.517 -0.0651  0.2180 -0.1559
29602W        W45786  18.338   8.435   2.760 -0.0492  0.2027 -0.1668
29603W        W45787  14.267   7.498   0.791 -0.2487  0.1522 -0.0200
29604W        W45788  13.541  15.920  11.536 -0.3905  0.2493 -0.0729
29605W        W45789   5.548   7.818   1.902  0.1270 -0.0760 -0.1762
29606W        W45790   3.747   2.226   3.855 -0.0094 -0.1053  0.0095
29607W        W45791  12.139   5.991   1.174 -0.1183 -0.4646 -0.2848
29608W        W45792  12.122   4.731  10.690 -0.0728 -0.2852  0.1074
29609W        W45793   6.141   4.452  11.594 -0.5588 -0.0698 -0.0110
29610W        W45794   5.617  14.650   3.774  0.0956 -0.3339 -0.1050
29611W        W45795   8.018  13.761   1.701 -0.1965  0.1168  0.0176
29612W        W45796  15.240   8.928   2.847  0.1287 -0.1295  0.0306
29613W        W45797   3.526   5.019   2.785  0.3257 -0.1996  0.2823
29614W        W45798   6.791   9.029   1.979  0.2599  0.1650  0.1227
29615W        W45799   8.235  11.832   0.588 -0.2129  0.2609 -0.0459
29616W        W45800   9.997  14.277  14.290  0.0952  0.0631 -0.0687
29617W        W45801   7.909   1.155  15.347  0.0331 -0.2722 -0.1829
29618W        W45802   3.577   5.699   1.619 -0.4585  0.0933  0.0184
29619W        W45803   9.148   6.982   2.057 -0.1302  0.2361 -0.2223
29620W        W45804  15.116  14.497  12.796  0.1943  0.0894  0.2602
29621W        W45805  15.471   0.563  11.253  0.4583 -0.1139  0.1745
29622W        W45806   7.489  17.804  13.955 -0.2766  0.1766 -0.0975
29623W        W45807  10.869  16.367  14.801 -0.1346 -0.1131 -0.1707
29624W        W45808  13.899   4.884   4.043  0.2397  0.1910 -0.2796
29625W        W45809   8.615  16.056   3.078  0.1450  0.3095 -0.2826
29626W        W45810  16.137  12.591  10.973 -0.1302 -0.0030 -0.0490
29627W        W45811   9.241   7.073  12.390  0.3335 -0.0970  0.0248
29628W        W45812   8.753  15.979  10.792 -0.1969 -0.0968 -0.0421
29629W        W45813  17.767  15.010   5.027  0.2041  0.1539 -0.0665
29630W        W45814   9.448  14.267   4.225  0.1190  0.3209 -0.0391
29631W        W45815  11.422   8.412  14.384  0.2735 -0.1035 -0.0980
29632W        W45816  18.380  12.541   9.925 -0.0075 -0.1310 -0.3068
29633W        W45817   8.395  12.362  13.929 -0.0062 -0.1541 -0.0161
29634W        W45818   7.293   7.527   4.710  0.2042  0.1597  0.1361
29635W        W45819   4.847   2.763  12.599 -0.0854 -0.0598  0.1853
29636W        W45820  10.220  15.978   1.511 -0.0611  0.1008 -0.0145
29637W        W45821  16.091  17.272   1.366 -0.1377 -0.0829 -0.0506
29638W        W45822  14.260   1.774  12.216  0.1024  0.1867  0.2220
29639W        W45823   9.928  17.882  11.071  0.0712 -0.1232  0.0231
29640W        W45824   6.240   3.782   4.666 -0.0858  0.0479 -0.0519
29641W        W45825   6.895  15.508   4.078 -0.1565  0.1758 -0.0512
29642W        W45826   1.413  18.655   1.261 -0.2579 -0.1103 -0.4100
29643W        W45827  13.259  10.075  15.160 -0.1367 -0.5052  0.3315
29644W        W45828  12.321  13.683  11.881  0.1222  0.0159  0.1034
29645W        W45829   7.020  13.800  12.423 -0.1390  0.1697  0.2457
29646W        W45830  17.715   4.353  14.824 -0.0384  0.2414  0.2473
29647W        W45831  12.128   3.759  11.206  0.0203 -0.0878 -0.1048
29648W        W45832   1.919   1.271   2.995 -0.0915 -0.2301  0.0127
29649W        W45833  17.935   6.303   3.121  0.1212 -0.0651  0.2534
29650W        W45834  17.900  12.459  11.139 -0.1817 -0.1223 -0.0380
29651W        W45835   9.028  12.387   0.291 -0.1377 -0.0568 -0.0147
29652W        W45836  11.110   4.725  14.779 -0.2145 -0.0096 -0.2075
29653W        W45837  14.469  10.146  10.795 -0.1067  0.1179 -0.1088
29654W        W45838  14.333   6.738   3.856  0.0214 -0.2889 -0.0155
29655W        W45839  10.207   8.406  13.965 -0.1098 -0.0985  0.0154
29656W        W45840   2.011   5.925   3.316  0.0118 -0.0831 -0.2896
29657W        W45841   4.718  11.869   5.426  0.0385  0.0973 -0.2818
29658W        W45842  10.385   3.355  13.747 -0.0758 -0.2060 -0.2087
29659W        W45843  18.170   7.060   5.248 -0.0062  0.0096 -0.0198
29660W        W45844  14.670   4.132  11.397 -0.3895 -0.1441  0.3742
29661W        W45845   0.947  10.716  15.077 -0.0016 -0.0645  0.4513
29662W        W45846  18.782   8.262   3.091  0.0053 -0.0242 -0.1506
29663W        W45847   5.209  17.176   3.415 -0.2663 -0.1547 -0.3534
29664W        W45848  15.111  14.043   3.497  0.3543  0.1634  0.0168
29665W        W45849  10.301   3.305  14.295  0.3620  0.1287  0.1228
29666W        W45850   7.433  16.106  14.317 -0.0310 -0.2671 -0.4608
29667W        W45851  14.087  17.554  15.200 -0.2320 -0.0821 -0.0212
29668W        W45852   7.770   0.885  10.773  0.0568  0.2264 -0.0413
29669W        W45853  14.061  11.428   4.609  0.2391 -0.1899  0.0707
29670W        W45854   2.571   1.483   4.922  0.3206 -0.1284 -0.1441
29671W        W45855  18.414   0.482   4.614  0.3190  0.2085  0.0623
29672W        W45856   9.511  16.768   5.070 -0.0151 -0.2340 -0.1494
29673W        W45857  14.917  11.501   3.760  0.1205 -0.0183  0.1529
29674W        W45858  15.695  12.593   4.501  0.0344 -0.0704 -0.0283
29675W        W45859  12.815   9.913   2.695  0.2454 -0.1886  0.0136
29676W        W45860   8.638   4.237   1.391  0.1162  0.1360 -0.1914
29677W        W45861   5.414   7.129  10.723  0.1131 -0.1503  0.0595
29678W        W45862   5.447   9.586  11.865 -0.3273  0.2194  0.0312
29679W        W45863   6.434   9.471  12.794 -0.1973  0.3754 -0.0685
29680W        W45864   7.645  12.251   3.397  0.1932 -0.1170  0.2217
29681W        W45865  10.542  18.451  11.122 -0.1101 -0.4232  0.0557
29682W        W45866   7.653   6.316  10.941 -0.1163 -0.0396 -0.0363
29683W        W45867   6.296   6.224   0.707 -0.3728  0.1120 -0.2486
29684W        W45868  13.790   7.649  13.419  0.1006  0.1977 -0.2518
29685W        W45869   4.642   7.171   1.051  0.4381 -0.3026 -0.0337
29686W        W45870   1.185   3.518   4.375  0.0506  0.1420 -0.3664
29687W        W45871   3.391  17.983   3.916  0.0829 -0.4033 -0.4283
29688W        W45872  17.223   3.998   2.955  0.0506 -0.0941  0.1958
29689W        W45873   5.632  14.736  10.879 -0.1014  0.0165  0.0426
29690W        W45874   6.231  15.095  10.576 -0.3803 -0.0837  0.0382
29691W        W45875   9.009   7.192   1.585  0.0265  0.3297  0.3412
29692W        W45876   2.814  11.858   3.485 -0.1319  0.2847 -0.0745
29693W        W45877  13.570  15.907  14.486  0.1261 -0.0916  0.2889
29694W        W45878   0.728   9.546   1.775  0.1394  0.1508 -0.3066
29695W        W45879   0.546  12.236   3.091 -0.1281  0.0113  0.0192
29696W        W45880   5.063  13.577  13.909  0.3518  0.3077 -0.0735
29697W        W45881   6.067  18.052   1.553 -0.1437  0.1264  0.0908
29698W        W45882  13.905  13.071  11.189  0.1198 -0.2038  0.2658
29699W        W45883  17.953  13.879  14.367  0.1105  0.1927  0.0199
29700W        W45884  14.007   9.616  14.652 -0.1170  0.0090  0.1948
29701W        W45885   7.411   5.458   3.481 -0.1966 -0.0105 -0.0595
29702W        W45886  17.853  11.212   6.050 -0.3059 -0.0750  0.4780
29703W        W45887  18.218  12.627  15.319  0.1382 -0.3359  0.1864
29704W        W45888   0.852   2.531   2.394  0.0822 -0.1013 -0.3891
29705W        W45889   9.366   9.512   1.791  0.1846  0.0465 -0.0055
29706W        W45890   3.629   2.380   1.283 -0.1627 -0.1822  0.0927
29707W        W45891  10.120   0.188  11.585  0.0974 -0.2535  0.0186
29708W        W45892   5.585   7.955  11.783  0.5494  0.0079 -0.3849
29709W        W45893   4.053   8.840   3.861  0.1974  0.0357 -0.2254
29710W        W45894  16.991   7.097  10.942  0.1091 -0.2208  0.0531
29711W        W45895   8.839  12.047  11.284 -0.1097  0.0245 -0.2680
29712W        W45896  18.650   5.733   3.257 -0.1291  0.2430  0.0094
29713W        W45897   0.259   1.625   2.101 -0.1698 -0.1377 -0.0398
29714W        W45898   3.311   8.087  13.018 -0.1578 -0.3251  0.1162
29715W        W45899  14.519  15.885   1.069  0.1309 -0.0697  0.0825
29716W        W45900  10.336  17.013   1.092 -0.0636  0.1302  0.2513
29717W        W45901  15.069   2.350   1.649 -0.0377 -0.1138 -0.0261
29718W        W45902  15.815   7.385  13.947 -0.1444 -0.1543 -0.1580
29719W        W45903  13.044   0.848   2.292 -0.0713 -0.1668  0.1713
29720W        W45904  17.453  16.183   1.003  0.3027 -0.2159  0.1705
29721W        W45905   7.633   2.249  13.852  0.0354  0.1715  0.1293
29722W        W45906   9.820   2.130   2.998  0.3973  0.2018 -0.0304
29723W        W45907   9.529   5.558   0.132 -0.0440  0.1112 -0.3438
29724W        W45908   4.912   6.603  13.692  0.2356 -0.0800  0.3664
29725W        W45909  12.173   5.829  11.639 -0.3048 -0.0189 -0.3589
29726W        W45910   9.488   4.413  13.872 -0.2082 -0.1088 -0.2210
29727W        W45911  12.980  18.018  13.492  0.1036  0.1791 -0.0209
29728W        W45912   5.830   5.527   4.148 -0.1650  0.1554  0.0517
29729W        W45913   4.819  15.163  14.135 -0.1602 -0.0901  0.0799
29730W        W45914  11.443  13.409   1.471 -0.0837  0.2447  0.3517
29731W        W45915  15.494  16.917  14.933 -0.0861 -0.0852  0.1530
29732W        W45916   3.415   8.466   4.583  0.3181  0.0816 -0.0963
29733W        W45917  12.394  11.464  11.697  0.0949 -0.0502 -0.0981
29734W        W45918   5.290   1.349  14.975  0.0150 -0.0034  0.1721
29735W        W45919   1.604  12.257  13.486  0.2983  0.2725  0.0815
29736W        W45920   0.182   3.566   4.540  0.1269 -0.0752  0.1336
29737W        W45921   8.689  15.524  12.775  0.1161 -0.1982  0.2686
29738W        W45922   3.123  15.213   0.873 -0.0800  0.1641  0.2965
29739W        W45923  14.477   4.662   2.205  0.1194  0.0003 -0.0444
29740W        W45924   1.150  12.174  14.226  0.2337  0.0569  0.1253
29741W        W45925   0.172  17.533   0.625 -0.0270  0.0454 -0.2797
29742W        W45926   7.309   3.807  11.296  0.2891 -0.0269 -0.1150
29743W        W45927   2.376   5.913   2.988 -0.2447 -0.0179 -0.1370
29744W        W45928  18.693  16.043  15.075  0.0489  0.0464 -0.0025
29745W        W45929   9.171   3.037   1.193 -0.0383 -0.1231 -0.1205
29746W        W45930  18.198  12.802   5.990 -0.0701  0.2470 -0.0242
29747W        W45931   7.175   3.465   4.200  0.1458 -0.0581  0.0033
29748W        W45932   8.782   7.115   3.906  0.2017  0.0641 -0.3755
29749W        W45933   6.841   6.019   2.747  0.1043  0.1441  0.1763
29750W        W45934  13.969   2.827   4.708  0.2381 -0.2219  0.2877
29751W        W45935   6.402  14.273   2.849 -0.4728 -0.0444 -0.2819
29752W        W45936  11.954  15.155  14.008  0.3172  0.1693  0.1769
29753W        W45937   4.527   3.231  13.364  0.0408  0.1328 -0.1762
29754W        W45938   0.212   3.302   5.728  0.0802 -0.1127 -0.1286
29755W        W45939  12.533   0.640  14.948 -0.1102 -0.0144 -0.0327
29756W        W45940  13.702   8.779  12.234  0.0499  0.0022 -0.0426
29757W        W45941   0.083   0.397  11.969 -0.1900  0.1369 -0.2281
29758W        W45942   0.293  11.875   2.867 -0.0140 -0.1347 -0.3968
29759W        W45943   0.834  17.604   1.011  0.1001 -0.2882  0.3542
29760W        W45944  17.394   9.592  13.458  0.4206 -0.0054 -0.1378
29761W        W45945   6.067   8.105  11.527 -0.0904  0.0591  0.3820
29762W        W45946   1.455  15.527  14.646 -0.3314 -0.1049 -0.0938
29763W        W45947  11.747   8.574   1.221 -0.1293  0.1179 -0.0296
29764W        W45948  12.515  15.945  10.630  0.4329  0.0408 -0.0101
29765W        W45949   9.085  16.054   4.705 -0.1574  0.1476 -0.0998
29766W        W45950  10.796   6.039  14.500  0.1118 -0.0063 -0.1471
29767W        W45951   8.967  17.455   2.754 -0.3261 -0.0896  0.2534
29768W        W45952  12.389   7.803  13.590  0.5544 -0.1574 -0.1622
29769W        W45953  15.288  10.248   0.799 -0.2074 -0.3107 -0.3658
29770W        W45954  17.068   7.810   3.289 -0.0243  0.1340  0.2662
29771W        W45955  15.466   5.526   4.970  0.0191  0.4362 -0.1069
29772W        W45956   7.008  14.273  11.149  0.0600  0.3226  0.2000
29773W        W45957   9.619   6.521   5.117  0.0661 -0.1382 -0.2076
29774W        W45958  12.354  14.302   1.937  0.1062  0.1990  0.1444
29775W        W45959  17.616  13.232   5.775  0.0601  0.1451 -0.2205
29776W        W45960  10.716   6.443  10.360  0.1912 -0.0533  0.2673
29777W        W45961  12.835   6.788  13.891 -0.4618 -0.0169  0.0980
29778W        W45962  14.657  17.525  12.179  0.0446  0.1275 -0.0019
29779W        W45963  15.841  15.651   0.091  0.0116  0.0260  0.1120
29780W        W45964   1.406   0.916   3.860 -0.0718  0.0438  0.1084
29781W        W45965   1.893   1.084   4.954  0.1142 -0.3198  0.1873
29782W        W45966   3.389   9.514   0.311  0.3305 -0.1356  0.3185
29783W        W45967   3.356   0.879  13.108  0.1260 -0.0901  0.0964
29784W        W45968   3.514  17.113   3.148 -0.1664 -0.1383 -0.2244
29785W        W45969  10.242  10.609   0.377 -0.1095 -0.1061  0.0271
29786W        W45970  16.592   1.903  11.757  0.1515 -0.0904 -0.1322
29787W        W45971   1.527   1.957   4.092 -0.1770  0.2086  0.0772
29788W        W45972   4.799   2.596   1.139 -0.4491  0.0962  0.1923
29789W        W45973   5.003   2.903   0.240 -0.0719  0.1103 -0.0363
29790W        W45974  16.908   3.063   1.661  0.0503 -0.2063 -0.2279
29791W        W45975   2.677   5.869   0.394  0.0982  0.1684 -0.0382
29792W        W45976  11.662   0.403  14.502  0.1823  0.0423 -0.1537
29793W        W45977   4.984  14.622   0.056  0.3939  0.2007  0.1429
29794W        W45978   9.544  13.740   0.903  0.0522  0.0891  0.0275
29795W        W45979  17.032   0.249   0.198  0.1455  0.2367 -0.0848
29796W        W45980  15.537   1.525  10.976 -0.0012 -0.1413 -0.4215
29797W        W45981  14.485  14.277   1.495 -0.0897  0.0616 -0.0474
29798W        W45982  16.578  18.905   5.769  0.1084  0.0173 -0.0798
29799W        W45983   2.579   4.535  12.114  0.0643  0.4008  0.1624
29800W        W45984  14.651   5.384   0.922 -0.0811 -0.0505  0.0642
29801W        W45985   0.599   8.559   0.435 -0.0903 -0.0827  0.2269
29802W        W45986   1.745   8.947  13.709 -0.0818  0.1500 -0.1390
29803W        W45987   1.533  11.369  13.824  0.5321  0.0287 -0.2793
29804W        W45988  12.773   0.242   0.214  0.0970 -0.1645 -0.2635
29805W        W45989  13.060  15.507   0.404  0.1252  0.0416 -0.2211
29806W        W45990  16.032   9.785  12.850  0.2126  0.3786 -0.0215
29807W        W45991  18.291   9.261   0.258  0.2138 -0.0271 -0.0393
29808W        W45992  12.468  11.347   2.335  0.0130 -0.0348 -0.2978
29809W        W45993   3.829   0.633  11.280 -0.1521  0.1148 -0.4335
29810W        W45994  11.556  18.039  12.195  0.0418  0.1206  0.1439
29811W        W45995   7.120  16.062   3.789  0.3496 -0.2938 -0.0056
29812W        W45996  11.232  11.567   4.723 -0.1428 -0.0457  0.0476
29813W        W45997   9.784  15.251   1.327  0.1464 -0.1370  0.0683
29814W        W45998   0.645  16.133   2.339  0.1938 -0.0160 -0.1494
29815W        W45999   7.856   3.890  14.516 -0.1011 -0.2709  0.2005
29816W        W46000  15.779  16.024  11.843 -0.1792  0.0362 -0.1733
29817W        W46001  14.697   5.325   0.299 -0.1134 -0.0276 -0.1681
29818W        W46002   0.117   9.809  13.489  0.0529 -0.1640 -0.4381
29819W        W46003   0.873   6.646  14.961 -0.5137 -0.0420 -0.3024
29820W        W46004  11.271   1.782  11.791 -0.1301 -0.4435 -0.1528
29821W        W46005   0.304  16.918   3.808 -0.1974  0.2118 -0.3091
29822W        W46006   5.546  10.584   4.511 -0.0822 -0.0169  0.2788
29823W        W46007   3.527   6.204   5.898 -0.0746 -0.0611  0.1836
29824W        W46008  14.419  14.829  11.960 -0.1321 -0.1018 -0.1735
29825W        W46009  17.242   7.893  11.070  0.0309  0.4278  0.2915
29826W        W46010  18.144  11.755   0.382 -0.3060  0.1606  0.2599
29827W        W46011   8.017  18.382  12.283 -0.1213  0.0025 -0.0238
29828W        W46012  16.647  11.283   1.086  0.1321 -0.1049 -0.0590
29829W        W46013  10.415  15.054  14.101 -0.2090 -0.1139 -0.0431
29830W        W46014  15.005   5.770  10.608  0.0368  0.0226  0.1236
29831W        W46015  17.574   7.936  12.618 -0.0227  0.1089 -0.1044
29832W        W46016  17.512   1.614  13.740 -0.2893 -0.0972 -0.1267
29833W        W46017   7.828   5.284   2.038  0.0882  0.0233  0.2933
29834W        W46018  11.228   7.183   5.102 -0.0445 -0.0834 -0.2738
29835W        W46019   1.709   3.907  15.055  0.1068 -0.0445  0.2551
29836W        W46020   0.584  15.693   4.730  0.1863 -0.0229  0.0398
29837W        W46021   6.444  13.829   5.600 -0.0146 -0.0112 -0.2216
29838W        W46022   0.697   8.517   2.823 -0.1438  0.1550  0.0405
29839W        W46023  10.792   4.427   3.202  0.1363 -0.4374  0.0277
29840W        W46024  16.115  10.741  10.595  0.0649  0.1845  0.0560
29841W        W46025   6.322  14.520  15.278 -0.1423  0.1231  0.3711
29842W        W46026  10.910  11.773  13.206 -0.0772 -0.1100 -0.1498
29843W        W46027  11.935   1.059   0.637 -0.0581  0.1062  0.1189
29844W        W46028   7.520   5.776  14.151  0.2920  0.1323 -0.1257
29845W        W46029   9.044  17.462   5.000 -0.2327 -0.1289  0.0919
29846W        W46030  16.459   6.283  13.403 -0.1673  0.4102 -0.0397
29847W        W46031  11.937   7.015  14.827  0.0260  0.0791 -0.4144
29848W        W46032   6.987   9.946  13.336 -0.0428 -0.1659  0.0610
29849W        W46033  18.186  18.470   4.500 -0.0686  0.2679 -0.0896
29850W        W46034   2.440   1.747   4.136 -0.2459  0.0549  0.2616
29851W        W46035  17.120   4.210   3.972  0.1297 -0.0865 -0.0620
29852W        W46036   3.187   2.327   5.095 -0.0419  0.2250  0.2820
29853W        W46037   4.681  10.971  13.743 -0.0123 -0.0813  0.0117
29854W        W46038   0.459  18.544  12.024 -0.1739  0.0896 -0.2835
29855W        W46039   3.720   9.281   0.631 -0.1522 -0.1829  0.1682
29856W        W46040  12.071   5.116  12.597  0.1836  0.1241 -0.1316
29857W        W46041  12.164  13.276   2.475 -0.1714  0.0108 -0.2859
29858W        W46042  10.717  12.708   4.920 -0.0466 -0.0595  0.1846
29859W        W46043   9.010  10.153   5.138 -0.1936  0.1937 -0.0709
29860W        W46044  18.666  15.103  14.735 -0.3544  0.0733  0.2780
29861W        W46045  16.208   6.107  11.070 -0.2350 -0.1620  0.0053
29862W        W46046  14.760   7.739   4.880  0.0651 -0.1956  0.0727
29863W        W46047   8.475   2.001  10.584  0.0855  0.3498  0.1357
29864W        W46048   2.967  14.777   2.275  0.1436 -0.2483  0.2886
29865W        W46049   7.223  12.549  12.849  0.1291  0.3213 -0.3674
29866W        W46050  17.556  12.038  15.125 -0.0374 -0.1571 -0.1978
29867W        W46051  15.674  15.906   3.837  0.0540  0.1284 -0.1103
29868W        W46052  10.992   2.811   0.386 -0.0861  0.2972  0.3748
29869W        W46053   0.011  17.613  11.715 -0.0032  0.1421  0.2239
29870W        W46054   1.601   0.790   2.991 -0.0034  0.2785  0.0796
29871W        W46055  16.542  14.201   3.934 -0.3937 -0.2043  0.0202
29872W        W46056  13.430   9.717   4.097  0.0971  0.1535 -0.0227
29873W        W46057   7.014   9.276   3.902 -0.1493 -0.1234  0.0896
29874W        W46058   3.536  16.979   2.681 -0.1153 -0.2146 -0.1583
29875W        W46059  14.913   3.868  10.582 -0.2365  0.0867  0.1327
29876W        W46060  15.031  17.002  11.216  0.3184  0.2906 -0.0977
29877W        W46061   9.050   8.302  13.217  0.0809 -0.1248  0.1055
29878W        W46062   8.874  17.598   0.276  0.1973 -0.1600  0.0351
29879W        W46063  18.347   7.678   3.400  0.1644 -0.1055 -0.2468
29880W        W46064   3.406  13.512  11.420  0.1585  0.1319 -0.3121
29881W        W46065  12.744  11.765  13.512 -0.3145  0.0433  0.2047
29882W        W46066   0.024   3.037   4.268  0.1496 -0.0072  0.6295
29883W        W46067  15.525   8.933  12.837  0.2235 -0.4068 -0.1785
29884W        W46068   1.120  10.616   3.785  0.1168 -0.1760 -0.1736
29885W        W46069  13.703  13.808  14.915  0.2266 -0.1871  0.1466
29886W        W46070  10.584  13.955   1.863  0.0542  0.0290  0.0937
29887W        W46071  17.117   8.650  13.599 -0.0370  0.1089 -0.3038
29888W        W46072   8.858  13.983   4.649  0.0001  0.1904  0.0159
29889W        W46073  11.567  13.761   1.905  0.2176  0.1651  0.1829
29890W        W46074  10.169  10.653  15.229 -0.0901 -0.2594  0.3298
29891W        W46075   9.362  18.774  10.713  0.4656  0.0284  0.3182
29892W        W46076   2.695   9.545   2.008  0.1691  0.1331 -0.0636
29893W        W46077  14.368   9.465   2.842  0.0857 -0.1587 -0.1231
29894W        W46078  17.727   2.034   2.614  0.3299 -0.1283 -0.2055
29895W        W46079  17.147   4.359   4.409 -0.1304  0.0300 -0.1661
29896W        W46080  16.184   0.305  14.524 -0.0366 -0.0009 -0.0018
29897W        W46081  18.486   7.980   1.128 -0.0765  0.0322 -0.1721
29898W        W46082  18.404   0.302   5.452  0.0350 -0.0166  0.1066
29899W        W46083   3.950   5.770   3.278  0.0572 -0.0445 -0.0589
29900W        W46084  12.944  12.091   2.426 -0.0214 -0.3690  0.1447
29901W        W46085  11.102   4.541   2.451 -0.0848 -0.0041 -0.3055
29902W        W46086  12.913   7.691  14.372  0.1704  0.1923 -0.5219
29903W        W46087   1.474  16.546   3.772 -0.1594  0.0091 -0.2007
29904W        W46088   1.385   6.098   0.463  0.1112  0.1773 -0.2983
29905W        W46089  16.933  18.994   4.479 -0.0394  0.2508 -0.4721
29906W        W46090   3.659   5.937  10.964 -0.1902 -0.2404  0.0271
29907W        W46091  10.384   6.155   0.552 -0.0131  0.0326  0.0376
29908W        W46092  13.887  12.453   4.509 -0.0499  0.2107 -0.2770
29909W        W46093   9.155   8.421   0.002  0.0824  0.0295  0.1437
29910W        W46094  14.190   4.182  10.940  0.0431  0.1430  0.0726
29911W        W46095   0.860   2.858   4.790 -0.1270  0.1778 -0.0650
29912W        W46096  15.112   8.085  10.879 -0.1065  0.2602 -0.0832
29913W        W46097   7.910   2.354  11.387 -0.0753 -0.2460 -0.1846
29914W        W46098  12.944   5.085  13.779  0.0029 -0.1277 -0.1734
29915W        W46099  10.455   4.444  11.384 -0.1436  0.0466  0.1684
29916W        W46100  14.817   1.118   2.852 -0.5462 -0.2694  0.0737
29917W        W46101  15.267  17.487  10.928 -0.1280  0.1009 -0.1279
29918W        W46102   4.347   1.464  14.000 -0.1801  0.0541 -0.1676
29919W        W46103   6.639   1.118  12.628  0.0510  0.0314 -0.0556
29920W        W46104  17.227   3.410  14.512 -0.0744  0.0681  0.1342
29921W        W46105   5.458  15.774  15.304  0.0683 -0.0269 -0.3419
29922W        W46106   4.112   9.369  14.635 -0.0609 -0.2570 -0.0864
29923W        W46107  10.239  13.065   0.481  0.0161  0.1198 -0.2395
29924W        W46108   4.607   1.955  11.362 -0.3356  0.1527 -0.1850
29925W        W46109   2.732  11.270   3.258  0.1382 -0.1779 -0.0436
29926W        W46110   2.017  10.466   3.294 -0.1772  0.3876 -0.1226
29927W        W46111  13.487   2.317   0.685  0.2323 -0.1736 -0.0471
29928W        W46112  10.916  14.156  14.170 -0.1535 -0.1892  0.1074
29929W        W46113   2.327   8.855   1.123 -0.1549 -0.0757  0.0494
29930W        W46114  18.026  13.833   0.813  0.0217  0.0351  0.0319
29931W        W46115  15.770  11.554  11.255 -0.2615 -0.0089 -0.2456
29932W        W46116   8.167   0.639   4.030  0.1132 -0.3027 -0.0078
29933W        W46117  13.625   1.165  14.310 -0.1086  0.2758 -0.1542
29934W        W46118   1.174  16.560   1.704 -0.2238  0.1697  0.1841
29935W        W46119  17.417  17.862  11.768 -0.1527 -0.0519  0.2346
29936W        W46120  16.816  15.817  14.727 -0.4169  0.1249 -0.0817
29937W        W46121  15.013   7.016  12.743 -0.1560  0.0914  0.0379
29938W        W46122   1.297   6.149  14.609  0.0480 -0.0681  0.0073
29939W        W46123  18.449  16.346   4.604 -0.2102  0.2322  0.0411
29940W        W46124  13.085  15.644  12.897 -0.1076  0.1589  0.3426
29941W        W46125  10.085   3.604  13.003  0.1002  0.3181 -0.0964
29942W        W46126  18.558  11.044  13.374  0.0953  0.2021  0.2545
29943W        W46127   9.596  11.644   2.964  0.2053  0.1152  0.2720
29944W        W46128  15.543   0.524  13.819 -0.0305 -0.0320  0.0621
29945W        W46129   8.718  17.827  15.140  0.0736  0.4444 -0.4360
29946W        W46130   5.297  16.634  11.330  0.1872  0.0015  0.2652
29947W        W46131   8.652  13.633  13.739 -0.1447 -0.0468 -0.0356
29948W        W46132  17.968  18.215   0.799 -0.2218 -0.1487  0.0826
29949W        W46133   2.779  10.214   4.557  0.0998 -0.0546  0.0350
29950W        W46134   1.732  13.848   5.591  0.2414  0.0699 -0.0881
29951W        W46135  13.595   5.811  11.783  0.1016  0.1279  0.0990
29952W        W46136   0.575   0.642   2.760 -0.3953 -0.0865  0.0588
29953W        W46137  17.311  10.873  11.794 -0.0019  0.1679  0.0883
29954W        W46138   2.791   8.010  10.619  0.3713  0.0157  0.0036
29955W        W46139  16.961  15.693   4.410  0.0075  0.1337 -0.0792
29956W        W46140  15.474  15.010   2.394 -0.1500 -0.1726 -0.1212
29957W        W46141   8.303  18.584   0.247  0.1321 -0.1803 -0.4120
29958W        W46142  18.851  11.464  13.309 -0.0956 -0.0187 -0.2875
29959W        W46143   8.878  10.049   4.587  0.0552 -0.2386 -0.1950
29960W        W46144  13.306  12.645   9.468  0.1311 -0.0629  0.1721
29961W        W46145   1.111  16.472  12.024 -0.0814  0.0327  0.1597
29962W        W46146   6.149  15.682  12.190 -0.0519 -0.0830  0.3415
29963W        W46147   5.669   8.476  11.500  0.1934 -0.0435 -0.0360
29964W        W46148   9.863   8.933   2.983 -0.2026  0.0057 -0.0577
29965W        W46149   5.952  17.862  15.046  0.4841  0.3765 -0.2163
29966W        W46150   7.975   0.594  12.535 -0.0720 -0.0555 -0.1475
29967W        W46151   6.416   7.974   1.959 -0.1999  0.2034  0.0741
29968W        W46152  11.755   4.556   3.887  0.0106  0.0754  0.3453
29969W        W46153   8.035  11.404  14.426  0.0914  0.0308  0.2529
29970W        W46154  15.095   1.933   2.499  0.1211 -0.1344 -0.2931
29971W        W46155  13.772  16.331  13.490 -0.0929 -0.0020  0.2816
29972W        W46156   2.525   9.570  11.338  0.0618 -0.0455  0.2518
29973W        W46157  15.331   9.421   1.180  0.0418  0.2857  0.0253
29974W        W46158  17.516  16.918  11.385  0.2176 -0.0195  0.0339
29975W        W46159   0.385   0.900   3.227  0.1239 -0.0701 -0.2816
29976W        W46160  13.175   2.801   3.421 -0.1272 -0.3955 -0.1283
29977W        W46161  14.074   0.189   0.925  0.1679  0.1402 -0.0634
29978W        W46162  10.405  13.682   4.973 -0.3656  0.0537  0.1481
29979W        W46163  13.966  11.132   0.503 -0.0076  0.0283 -0.1587
29980W        W46164  18.626   7.353   0.977  0.0733  0.0193  0.0542
29981W        W46165  15.125   3.663   1.776  0.0979  0.1375 -0.1673
29982W        W46166  15.712  12.273  11.730  0.3567  0.1007 -0.3943
29983W        W46167   1.408   9.793   2.922 -0.2159 -0.3450  0.3429
29984W        W46168   3.692  18.587  14.666 -0.1212  0.0201 -0.1766
29985W        W46169  12.547  18.246  14.356  0.1252  0.0108 -0.2922
29986W        W46170   5.874  15.794  14.893  0.2419  0.1017  0.1431
29987W        W46171  10.544  14.624  12.141 -0.0069  0.0588  0.0321
29988W        W46172   8.342  13.073   1.753  0.1166 -0.0082  0.1078
29989W        W46173   3.583  16.217   2.039 -0.0322 -0.1343  0.1208
29990W        W46174  16.673  15.879   3.979 -0.1424  0.1983 -0.0428
29991W        W46175   2.077   9.017  13.265 -0.2837 -0.0019  0.0288
29992W        W46176   1.498   4.592  13.528 -0.0144 -0.2912 -0.1226
29993W        W46177  12.544  15.803  11.594 -0.2169 -0.0104  0.0795
29994W        W46178  10.512  14.397   5.422 -0.1903  0.1527 -0.3802
29995W        W46179  18.743   6.000  11.161 -0.0489 -0.1240  0.0760
29996W        W46180   7.267   4.665  13.075 -0.0286 -0.1530 -0.1377
29997W        W46181  11.408  13.885  10.452 -0.1221 -0.1191  0.0607
29998W        W46182  16.571   5.132  12.438  0.0486  0.2143  0.1405
29999W        W46183   2.279  13.026  13.839 -0.0259  0.1719  0.2199
30000W        W46184   0.958  10.091  14.219 -0.0088  0.2813  0.3707
30001W        W46185   0.113  17.510   3.580 -0.5088  0.0319  0.0349
30002W        W46186  10.490   9.421  12.525  0.2642  0.2494  0.0424
30003W        W46187   7.029   4.195   3.919 -0.1562 -0.0088 -0.1961
30004W        W46188   4.788   8.691   2.746  0.0209  0.0398  0.1885
30005W        W46189  12.380  12.924   4.448  0.2715 -0.0363 -0.1832
30006W        W46190  18.377   9.656  12.937  0.1547  0.0495 -0.2312
30007W        W46191   5.252  16.218  12.128  0.0335  0.3270  0.1261
30008W        W46192  11.715  12.509  11.119  0.0968  0.1642  0.2950
30009W        W46193  11.013   5.610   3.928  0.0833  0.0332  0.1394
30010W        W46194   9.808   6.349   5.603 -0.0260 -0.4296  0.0181
30011W        W46195   5.277   0.524  10.545  0.1165  0.3376 -0.0546
30012W        W46196   6.937  13.317  12.344  0.0323  0.0825  0.0760
30013W        W46197  13.044  11.900   4.998 -0.0302  0.0636 -0.2239
30014W        W46198  17.854   2.143  12.184  0.1487  0.1753  0.1028
30015W        W46199   9.622  12.739  13.789 -0.0332  0.1796 -0.1204
30016W        W46200   3.763  10.144  10.681 -0.0482 -0.1868  0.0925
30017W        W46201   2.748  18.384   1.966  0.2136 -0.0254 -0.1857
30018W        W46202  10.644  13.279  15.174 -0.1451 -0.1120  0.2751
30019W        W46203  17.287  12.620  13.200  0.1472 -0.0764  0.1115
30020W        W46204  16.966  14.657  12.737 -0.1935 -0.0647  0.0440
30021W        W46205  17.473  15.089  14.797  0.0193  0.0784  0.0114
30022W        W46206   4.193   2.195  13.076 -0.1262  0.0865  0.1540
30023W        W46207  17.601   7.691  14.761 -0.0958  0.2227 -0.0600
30024W        W46208  17.404  11.250   0.766 -0.3123  0.1030 -0.0067
30025W        W46209   1.605   5.703   4.342  0.1816 -0.0379  0.1703
30026W        W46210   8.910  10.944  13.103  0.2237  0.0134  0.0461
30027W        W46211   2.079  11.088  11.804 -0.0124  0.3011 -0.1562
30028W        W46212   6.574   4.750   2.527 -0.0599 -0.2586  0.1830
30029W        W46213   9.135   5.237   5.021  0.2830  0.2458 -0.0242
30030W        W46214   5.733   3.785  13.866 -0.0013 -0.1833  0.4602
30031W        W46215  11.741  18.040  14.972 -0.2626  0.0478  0.3129
30032W        W46216   3.035   9.267  13.707 -0.0428  0.0628 -0.0541
30033W        W46217   3.511   6.686  12.388 -0.1309  0.2508  0.1224
30034W        W46218  13.521  13.972  13.592 -0.1253 -0.1924  0.3442
30035W        W46219   5.048   6.856   3.353  0.0353  0.3596  0.1029
30036W        W46220   3.319  17.409   2.766 -0.1864  0.0976 -0.1123
30037W        W46221  10.598   0.414   2.117  0.0432  0.2527  0.1553
30038W        W46222   5.434   1.050  10.552  0.2224 -0.1263 -0.0606
30039W        W46223   1.450  13.231  11.029 -0.0842 -0.1153 -0.1388
30040W        W46224   0.002  14.789  14.626  0.1248 -0.1075 -0.1323
30041W        W46225   0.369  14.969  10.925  0.0514  0.3074  0.1370
30042W        W46226  16.599  13.953   4.447 -0.0812  0.4042 -0.3211
30043W        W46227   2.229   1.813   1.644 -0.2202 -0.2588  0.1195
30044W        W46228   4.698   0.497   2.266 -0.0907 -0.0595  0.0320
30045W        W46229   2.208   6.315   3.486  0.3263 -0.4714 -0.0815
30046W        W46230   8.705  14.686   9.482 -0.3558 -0.0764  0.0217
30047W        W46231  18.501  14.280  13.384  0.1173 -0.0223 -0.1593
30048W        W46232   6.093  17.300  10.720  0.2382  0.0335 -0.1301
30049W        W46233  17.570  12.598  12.793 -0.0848  0.1025  0.0503
30050W        W46234   0.878   9.086   1.791 -0.2478  0.1896 -0.4998
30051W        W46235  12.827   5.542   2.305  0.1132 -0.0135 -0.0369
30052W        W46236   1.526  12.670   2.863  0.1521 -0.0365 -0.1795
30053W        W46237  18.929   9.654  13.990 -0.0566 -0.0282  0.0599
30054W        W46238  17.781  17.759   0.891  0.2741 -0.3671  0.2277
30055W        W46239   7.229   2.240  12.455 -0.3194 -0.1012  0.1180
30056W        W46240   6.351   5.450  13.076  0.0062  0.2673  0.0567
30057W        W46241   9.348   2.490  12.266  0.0337  0.2899 -0.3149
30058W        W46242  18.342   6.734  15.045  0.0103  0.1657  0.1926
30059W        W46243  10.628  13.643   1.186  0.1518  0.1057 -0.2643
30060W        W46244   4.194  15.334  11.152 -0.1892 -0.0905  0.0264
30061W        W46245  16.547  16.615  14.286 -0.1099  0.0654  0.0626
30062W        W46246   2.570  14.642   4.182  0.1695 -0.2143  0.1988
30063W        W46247   8.335  18.870   4.042  0.2834  0.0916  0.2094
30064W        W46248   4.862  10.953   5.506  0.2821 -0.3603 -0.3503
30065W        W46249   1.373   6.810   3.341  0.2626 -0.2112  0.2220
30066W        W46250   8.614  18.899  10.153 -0.1009 -0.2504  0.0402
30067W        W46251  10.450  14.967   2.205 -0.2375 -0.0445  0.3193
30068W        W46252  17.777  15.815  12.592 -0.1603 -0.1504 -0.0689
30069W        W46253   7.021  12.037   2.432 -0.1475 -0.2303 -0.0225
30070W        W46254   2.327   4.939   4.022 -0.1240 -0.1010 -0.0568
30071W        W46255   9.027  11.732   4.390  0.1762  0.1912  0.0443
30072W        W46256   8.939   0.779   2.151  0.1027 -0.1949  0.1174
30073W        W46257   0.589  13.401   0.473 -0.0689 -0.1600 -0.2966
30074W        W46258   5.669  14.266  10.648  0.0642  0.0179  0.1593
30075W        W46259   0.354   4.143  11.323 -0.2827  0.0855 -0.2343
30076W        W46260   8.399  11.067  14.266  0.0662 -0.0080  0.0472
30077W        W46261  18.134   2.782   2.953  0.2224  0.1926  0.0502
30078W        W46262   7.173  12.116  11.057  0.2560  0.0886  0.4320
30079W        W46263   3.701  12.813   0.007  0.1891  0.2305 -0.1915
30080W        W46264  16.734   9.377  13.738 -0.0018  0.1830 -0.1153
30081W        W46265  11.083  13.520   5.437 -0.1298 -0.0801  0.0704
30082W        W46266  14.477   5.168  13.780 -0.1219  0.0709  0.4601
30083W        W46267  12.710  12.832   3.060  0.0212 -0.2897  0.1410
30084W        W46268   0.161  11.342  11.464  0.1839 -0.0515  0.1977
30085W        W46269   9.321   2.967   0.235  0.0361  0.1562  0.5517
30086W        W46270   0.822  12.371   4.631  0.2857 -0.0247 -0.1797
30087W        W46271  15.164  15.385   3.276  0.1902 -0.0666 -0.2609
30088W        W46272   8.949  11.293   0.091 -0.0720  0.5019 -0.0275
30089W        W46273  15.185  12.837   5.183 -0.1291  0.2546 -0.3263
30090W        W46274  13.223   7.156  13.104  0.4062 -0.1693 -0.2892
30091W        W46275   1.246   2.122   3.394 -0.0253 -0.0320 -0.0599
30092W        W46276  16.018  16.887   2.102 -0.0600 -0.0621 -0.0033
30093W        W46277  12.047   7.283   3.982  0.1345  0.1084  0.1825
30094W        W46278   1.563   7.505   4.949  0.3054  0.1281  0.3176
30095W        W46279   3.099  10.455   2.043 -0.1037  0.0866  0.2035
30096W        W46280  14.876   8.049  13.796 -0.0520 -0.1365  0.0286
30097W        W46281  13.050  10.136  10.499 -0.2663 -0.0515  0.2114
30098W        W46282   0.900  12.920   4.602  0.0231  0.0640 -0.0382
30099W        W46283  11.992  15.919   2.721  0.2970 -0.1171  0.0712
30100W        W46284  17.132  15.646  13.351 -0.0272  0.1981  0.1222
30101W        W46285  16.440   4.086  12.648 -0.0378  0.1523 -0.3346
30102W        W46286  17.259   7.635   0.376 -0.1738 -0.0173 -0.0656
30103W        W46287   0.878   6.809   4.226  0.1195 -0.1907 -0.2619
30104W        W46288  10.014  17.755   3.774  0.2437  0.2400 -0.2316
30105W        W46289  14.011  11.778   1.356 -0.0918  0.0313 -0.0357
30106W        W46290   2.938   4.867  13.722  0.3298  0.1782 -0.1908
30107W        W46291   0.502  13.912  14.255 -0.2826  0.0989  0.1218
30108W        W46292   5.191  18.831  11.904 -0.1590  0.1440 -0.0173
30109W        W46293   4.744  11.532  12.021 -0.0529 -0.0463  0.3456
30110W        W46294   7.833   2.213  12.277  0.0631  0.0125  0.0332
30111W        W46295  18.708  14.453  12.404 -0.1994 -0.1029  0.0955
30112W        W46296   8.964   4.730   2.839  0.3163  0.1174  0.0159
30113W        W46297   7.981  17.398   5.671  0.3439  0.1067  0.0319
30114W        W46298   9.200   1.861   1.341  0.2313  0.1429  0.1315
30115W        W46299   2.762   1.345  10.392  0.1490 -0.1647 -0.0061
30116W        W46300  13.310  10.366   0.479  0.0699  0.3281  0.0822
30117W        W46301  10.733   8.634  11.184 -0.0439  0.0668  0.1599
30118W        W46302  10.408  11.099   3.109  0.1989  0.2675  0.2690
30119W        W46303  15.695   7.183  14.846  0.3286  0.0692 -0.1176
30120W        W46304   7.164   0.920  12.740 -0.1924  0.1161 -0.0856
30121W        W46305   0.955   7.606   3.796  0.0152  0.1811 -0.2696
30122W        W46306  16.639  11.897   2.958  0.0164 -0.3226  0.2878
30123W        W46307  17.364   0.002  14.422 -0.0124  0.1115  0.0903
30124W        W46308  12.463   9.440   5.527  0.4372  0.0226  0.1934
30125W        W46309   8.065   6.263   3.372 -0.2113 -0.1556 -0.0048
30126W        W46310  17.941  17.627   2.294 -0.1830 -0.0959 -0.2451
30127W        W46311  14.034  12.321  15.182  0.1316  0.2166  0.2980
30128W        W46312   4.440   8.389   0.832 -0.0419  0.0801 -0.0619
30129W        W46313   4.502  15.251  15.147  0.0015  0.5729  0.0437
30130W        W46314  17.679  11.078   4.048  0.0418  0.2830  0.1109
30131W        W46315   0.834   0.650  13.086  0.2515  0.0275  0.2064
30132W        W46316   8.558  14.322  13.128 -0.2043 -0.4537 -0.0467
30133W        W46317  14.381   5.647   4.204 -0.5425  0.0815 -0.1660
30134W        W46318  13.660   1.184   1.460  0.4172 -0.2120 -0.0352
30135W        W46319   9.080   0.158  11.052  0.2671 -0.1210 -0.1880
30136W        W46320   0.951   0.739   4.598 -0.0936 -0.1175 -0.2366
30137W        W46321   0.414  18.331  11.062  0.0459 -0.1219  0.0176
30138W        W46322  10.171   2.938   1.129 -0.0285  0.1509  0.1004
30139W        W46323  17.246   1.477  11.157 -0.0772 -0.1532  0.0868
30140W        W46324  13.735  16.390  11.406  0.1370 -0.1674 -0.1137
30141W        W46325  10.735   5.685  10.177 -0.1273  0.2134  0.2427
30142W        W46326   7.895  14.346   0.281 -0.3283 -0.0514 -0.1569
30143W        W46327   9.686   6.913   4.316  0.1004  0.1231 -0.1739
30144W        W46328   9.274  14.930  12.640  0.0886 -0.1105 -0.0441
30145W        W46329  13.716   1.335   4.525  0.1432 -0.1337  0.1097
30146W        W46330  16.965   1.719   2.911 -0.0755 -0.0322  0.1409
30147W        W46331   3.077  12.768  14.337 -0.2810 -0.1863 -0.0550
30148W        W46332   9.350  17.901   2.076 -0.0687  0.1771 -0.2005
30149W        W46333   0.018  12.257   4.852 -0.2709  0.1594 -0.2686
30150W        W46334  13.692   7.477   0.928  0.0711 -0.1255 -0.2392
30151W        W46335  11.387  10.520   9.517 -0.1362 -0.3008 -0.1963
30152W        W46336  11.277  16.408   4.959 -0.0723 -0.1275  0.0145
30153W        W46337   9.596  10.729   4.123 -0.1033 -0.2282 -0.3511
30154W        W46338   6.417   4.021   1.054 -0.0633 -0.0601 -0.1607
30155W        W46339  18.079  10.775   3.943 -0.2365 -0.0963 -0.1921
30156W        W46340  14.857   7.756  12.411  0.0967 -0.0895 -0.0206
30157W        W46341   4.284  18.397  11.868  0.2994  0.0891 -0.0551
30158W        W46342  17.442   8.698  11.086 -0.4745  0.0625  0.2331
30159W        W46343   4.765  15.181   5.001 -0.0100  0.0254  0.2003
30160W        W46344  10.838   0.884   5.093  0.0618 -0.3670 -0.0206
30161W        W46345  13.379  13.277   1.866 -0.0598 -0.3185  0.2931
30162W        W46346   3.544  10.814  12.170  0.0453  0.0795  0.1215
30163W        W46347  11.944   5.792  12.342 -0.1400 -0.0263  0.1939
30164W        W46348  18.403   6.852  12.892  0.0965 -0.3155 -0.0131
30165W        W46349   9.989   9.993  13.311 -0.3235 -0.5759  0.1520
30166W        W46350  17.728  15.712   1.137 -0.2777  0.1751 -0.0040
30167W        W46351  10.870   3.520  12.383  0.0196 -0.1822  0.1337
30168W        W46352  13.777  11.398  13.124 -0.0740 -0.1193  0.0418
30169W        W46353  11.354   3.619   2.040  0.1218 -0.0108 -0.0938
30170W        W46354  17.456   8.558  13.962 -0.0557 -0.1259  0.3033
30171W        W46355   8.585   7.893   4.733  0.0875  0.2983 -0.3453
30172W        W46356  18.638   3.309   2.431 -0.4115 -0.5053  0.0236
30173W        W46357  10.155  12.606   0.307  0.0545 -0.0191 -0.0969
30174W        W46358   6.141   8.857   2.045 -0.2511  0.0102 -0.1158
30175W        W46359  18.750   1.954  13.882  0.0582 -0.3512 -0.0273
30176W        W46360   0.297  12.531  14.269 -0.0531  0.0353 -0.0411
30177W        W46361  10.182   9.447  12.103 -0.2148  0.0871  0.0539
30178W        W46362   5.512   2.374   1.591  0.2160  0.1281 -0.0651
30179W        W46363   5.388  12.082   3.675 -0.3868 -0.1727  0.2295
30180W        W46364   6.790  15.023   4.104  0.0104  0.0116  0.2453
30181W        W46365   1.008   8.498   3.218  0.1740  0.0111 -0.0710
30182W        W46366   2.329  12.833  10.597  0.3534 -0.0128  0.0514
30183W        W46367  15.004  10.597   3.906 -0.0491 -0.0969  0.0565
30184W        W46368   1.831  12.969   1.061  0.0224  0.0081  0.0098
30185W        W46369   3.070   4.319   0.625  0.0612 -0.0124 -0.3989
30186W        W46370   0.811   8.160  11.059 -0.0386  0.1348 -0.0433
30187W        W46371   8.331  12.713   0.167  0.1957  0.2635 -0.0344
30188W        W46372   1.345   0.917  11.296  0.2115 -0.5815 -0.0998
30189W        W46373  16.885  11.042   1.453  0.3613 -0.4016  0.0055
30190W        W46374  10.959   5.552  14.976 -0.1552 -0.1940 -0.4015
30191W        W46375   2.330   5.822   1.162  0.1759 -0.0623 -0.3389
30192W        W46376   1.109  16.699   0.600  0.2964 -0.0489  0.2544
30193W        W46377   6.857   3.247   2.710  0.1885 -0.1979  0.0465
30194W        W46378  15.789  16.191   1.077  0.0390  0.2253  0.0451
30195W        W46379  15.398   2.803  12.247  0.1202  0.0624  0.0520
30196W        W46380   6.784   8.040   0.540  0.2188  0.0042  0.3347
30197W        W46381  13.864   1.522   3.257 -0.2340 -0.0226  0.0715
30198W        W46382   3.814  13.429   3.936  0.1132  0.0741 -0.0263
30199W        W46383   7.225  10.561  13.495 -0.2063 -0.1158  0.2727
30200W        W46384   7.380   8.189   3.496 -0.1101  0.1062 -0.2655
30201W        W46385  17.724  10.691  12.599 -0.0636 -0.0694  0.0152
30202W        W46386   7.308   7.056  10.428 -0.3122  0.0771 -0.2417
30203W        W46387  13.978  16.456  12.528 -0.3885 -0.3219  0.0014
30204W        W46388  10.987   3.909  13.107  0.1670  0.5348  0.1225
30205W        W46389   2.130  18.725  11.438  0.2999 -0.1593 -0.0639
30206W        W46390   9.505  16.146  11.854 -0.1977 -0.2543 -0.0614
30207W        W46391   9.401  11.955  13.775 -0.0386 -0.0233  0.1391
30208W        W46392  17.420  12.525  14.761 -0.0764 -0.0955 -0.1564
30209W        W46393   3.445  13.794   0.165 -0.3241 -0.0050 -0.2755
30210W        W46394  15.509   3.577  14.982 -0.1070  0.0647  0.1128
30211W        W46395  10.808   4.362  13.078 -0.4327 -0.1133  0.1183
30212W        W46396  15.896  12.279  15.191  0.0189 -0.3779 -0.3477
30213W        W46397   5.326   4.399  12.699 -0.0602  0.0360  0.0535
30214W        W46398   8.615   8.750   2.740 -0.0174  0.0866 -0.1920
30215W        W46399   1.494   1.103   1.472 -0.1262 -0.1715 -0.2306
30216W        W46400   2.649  17.043   3.329 -0.1623 -0.0760  0.1452
30217W        W46401   8.945   3.145  13.560  0.1405 -0.0936 -0.3708
30218W        W46402  15.838   8.435  14.690 -0.3331  0.0578 -0.0630
30219W        W46403   6.840  15.258   3.585 -0.0504 -0.1690 -0.0352
30220W        W46404  16.557   7.385   5.138 -0.1743  0.1183  0.0258
30221W        W46405   6.863  18.108   1.238 -0.0527 -0.1886  0.0128
30222W        W46406   8.851   1.655  12.432 -0.1494  0.2334  0.0211
30223W        W46407   6.333   5.820   4.209  0.0157  0.0594 -0.2735
30224W        W46408  14.112  16.037   0.328  0.1408 -0.4914  0.1114
30225W        W46409  16.673  16.567   5.312 -0.4225 -0.1343  0.1709
30226W        W46410   1.591  13.777   3.993 -0.0331 -0.0467  0.0941
30227W        W46411  16.816  18.041   9.619  0.3721 -0.0495  0.2126
30228W        W46412   2.449  13.885   4.855  0.0985  0.1632 -0.0268
30229W        W46413  12.591  15.077   3.226  0.1334 -0.0859 -0.0396
30230W        W46414   9.087   5.929   2.673  0.2201 -0.1957 -0.0280
30231W        W46415   2.172  13.266  14.263  0.2318  0.3001  0.1730
30232W        W46416  13.815  17.100  15.219 -0.0781 -0.3043 -0.0163
30233W        W46417   9.179  13.456   1.073 -0.1381  0.1733  0.1347
30234W        W46418   8.402  16.672  11.507 -0.3407 -0.1023  0.2751
30235W        W46419  14.322   7.479  13.142 -0.1610  0.0424  0.0154
30236W        W46420   6.381   9.551   0.840 -0.1306  0.2533  0.0653
30237W        W46421   7.886  15.280   0.345 -0.1604 -0.1518 -0.0472
30238W        W46422  18.645   0.284  11.278 -0.2216 -0.1131  0.1349
30239W        W46423   2.968  17.082   5.469 -0.0524 -0.2788 -0.3667
30240W        W46424  13.072   9.214  14.780  0.2313 -0.0414 -0.2088
30241W        W46425   0.382   6.946  11.525 -0.5606 -0.0911 -0.0831
30242W        W46426   0.435   7.776   0.974 -0.0784  0.1823 -0.1062
30243W        W46427   2.530   4.678  13.254 -0.1879  0.0228 -0.0534
30244W        W46428  13.183  12.341   5.135  0.1441 -0.0949  0.1002
30245W        W46429   5.984  17.816  13.785  0.0693 -0.3079 -0.1610
30246W        W46430   9.601  11.006   2.599 -0.2084 -0.0303  0.0885
30247W        W46431   3.256  15.571  15.378 -0.1771  0.2780  0.0359
30248W        W46432  12.928  16.014  10.871  0.0437  0.0321  0.1851
30249W        W46433   6.573  13.028   1.504 -0.0726  0.1784  0.0316
30250W        W46434  10.658  11.614   4.147  0.0756  0.3132  0.1153
30251W        W46435  18.323   7.257  14.234  0.0358 -0.0264 -0.2542
30252W        W46436  15.803   1.053  12.964  0.3159  0.0378  0.0509
30253W        W46437   8.606   3.420   4.715  0.2946 -0.1794  0.2922
30254W        W46438   3.589  12.827  12.897  0.0441  0.0150 -0.4314
30255W        W46439  10.630   1.257   2.495  0.1890  0.0929 -0.0939
30256W        W46440  12.590   2.384  14.869  0.4205 -0.0444 -0.1593
30257W        W46441  14.201  18.452  12.329 -0.2815  0.1369  0.3070
30258W        W46442   5.042   6.024  14.810 -0.0606 -0.0416 -0.0207
30259W        W46443  16.987   3.976   2.115 -0.2476  0.2556  0.0303
30260W        W46444   8.100   9.489   3.728  0.1083  0.2150 -0.2765
30261W        W46445  15.731   0.675   0.807 -0.0674 -0.1782 -0.2109
30262W        W46446  13.380   8.751  14.683  0.1771 -0.0844  0.2699
30263W        W46447  12.804  14.563   1.992  0.2627  0.1386  0.1362
30264W        W46448   2.761   2.125   0.716  0.0146  0.1551 -0.0024
30265W        W46449   4.910  11.476   3.358 -0.2704 -0.1566  0.0131
30266W        W46450   4.071   9.798   5.554 -0.2848 -0.0051 -0.1895
30267W        W46451   8.134  18.233   0.575  0.0527  0.0523 -0.2618
30268W        W46452   3.110   2.276  13.907  0.2153  0.2659 -0.0782
30269W        W46453  14.618  16.594   3.321  0.3361  0.0891  0.3611
30270W        W46454   5.578  16.986   4.672  0.0726  0.1547  0.2007
30271W        W46455  15.511  16.390  11.546  0.1135 -0.1067  0.1025
30272W        W46456  11.124   1.509  14.920 -0.0105  0.2641  0.0002
30273W        W46457   2.209  10.725   0.834 -0.2153 -0.0673  0.0183
30274W        W46458   0.869   2.184   3.706 -0.2152 -0.0597  0.1787
30275W        W46459  16.765   3.402   3.690  0.1538 -0.1637 -0.1898
30276W        W46460   9.552   2.426  11.721  0.1381  0.1325  0.2692
30277W        W46461  15.738   8.092  10.961  0.1363 -0.1250  0.1550
30278W        W46462   8.228  16.263  11.805 -0.0022  0.0569  0.2130
30279W        W46463   7.472  14.253   4.534  0.0312 -0.2622  0.0599
30280W        W46464   4.747  11.734  11.062 -0.1580 -0.0212  0.0493
30281W        W46465  14.355   9.529  12.204 -0.4398 -0.2536 -0.1816
30282W        W46466  16.119  13.691   5.696 -0.0069  0.4394 -0.0470
30283W        W46467   5.296  15.045   3.715 -0.2218  0.0628  0.1917
30284W        W46468  17.453   1.151   4.686  0.0508 -0.2059  0.0308
30285W        W46469   4.935  13.553   3.021  0.0476 -0.2361 -0.3643
30286W        W46470   9.670   7.308  12.364 -0.0901 -0.1901  0.0697
30287W        W46471  16.108  10.150  12.036 -0.4269  0.0863 -0.0834
30288W        W46472  14.224  17.462   1.008  0.0081 -0.2141  0.1199
30289W        W46473  13.489   5.250   4.813  0.1416 -0.0436 -0.1259
30290W        W46474  17.373   9.146   0.622 -0.1519 -0.3234  0.0874
30291W        W46475   2.510  12.394  11.504 -0.0126 -0.3229  0.0493
30292W        W46476   9.513  17.721   1.619  0.1023 -0.1423  0.2633
30293W        W46477  11.026  16.416   4.095  0.0684 -0.0264  0.1533
30294W        W46478   6.406  16.959   2.378  0.0980 -0.1034  0.0363
30295W        W46479  10.110   3.809   3.065 -0.0394  0.1817  0.1510
30296W        W46480  13.562  11.548   1.256 -0.0152  0.0568 -0.1374
30297W        W46481   1.932   4.061   4.647  0.0931 -0.2664  0.0913
30298W        W46482  11.266   0.576   1.321  0.0570  0.1397 -0.1019
30299W        W46483  16.290  10.183  13.215  0.0400 -0.2115  0.1263
30300W        W46484   1.110   1.775  12.158 -0.0453  0.3340 -0.0223
30301W        W46485   0.010  18.843  12.084  0.2279 -0.3002  0.3547
30302W        W46486  11.477   5.944   3.788 -0.2288  0.1534  0.0509
30303W        W46487   1.956  16.893  13.129  0.0293 -0.3730  0.2567
30304W        W46488  15.245   6.397   1.565  0.0925  0.1204 -0.1583
30305W        W46489  13.870   5.161   1.570 -0.2032  0.2018  0.0900
30306W        W46490  11.265  18.420  12.113 -0.2930  0.2203  0.0268
30307W        W46491   1.223  12.503  13.210 -0.1613 -0.1309  0.3535
30308W        W46492   2.466  14.992  10.957  0.4722 -0.0448  0.2943
30309W        W46493   3.202   7.306   0.925 -0.0464  0.1901  0.1636
30310W        W46494   6.831   1.147   5.042  0.0114 -0.0486 -0.1736
30311W        W46495  13.026  12.821  13.353  0.0957 -0.0081  0.1836
30312W        W46496  16.151  11.469  13.969  0.0154  0.4298  0.0092
30313W        W46497  12.792   6.323  12.374  0.1827 -0.1150 -0.0132
30314W        W46498  14.547   7.362  10.734 -0.2943  0.1089 -0.0567
30315W        W46499   8.652   7.037  11.236  0.0721 -0.0216  0.0479
30316W        W46500   4.500  18.036   2.833  0.0820  0.1114  0.1805
30317W        W46501  15.426  18.605  15.055 -0.0075  0.0345 -0.3072
30318W        W46502   5.628  11.471   5.224 -0.2889 -0.0718  0.1373
30319W        W46503   5.231   3.301  13.392  0.0283  0.4389  0.1268
30320W        W46504   8.081  16.978  10.080  0.0804 -0.2364  0.1605
30321W        W46505  14.145  12.204   2.902  0.0125 -0.0904  0.0294
30322W        W46506   3.860  15.515   3.703  0.3001 -0.0583 -0.2625
30323W        W46507   5.064  14.505  11.847  0.1952  0.0708  0.3608
30324W        W46508  10.990   5.791   2.955  0.1874 -0.1937  0.0724
30325W        W46509  11.289   8.246   3.235 -0.2974  0.2103  0.0699
30326W        W46510  12.647  14.696  13.715 -0.1614 -0.0501 -0.0642
30327W        W46511   0.565  14.153  11.926  0.0906 -0.0151  0.0872
30328W        W46512   0.955  12.445   3.330 -0.0149 -0.0710 -0.1084
30329W        W46513  12.127   5.096   0.306  0.0422  0.2769  0.0119
30330W        W46514   1.649  17.802  11.707  0.0927  0.2346  0.1815
30331W        W46515   0.349   0.736  13.080 -0.3285 -0.1066 -0.1237
30332W        W46516   5.893  14.223   3.710 -0.2422  0.3609 -0.2534
30333W        W46517  17.350  10.823  12.338  0.1595 -0.0587 -0.0845
30334W        W46518   5.409   7.907   3.465  0.0974 -0.1300 -0.1494
30335W        W46519   5.068  10.206   2.187 -0.2673 -0.0968 -0.3266
30336W        W46520   6.812  12.643   2.001  0.0278  0.0989 -0.0618
30337W        W46521  18.918   0.571   4.781 -0.0525  0.2231 -0.0688
30338W        W46522   2.754   9.215  11.083  0.0663  0.0361 -0.2259
30339W        W46523   0.567  15.203  13.609 -0.2442  0.0093 -0.2241
30340W        W46524   8.565  13.690  10.751 -0.1543 -0.1159 -0.1704
30341W        W46525   6.182  15.787   2.441  0.2541 -0.2043  0.0021
30342W        W46526  18.721  18.490   5.700  0.1756 -0.1285 -0.0403
30343W        W46527  16.764   8.033  14.775  0.2900  0.2818  0.0690
30344W        W46528  15.962  18.542  10.722  0.0442 -0.2104 -0.1975
30345W        W46529  10.767   6.264   2.790  0.1129  0.1662 -0.1061
30346W        W46530   6.148   0.593  13.008 -0.0129  0.1572 -0.2446
30347W        W46531   6.799  10.536   3.208 -0.2907  0.0119  0.2732
30348W        W46532  17.903  14.554   3.457  0.2143 -0.2032 -0.2318
30349W        W46533  12.159  16.075  14.382 -0.1622  0.2489  0.0731
30350W        W46534  12.244   0.260   0.666  0.2403 -0.3457 -0.1498
30351W        W46535  16.571   7.197   2.567  0.3529  0.2848 -0.2668
30352W        W46536   7.845  17.389  10.216  0.1973 -0.0287 -0.1644
30353W        W46537   8.293   8.526  10.402 -0.1911  0.3043 -0.0631
30354W        W46538  15.521   0.885   0.356  0.3374  0.2937 -0.0279
30355W        W46539  18.316  12.647   1.439  0.0611  0.2729  0.0710
30356W        W46540  18.048  11.449   4.138  0.1235  0.0805 -0.1384
30357W        W46541  11.732  14.928  14.874  0.2737  0.0282  0.0738
30358W        W46542   1.296   5.754   0.016  0.0552  0.0027  0.2399
30359W        W46543   3.055  10.014  14.128  0.2407 -0.0175  0.2440
30360W        W46544   7.589   6.755   4.743  0.1821 -0.0837 -0.0434
30361W        W46545  14.647  12.685  14.785  0.0843 -0.4374 -0.1148
30362W        W46546   3.061  11.264   1.690 -0.0097  0.3148  0.1402
30363W        W46547  13.117   2.373  14.107 -0.0476 -0.2242 -0.1854
30364W        W46548  14.946   9.075   0.342 -0.1841  0.0411  0.1719
30365W        W46549   5.097   8.734   4.664 -0.1612 -0.2124 -0.1583
30366W        W46550  14.508   0.299   5.450 -0.1417  0.1283  0.0545
30367W        W46551  15.679   7.031   2.708  0.1097 -0.1605 -0.1192
30368W        W46552   8.321  16.346  12.420 -0.2315  0.1186 -0.0218
30369W        W46553   6.045   0.034  14.523 -0.1796 -0.3539  0.2419
30370W        W46554   9.851   4.382   1.394 -0.1552  0.3051  0.1300
30371W        W46555   1.218  10.767  13.251  0.0076 -0.1387 -0.4091
30372W        W46556   7.207   8.124  11.303 -0.0456  0.4745  0.2523
30373W        W46557  13.703   3.147  10.709 -0.0411 -0.1074  0.0389
30374W        W46558   8.002   2.018   0.024  0.2697 -0.1961 -0.2790
30375W        W46559   5.334   4.703  11.213  0.0553 -0.1789  0.1726
30376W        W46560  15.062   7.415  13.654 -0.1311  0.2031 -0.2287
30377W        W46561   0.821  17.901   2.414 -0.0820 -0.1411 -0.1203
30378W        W46562   2.712   0.723  11.560 -0.0314 -0.1180  0.2392
30379W        W46563   9.702   7.568  10.752  0.0437  0.0132 -0.0201
30380W        W46564   6.311   5.218   0.870 -0.1647 -0.4065 -0.3317
30381W        W46565  13.202  16.986   3.603  0.0902 -0.0316 -0.1106
30382W        W46566  14.587  17.793   4.519  0.0760 -0.1718 -0.0912
30383W        W46567   7.244  12.465   3.646  0.2061 -0.0557  0.1456
30384W        W46568  11.740  14.766   0.782  0.1489  0.1368 -0.1120
30385W        W46569   4.258  11.270   0.352  0.2154  0.1355  0.0196
30386W        W46570   5.209  12.662  15.219 -0.0674 -0.0090  0.1384
30387W        W46571  11.587   4.680  15.355 -0.4934 -0.0404 -0.0239
30388W        W46572  16.870   4.135  12.279 -0.3605  0.4805 -0.2551
30389W        W46573   1.757   6.109   5.776  0.1350 -0.0905 -0.1247
30390W        W46574  16.638   0.897  12.774 -0.1777  0.0160  0.0028
30391W        W46575   2.111   9.995  13.360  0.3020  0.1503  0.1563
30392W        W46576  11.804  11.107   1.669 -0.1535  0.3050 -0.3806
30393W        W46577   3.866   4.103  12.309 -0.1978  0.0035  0.1459
30394W        W46578   7.783   6.272   2.228 -0.0876  0.4438  0.3444
30395W        W46579   3.078  14.451   1.961  0.1126 -0.1336  0.2496
30396W        W46580  14.376  15.665   0.139  0.3911  0.0252 -0.0786
30397W        W46581  12.565   2.136   2.187  0.0271 -0.2507 -0.1411
30398W        W46582  10.982  15.388  14.465  0.0666  0.2781  0.2502
30399W        W46583   1.612   0.293   0.787 -0.0077  0.2296  0.1269
30400W        W46584   6.433   9.351   3.193  0.3144 -0.1170  0.1989
30401W        W46585  10.610   4.715   2.251 -0.1255 -0.2076 -0.2102
30402W        W46586   2.957  16.352   0.604  0.1121  0.2112 -0.1410
30403W        W46587   4.902  17.536   0.223 -0.1387 -0.0637  0.1286
30404W        W46588   0.158  14.940   5.757  0.0862 -0.2214 -0.1166
30405W        W46589  18.824   7.795   3.279 -0.0645 -0.1206  0.0909
30406W        W46590  11.434   1.227   1.399  0.0302  0.0620  0.0727
30407W        W46591  16.862  16.399   2.776 -0.1185 -0.1638  0.2636
30408W        W46592  14.602   1.765   2.543 -0.0405  0.2830  0.1553
30409W        W46593   4.409   3.813  12.067 -0.0449  0.0390 -0.1446
30410W        W46594   5.876  10.391   5.674 -0.2949  0.1911  0.0027
30411W        W46595   4.552   8.522  15.120  0.5425  0.0932  0.1735
30412W        W46596  10.176  15.301  14.534 -0.0150 -0.0767  0.1716
30413W        W46597  15.448   2.391   5.243  0.2015 -0.1352  0.1008
30414W        W46598   1.687   8.686   3.856 -0.0038 -0.2586 -0.0728
30415W        W46599  11.956   2.524   2.755  0.2160  0.2512  0.0117
30416W        W46600  11.142   5.027   3.998  0.2034 -0.1394  0.0131
30417W        W46601   2.333   2.271   0.120 -0.1632 -0.2965  0.0242
30418W        W46602   1.292   8.791  14.145  0.0360  0.2786  0.0225
30419W        W46603  16.132   2.993   0.371 -0.0423  0.0994 -0.0791
30420W        W46604  18.679   9.969  11.118  0.1023  0.1714 -0.0683
30421W        W46605  14.234  15.782   2.752 -0.2773  0.1324 -0.0718
30422W        W46606   2.692  14.594   1.568  0.3699  0.0097 -0.2534
30423W        W46607   0.813   5.631  11.759  0.2724 -0.0219  0.4492
30424W        W46608  18.720   5.512  14.826  0.1270 -0.0743 -0.0706
30425W        W46609   5.594  18.807   0.940 -0.0779  0.0080 -0.0488
30426W        W46610   8.562   8.998  12.882  0.1784  0.2701 -0.1613
30427W        W46611   5.863   8.087  14.753 -0.3878 -0.1375 -0.0346
30428W        W46612   7.911   1.873   4.481  0.1007  0.0079  0.2367
30429W        W46613  14.286   9.476   3.625  0.0067 -0.1968 -0.0790
30430W        W46614  16.633  18.454  11.664  0.3057 -0.2274  0.0885
30431W        W46615  11.629   0.274  11.568  0.1398  0.1751  0.2628
30432W        W46616   9.797  12.684  10.932  0.1906  0.0384 -0.3258
30433W        W46617   3.162  17.187   3.665 -0.3180 -0.3055  0.1172
30434W        W46618   4.635  10.661   3.016  0.1884 -0.1761  0.0879
30435W        W46619   9.727   9.287   4.768  0.0746 -0.0852  0.0982
30436W        W46620  14.858   5.550   3.314 -0.0490  0.3079 -0.0018
30437W        W46621   8.026   2.308  13.098 -0.0924  0.1406 -0.0413
30438W        W46622   7.688   3.524   3.790  0.1554  0.1702  0.1077
30439W        W46623  16.047   9.000  14.985  0.0221 -0.1175 -0.1108
30440W        W46624   0.448   4.846   0.973 -0.0037 -0.1091  0.0246
30441W        W46625   8.130  10.493   1.368 -0.1447 -0.0311 -0.1293
30442W        W46626   4.966   2.543  13.691  0.2038  0.2079 -0.3412
30443W        W46627  10.018  18.447   1.628 -0.1258  0.2797 -0.0957
30444W        W46628  16.263   3.110   1.689  0.0204 -0.1115 -0.0064
30445W        W46629   8.843  11.618  13.783 -0.2437  0.0511 -0.2136
30446W        W46630  18.784   4.804  10.840 -0.0536  0.0723 -0.0853
30447W        W46631  14.764   0.363   2.193  0.4100 -0.1490  0.0100
30448W        W46632   3.435   9.035  13.488  0.0523  0.0398 -0.0592
30449W        W46633   1.758  13.657  12.423  0.3429 -0.1551 -0.2498
30450W        W46634  10.716   3.921  10.668 -0.0607 -0.0615 -0.0690
30451W        W46635  17.141   6.767   0.455  0.1180  0.1509 -0.0655
30452W        W46636   0.399  18.324   0.920 -0.3299  0.0131 -0.0624
30453W        W46637   6.121   7.349  14.563 -0.1155 -0.0137  0.1845
30454W        W46638   9.710   5.528  14.495 -0.3433 -0.0415 -0.0614
30455W        W46639  10.186   8.699  12.863  0.3351 -0.1879  0.1955
30456W        W46640   6.963  15.228   2.639  0.0928 -0.1877  0.1262
30457W        W46641   1.586  11.324   4.460  0.1742  0.0648  0.0082
30458W        W46642   2.684  11.540   1.955 -0.0528 -0.0390  0.0846
30459W        W46643  13.050  13.527  14.467 -0.0371  0.0876 -0.1901
30460W        W46644  10.866   7.970   0.403  0.0870 -0.0532  0.1401
30461W        W46645  15.131  11.522  11.362 -0.0936 -0.0751 -0.7298
30462W        W46646   4.251  13.075  14.762  0.0317 -0.1796  0.0705
30463W        W46647  11.450   9.171   0.237  0.0029  0.0940  0.3368
30464W        W46648  17.038  15.290  13.796  0.2705  0.0847  0.0104
30465W        W46649   5.165   8.386  11.098  0.0974 -0.2082  0.1390
30466W        W46650   9.489  14.043  12.103 -0.1940 -0.1277 -0.0328
30467W        W46651   7.819  14.462  15.069  0.0646  0.0583  0.1584
30468W        W46652   2.556   0.202  13.219  0.2248  0.3253 -0.0891
30469W        W46653   5.670  11.378   3.902 -0.0584  0.0441 -0.3217
30470W        W46654  18.798  15.682   1.360  0.2050  0.0034 -0.1984
30471W        W46655  10.437   5.589   3.903  0.1476 -0.1096 -0.3222
30472W        W46656  12.678   8.091  14.161  0.5022 -0.0509  0.1028
30473W        W46657  14.186  12.800   5.392  0.1666 -0.3768  0.0735
30474W        W46658   9.896  13.344  12.500  0.1960  0.0767  0.1749
30475W        W46659  12.726  16.493   2.721 -0.0372  0.0665 -0.2300
30476W        W46660   1.057   8.429   0.232 -0.0758 -0.0154  0.0881
30477W        W46661  11.960  10.741  14.108  0.1923 -0.1647  0.3405
30478W        W46662  14.617   4.550  11.793 -0.4031  0.2894  0.1857
30479W        W46663  16.121  12.765  12.170  0.1724  0.0128  0.0102
30480W        W46664  13.464   2.745  14.045 -0.0018 -0.2620 -0.2545
30481W        W46665   7.841  10.317  11.718 -0.3850  0.0681 -0.2531
30482W        W46666   1.260   0.831  13.278  0.0810  0.2234  0.1387
30483W        W46667   9.775   2.291  12.471 -0.1387  0.2153  0.0424
30484W        W46668  18.000   7.051  13.238  0.3322  0.0187  0.1143
30485W        W46669  10.355   4.579   3.007  0.2467 -0.1287 -0.3067
30486W        W46670   1.949   3.375   1.598  0.2354 -0.1293 -0.1253
30487W        W46671   8.375   1.634  11.877  0.5161 -0.1184  0.0926
30488W        W46672  18.174   8.980  13.804 -0.1597  0.0307  0.1137
30489W        W46673  14.805  11.553  13.663  0.2023  0.3051  0.3947
30490W        W46674   6.974   2.037  15.074  0.0512  0.0653  0.0563
30491W        W46675   7.385   1.952   2.194  0.2593 -0.1560  0.0405
30492W        W46676   7.545   7.047   3.665 -0.2531  0.2133 -0.0731
30493W        W46677  15.741  18.069  12.061  0.1143  0.1425 -0.3418
30494W        W46678  16.477   5.532  12.778 -0.1938  0.2531  0.3675
30495W        W46679   7.383  11.340   4.839 -0.0869  0.0608  0.1370
30496W        W46680   9.714   6.761  14.932  0.0607  0.0159 -0.0315
30497W        W46681  11.794   7.898   4.946 -0.2637 -0.1038 -0.0166
30498W        W46682   8.249  12.373   5.002  0.0694 -0.0350  0.1450
30499W        W46683   2.461   2.712   3.149 -0.0520 -0.0760 -0.0450
30500W        W46684   2.379  17.980   0.181  0.0630  0.0616 -0.1915
30501W        W46685   9.816  17.771   3.279  0.1164 -0.2620  0.2980
30502W        W46686  15.636   2.486  10.726  0.5463  0.0943 -0.0773
30503W        W46687   9.878   6.501  12.459 -0.4046 -0.1003 -0.0186
30504W        W46688  14.656   7.448   2.866 -0.1469  0.0490  0.0386
30505W        W46689   9.468  18.367  10.305 -0.2062 -0.0589  0.0511
30506W        W46690   1.635   3.436   2.024  0.0881  0.2548 -0.0476
30507W        W46691   4.758  14.345  12.748  0.0526  0.0373  0.1353
30508W        W46692   7.825  17.314  12.214  0.2765  0.1103  0.1494
30509W        W46693  10.057   6.314   5.097  0.0884 -0.0171  0.0114
30510W        W46694   1.788   6.379  11.250  0.0376 -0.1174  0.0080
30511W        W46695   7.707  15.646  10.521  0.0111 -0.1040 -0.1002
30512W        W46696  13.261  17.773  10.646 -0.0179 -0.3891 -0.0754
30513W        W46697   2.108   6.463  14.865  0.2123  0.1999 -0.1157
30514W        W46698   2.139  13.182   4.399  0.0134  0.0844 -0.3912
30515W        W46699   2.813  11.541   2.469  0.1658  0.2254 -0.0801
30516W        W46700  17.858  15.727   4.779 -0.0375 -0.1782 -0.0391
30517W        W46701   4.260   3.670  11.570  0.1443 -0.1187 -0.1383
30518W        W46702  16.442   9.268   4.581 -0.0414 -0.0172 -0.0777
30519W        W46703  10.133  15.232   5.349  0.1387  0.1637  0.1525
30520W        W46704   5.536  17.552  11.293 -0.2368 -0.0347  0.0562
30521W        W46705  15.249  13.731   5.373 -0.0960 -0.1684  0.0692
30522W        W46706   1.356   3.458  12.425 -0.0938 -0.0271 -0.0381
30523W        W46707  15.225  12.291   3.377  0.0921  0.1712  0.1527
30524W        W46708   9.237  12.455  14.504 -0.1097  0.1539 -0.0851
30525W        W46709  15.835   0.062  13.724  0.2623 -0.2276 -0.0130
30526W        W46710  14.455   2.856  15.063 -0.0608  0.2183 -0.0203
30527W        W46711   3.792  16.882  15.094 -0.1979 -0.2437  0.0849
30528W        W46712   5.341  14.568  13.084  0.2421 -0.1595 -0.0592
30529W        W46713   3.407   5.796   0.122 -0.0287  0.2150  0.0997
30530W        W46714  17.634   5.559   4.194  0.1219  0.0229 -0.2325
30531W        W46715   9.205   1.320   4.135  0.1537  0.1395 -0.1374
30532W        W46716   4.851  18.354   2.028  0.1627 -0.1158 -0.0446
30533W        W46717   9.171  12.899   3.906 -0.0592  0.3201 -0.2833
30534W        W46718  16.779  11.257  11.679  0.1332  0.0250 -0.0636
30535W        W46719  14.368  13.952   2.475 -0.0184 -0.1075  0.3732
30536W        W46720  18.174  16.013  12.955  0.2936  0.1350  0.1946
30537W        W46721   3.644   0.124  12.490 -0.1374  0.0769 -0.2403
30538W        W46722   5.778  10.518  14.863  0.1744  0.0572 -0.4042
30539W        W46723  13.099  17.330  15.175 -0.1194  0.2621 -0.3797
30540W        W46724  15.664  10.120   4.663  0.0389 -0.0609  0.0495
30541W        W46725  12.508  18.551  13.909 -0.1039 -0.0733  0.0002
30542W        W46726   0.097  14.158   3.873  0.0762 -0.0836 -0.0773
30543W        W46727   8.174   5.373  11.192  0.0840 -0.0716  0.3147
30544W        W46728   9.360   0.134  14.853 -0.2240  0.1146  0.8191
30545W        W46729  13.290  15.379  11.524 -0.3602 -0.2084 -0.0833
30546W        W46730  13.553  17.389   3.463 -0.2245 -0.2180 -0.0354
30547W        W46731   3.332   5.189  12.235  0.1524 -0.0713 -0.1221
30548W        W46732   5.245  10.943  11.496  0.1795  0.0121  0.0332
30549W        W46733  14.571  12.021   5.184 -0.2073 -0.3169 -0.0830
30550W        W46734   4.089  12.832  13.214 -0.4099 -0.4116  0.1433
30551W        W46735  14.346   3.011  14.132 -0.2178 -0.2510  0.0046
30552W        W46736   5.983  11.288   0.839 -0.0297 -0.0241  0.2407
30553W        W46737  10.260   1.507   4.904 -0.1903 -0.1225  0.1595
30554W        W46738  12.253   6.365   3.447 -0.1296  0.0001 -0.2877
30555W        W46739  13.338  17.238   0.259  0.0594  0.1067  0.2036
30556W        W46740   8.039   5.479  13.404  0.3881 -0.2429  0.2651
30557W        W46741   6.916   6.088   1.426  0.4192  0.1304  0.3237
30558W        W46742  18.779   0.175   3.573  0.2343  0.0610  0.2806
30559W        W46743  15.967  10.591  13.052  0.0402 -0.0971  0.1017
30560W        W46744  13.252   1.095   2.710 -0.0215 -0.1216 -0.1164
30561W        W46745  15.528  13.353   3.055  0.2863  0.2673 -0.0965
30562W        W46746  12.124  17.209  11.058 -0.1160 -0.3078  0.2389
30563W        W46747  12.880   5.758  14.771  0.0272  0.1305  0.0882
30564W        W46748  16.594   6.294  11.487 -0.2911  0.0021  0.0448
30565W        W46749  18.747   4.899  12.557 -0.0754  0.0783 -0.1924
30566W        W46750  16.406  17.166  14.276 -0.0711 -0.2992 -0.0736
30567W        W46751   0.503   0.194  11.009  0.0201  0.3856  0.1919
30568W        W46752  11.364   8.633  14.815  0.0014 -0.0244 -0.1163
30569W        W46753   5.427  10.059   5.077 -0.1300 -0.0975 -0.2600
30570W        W46754   5.610   4.985  13.391 -0.1261  0.0394 -0.2024
30571W        W46755   6.491   6.390   2.297 -0.1498 -0.1207 -0.0463
30572W        W46756  11.417  16.494   0.100 -0.3305 -0.1371 -0.1437
30573W        W46757   1.946  14.912   4.922 -0.2569  0.0224  0.2398
30574W        W46758  14.993  17.453   1.186 -0.1128 -0.1730 -0.2703
30575W        W46759  15.560   1.226  10.096 -0.2726  0.0758 -0.2247
30576W        W46760  13.900  12.689   1.838  0.0481  0.0140  0.1295
30577W        W46761  14.112   9.744   2.430  0.2759  0.1681  0.0050
30578W        W46762   5.067  16.345   3.801 -0.0400 -0.1190 -0.1008
30579W        W46763   8.094  10.942   1.594  0.1034  0.1131 -0.3673
30580W        W46764  14.548  15.674  13.477 -0.2178 -0.1110 -0.2440
30581W        W46765  12.584  11.694   5.058  0.0069 -0.0122 -0.0194
30582W        W46766  18.627   4.665   2.754 -0.0135  0.4316 -0.2110
30583W        W46767   9.580  11.125   1.820  0.0097 -0.0082 -0.2781
30584W        W46768   1.002  16.764   5.802  0.3435  0.0095  0.2102
30585W        W46769  16.191   4.409  14.147  0.0709  0.2226  0.2436
30586W        W46770   9.921   0.779   0.843 -0.0862  0.2567  0.2357
30587W        W46771  14.256  11.592   1.757 -0.0787  0.1094  0.2718
30588W        W46772   8.952  14.512  11.303 -0.1952  0.1693  0.2486
30589W        W46773   7.332  12.638   1.109 -0.1898 -0.1392 -0.1066
30590W        W46774   1.423  14.440  12.232 -0.1323 -0.4045  0.1656
30591W        W46775  13.437  17.729   4.271  0.0979  0.1773  0.1517
30592W        W46776  17.520  16.115   5.595  0.0191  0.2708 -0.1177
30593W        W46777   8.568   8.281   5.207  0.2590 -0.1156 -0.0749
30594W        W46778   9.375  13.385  11.694 -0.1326 -0.1218  0.3095
30595W        W46779  18.271   1.393  13.835 -0.0453  0.0602  0.2740
30596W        W46780   1.776  11.975  14.238  0.0641 -0.1135 -0.0437
30597W        W46781   9.932   5.344   4.998 -0.1615 -0.0414  0.0241
30598W        W46782  13.002  10.008  14.703 -0.0525  0.0308 -0.2818
30599W        W46783   1.792   2.050   5.142 -0.2646  0.0386 -0.1677
30600W        W46784   4.980   8.588   0.497  0.1063  0.1102 -0.0752
30601W        W46785  13.661   8.819  11.655  0.2771 -0.1840  0.3606
30602W        W46786   4.163   1.377  12.069 -0.2529 -0.1809 -0.1678
30603W        W46787  11.317   9.146  13.766  0.0596 -0.3389 -0.2687
30604W        W46788   7.821   5.718   0.146 -0.0269 -0.0543  0.0888
30605W        W46789  10.135  17.585  11.386 -0.1154  0.2486 -0.1964
30606W        W46790   4.457  18.027  12.473 -0.4986 -0.2533 -0.2025
30607W        W46791   9.878  17.030   2.071 -0.1536  0.0648 -0.0006
30608W        W46792   1.987   8.451  11.565 -0.1581  0.0436  0.2648
30609W        W46793  10.501  13.326   0.837  0.0814  0.5981  0.0604
30610W        W46794  11.814   8.109   2.806  0.4967  0.1093 -0.0421
30611W        W46795  17.601   6.001   0.669 -0.1988 -0.4508 -0.2600
30612W        W46796  12.066   8.566   2.554 -0.1373  0.1662 -0.0845
30613W        W46797  13.039   4.990   4.807 -0.0824  0.1903  0.1100
30614W        W46798  18.011   4.480   3.759  0.1696 -0.2847 -0.2230
30615W        W46799   6.791  14.824   4.881  0.1624  0.2026  0.0106
30616W        W46800   8.497  10.673   3.271  0.2974  0.3775  0.0958
30617W        W46801   7.929   1.357   0.409 -0.3923  0.0153 -0.0528
30618W        W46802  11.130  11.061   3.460 -0.0678  0.1281 -0.0567
30619W        W46803  14.318  16.573   2.778 -0.2218  0.1642 -0.2577
30620W        W46804   3.945   5.840  11.682 -0.1492 -0.0818  0.1091
30621W        W46805   1.957  18.493   3.465  0.0116  0.0265 -0.0422
30622W        W46806   9.734   1.357   2.380  0.0643 -0.0808 -0.2208
30623W        W46807  12.737   1.611   2.087 -0.3020  0.1319  0.1028
30624W        W46808   7.948   6.928   5.003  0.2682  0.2826  0.1472
30625W        W46809  11.159   5.688   0.028  0.0730 -0.0581 -0.2165
30626W        W46810  17.251   4.963  14.021  0.0237 -0.0366  0.0425
30627W        W46811  18.365  18.180  13.352  0.1018  0.2363  0.2916
30628W        W46812  11.155   6.698  10.589  0.0300  0.1096  0.1707
30629W        W46813  18.424  14.938  11.067  0.1193 -0.1990 -0.1328
30630W        W46814   5.473   3.437   2.199 -0.1513 -0.0139  0.2448
30631W        W46815   4.378   7.204  10.912  0.2170  0.2774  0.0906
30632W        W46816  16.316   5.618  11.701  0.0934  0.2425 -0.3114
30633W        W46817  13.229   0.751  10.972 -0.0727  0.0562  0.1059
30634W        W46818  18.932   6.331   3.321 -0.1288 -0.2322  0.2709
30635W        W46819   9.450   6.189   1.528  0.3449 -0.2289  0.0804
30636W        W46820   9.653  11.735  10.824  0.1855 -0.2712 -0.0521
30637W        W46821   8.972   9.126   3.455  0.1054  0.6307  0.5681
30638W        W46822   3.725  18.548  12.486  0.2605 -0.1824  0.2077
30639W        W46823   0.204   2.741  12.745 -0.1988  0.2135  0.2728
30640W        W46824   7.350  16.265   4.518  0.0636 -0.1698 -0.2580
30641W        W46825   1.689   3.662  10.371  0.0784  0.2588 -0.0906
30642W        W46826   0.291  17.562  12.295 -0.3719 -0.5945 -0.0677
30643W        W46827  17.129  12.547   4.130 -0.3062 -0.2035 -0.4172
30644W        W46828   4.760  11.422  12.780 -0.1693 -0.1189 -0.1232
30645W        W46829  11.339  13.957   1.407 -0.0606 -0.1091  0.2328
30646W        W46830  14.426  18.219   3.885  0.4334  0.1726  0.2380
30647W        W46831   6.798  12.235  14.222 -0.1187  0.2992 -0.1876
30648W        W46832   9.658  11.927   1.637  0.2883 -0.0591  0.0467
30649W        W46833   6.211  10.465   1.699  0.0040 -0.0809 -0.0715
30650W        W46834   9.502   2.916  15.173  0.0226  0.2337 -0.0660
30651W        W46835  16.229  13.150   2.433 -0.1405 -0.1004  0.0973
30652W        W46836   5.095   9.472   2.679 -0.0050  0.0260  0.0760
30653W        W46837   8.697  14.819   0.705  0.2160  0.3556 -0.1063
30654W        W46838  17.082  13.036   1.903  0.0895  0.1548  0.0298
30655W        W46839   6.874   5.301  14.998  0.0613 -0.1565  0.0350
30656W        W46840   9.390   7.135  13.712  0.0687  0.1728 -0.1041
30657W        W46841   4.139  14.643  12.203  0.1187  0.1342  0.3158
30658W        W46842  10.721  17.574   3.344 -0.3869 -0.0311 -0.2453
30659W        W46843   5.067  18.399   1.558  0.0744  0.0565  0.1112
30660W        W46844  15.870  18.054   2.956 -0.0717 -0.1468 -0.2083
30661W        W46845   9.281  11.324   2.826  0.3693 -0.4626 -0.1502
30662W        W46846   6.816   8.124  12.808  0.1246 -0.0040 -0.1847
30663W        W46847   2.259   2.753  15.304 -0.1467 -0.0052 -0.1362
30664W        W46848  16.115  18.584   3.128 -0.2404  0.0253 -0.4937
30665W        W46849  16.976  11.621   3.191  0.0172 -0.0275  0.2499
30666W        W46850  12.512   7.479   0.939  0.1869  0.0678 -0.1945
30667W        W46851   6.314  11.805   5.972  0.0442 -0.5582 -0.0641
30668W        W46852  17.055   9.044  14.224  0.3086 -0.0033 -0.0408
30669W        W46853  15.027  16.633   3.620 -0.1143  0.0780 -0.0489
30670W        W46854   7.659   9.619   2.015 -0.1781  0.1082  0.1597
30671W        W46855   1.465   1.405   4.021 -0.0584  0.1033  0.0016
30672W        W46856  17.878   7.241   4.323  0.1488 -0.0214  0.0985
30673W        W46857   4.424   0.982   4.988  0.0231 -0.0264  0.3702
30674W        W46858  14.638   5.454   2.429 -0.2825  0.2321  0.0939
30675W        W46859  18.475   7.236   4.276  0.0543  0.3153  0.0325
30676W        W46860   6.749   1.963  14.022  0.0412  0.2670 -0.0451
30677W        W46861  11.887   6.903  13.991 -0.4779  0.0599  0.0698
30678W        W46862   1.579  15.613   3.946  0.0032  0.0689 -0.0886
30679W        W46863   6.139  15.435   0.418 -0.0710 -0.0923 -0.2010
30680W        W46864   7.177   0.301   4.858  0.2534 -0.1112  0.0656
30681W        W46865  15.468   1.854   2.880 -0.0092  0.1507 -0.2470
30682W        W46866   1.070   7.441   0.725 -0.2774  0.0685 -0.1284
30683W        W46867  10.242   1.375  15.321 -0.3069  0.0397 -0.2300
30684W        W46868  17.942   8.992   5.493  0.0896  0.0421 -0.0698
30685W        W46869  15.327  12.900   0.104 -0.1155  0.1394 -0.2832
30686W        W46870   5.383   9.298  15.122  0.4668  0.2368 -0.0555
30687W        W46871   0.570  13.173  13.859  0.1888  0.0308  0.0786
30688W        W46872   1.094  11.336   4.501 -0.0206 -0.0656 -0.2826
30689W        W46873   9.917   3.751   3.508 -0.0519 -0.1107  0.1216
30690W        W46874   9.209   6.854   2.624 -0.0093  0.1054 -0.2043
30691W        W46875  12.908  15.069  13.918  0.0205 -0.2229  0.0452
30692W        W46876  18.925   5.126  13.696 -0.0681 -0.2447  0.3749
30693W        W46877  12.032  13.045  12.854  0.1800  0.0457  0.3595
30694W        W46878  14.372  12.175  12.951 -0.1278  0.2067  0.0629
30695W        W46879   9.536   2.837  11.395 -0.3108  0.2958 -0.1000
30696W        W46880   4.778  17.278  13.024 -0.0605 -0.4787 -0.1208
30697W        W46881   0.416   6.892   2.092  0.2928 -0.1797  0.5137
30698W        W46882   0.069  18.024   1.697  0.5433 -0.1125 -0.1458
30699W        W46883   3.869   8.236  12.838  0.2227  0.0802 -0.2288
30700W        W46884  11.645   7.442  13.980  0.1259 -0.1024 -0.0240
30701W        W46885   1.587  10.425   1.619 -0.0390  0.2447 -0.1253
30702W        W46886   9.684  12.031   2.187 -0.0032 -0.0504  0.2251
30703W        W46887   2.195   3.861  12.721  0.1820 -0.1095  0.0917
30704W        W46888  11.599  16.586  10.749  0.0834  0.1501 -0.4145
30705W        W46889  13.890   8.516   1.398 -0.3177  0.0201  0.2335
30706W        W46890  14.150   2.107  13.695 -0.2063  0.0148  0.2187
30707W        W46891  11.711  14.669  13.708  0.4625  0.0599 -0.0677
30708W        W46892   2.549   1.229   0.683  0.0116 -0.1734  0.2309
30709W        W46893   4.223  16.900   3.765  0.1606  0.2953 -0.0414
30710W        W46894   7.914  10.804   5.420 -0.1084 -0.0400  0.0655
30711W        W46895  17.923   0.603  14.949  0.3553 -0.2408  0.2378
30712W        W46896  16.269   0.275  12.032  0.0372 -0.3193  0.1679
30713W        W46897   6.995  15.422  15.367  0.2776 -0.1039  0.2039
30714W        W46898  14.062  15.338   2.447 -0.2600 -0.4897  0.1227
30715W        W46899   5.104  10.615  13.718  0.4230  0.0908 -0.1154
30716W        W46900   5.015   6.855   1.085 -0.3362 -0.0266 -0.1052
30717W        W46901   1.208  18.155   2.953  0.1688 -0.0384 -0.2279
30718W        W46902   0.593   4.405  14.560 -0.2368  0.0619 -0.1423
30719W        W46903   2.391   8.852   0.612 -0.2362  0.0964 -0.3507
30720W        W46904  15.026   5.557   2.795 -0.0230  0.1294 -0.2588
30721W        W46905  14.257   6.123   0.627 -0.0852  0.0982 -0.1148
30722W        W46906  11.536   5.408   3.673 -0.0473  0.0469 -0.1004
30723W        W46907   9.847   9.812   1.541  0.1246 -0.2160  0.1297
30724W        W46908  10.163  16.388   9.463  0.1335  0.0978 -0.0053
30725W        W46909   6.264   5.531  14.811  0.0291 -0.0511 -0.2327
30726W        W46910   1.962   0.858  15.103 -0.0477  0.0917 -0.0837
30727W        W46911   4.322  16.433  13.775 -0.1693  0.0767  0.2265
30728W        W46912   4.364   5.565   1.004  0.1788 -0.2968 -0.0797
30729W        W46913   3.142   2.333   2.693  0.2531 -0.3371  0.3340
30730W        W46914   3.565   5.541  11.483 -0.0125  0.0273 -0.1553
30731W        W46915   7.602   7.295   1.471 -0.1359  0.2296  0.1066
30732W        W46916  14.148   5.724   5.139  0.1218 -0.0352 -0.0034
30733W        W46917  18.987   2.985  14.846  0.0879  0.1984  0.0579
30734W        W46918  16.067   3.335   4.758 -0.3853 -0.2567 -0.0567
30735W        W46919  16.678   5.582   2.197 -0.0736  0.3130  0.0266
30736W        W46920  10.615  18.791  14.509  0.2467  0.2366 -0.0786
30737W        W46921  10.477  16.256  12.545 -0.3993 -0.3614 -0.1112
30738W        W46922  11.679   3.869   5.029 -0.1262  0.0297 -0.0179
30739W        W46923   4.478   1.454   5.769 -0.3254  0.0221  0.0194
30740W        W46924   5.797  12.852   4.266  0.1113 -0.0172  0.0117
30741W        W46925   4.878   1.950  14.774 -0.1540 -0.1127 -0.1248
30742W        W46926  15.313   1.024   2.766  0.1114  0.0304  0.0151
30743W        W46927   3.450  13.480  13.825  0.1630 -0.1344 -0.1050
30744W        W46928   3.805  15.972   2.872  0.0919  0.5018 -0.3220
30745W        W46929  14.719   2.017   3.434 -0.1096 -0.2200 -0.3267
30746W        W46930   2.057  12.237  14.557  0.4168  0.0569 -0.1057
30747W        W46931   6.733   5.308  11.930  0.1797  0.2304  0.2759
30748W        W46932  13.092   1.916   4.884 -0.2538 -0.1115  0.0816
30749W        W46933  16.138   9.929   0.675 -0.1333 -0.1170 -0.1525
30750W        W46934  15.998   4.199   3.742  0.0690  0.2041  0.2061
30751W        W46935  13.312   6.788   0.717  0.0170  0.1013 -0.4107
30752W        W46936   2.004   4.489   2.155  0.1021  0.0600  0.1080
30753W        W46937  13.008  17.498   0.808  0.2805  0.0330 -0.1354
30754W        W46938   3.934  11.144   1.966 -0.0171 -0.2800  0.0630
30755W        W46939   5.523  15.776  11.116  0.3959 -0.0818  0.0189
30756W        W46940   7.201   1.886  12.032 -0.1051 -0.1498  0.0100
30757W        W46941  17.761  12.800  14.953  0.1858  0.2512  0.0352
30758W        W46942   9.467   4.084  12.198 -0.0951  0.2388  0.0057
30759W        W46943  16.476   5.749   2.671 -0.2542  0.4104 -0.1484
30760W        W46944   2.924   5.243  11.060 -0.0528  0.1515  0.0988
30761W        W46945   3.478   3.986  13.639  0.0713 -0.0535  0.1167
30762W        W46946   7.233   3.977   5.624  0.2416  0.0068  0.0179
30763W        W46947   4.291   9.187   4.789 -0.0469 -0.1748  0.0483
30764W        W46948   3.359   2.175   3.172  0.0226 -0.0700  0.1097
30765W        W46949  16.215   3.922  13.108 -0.0395  0.0623  0.0575
30766W        W46950  17.564  16.586  13.824  0.3202  0.0580 -0.0672
30767W        W46951   1.592   6.687   0.096 -0.0151 -0.0903 -0.1024
30768W        W46952  11.895  13.443  12.440 -0.1553  0.0138 -0.1278
30769W        W46953  18.820  12.932   4.189  0.0795  0.0676 -0.0562
30770W        W46954  13.326   5.646   2.308  0.0480 -0.1648 -0.0867
30771W        W46955  13.087  14.206   1.229  0.0689 -0.1280 -0.0869
30772W        W46956   9.131  14.424  10.871 -0.1645  0.0210  0.0712
30773W        W46957  12.100   0.355   2.111  0.0546 -0.1642  0.0897
30774W        W46958  15.840  14.010  11.930 -0.2954 -0.1830 -0.0368
30775W        W46959  15.023   6.100  14.815  0.0876 -0.0486  0.4460
30776W        W46960   8.226  13.170   0.400 -0.0767 -0.1676 -0.1785
30777W        W46961  16.276   8.086  14.970  0.0865  0.0989 -0.3564
30778W        W46962   3.463   8.251   4.069  0.2256  0.3818 -0.2875
30779W        W46963  16.734   8.719  11.739 -0.3090  0.2106  0.4050
30780W        W46964  16.169   2.698  13.225 -0.1274  0.1498  0.2295
30781W        W46965   3.056   5.121  14.600  0.3998 -0.1744 -0.1637
30782W        W46966   2.686  16.344   5.793  0.0836 -0.1578 -0.3667
30783W        W46967  17.069   2.846   2.196 -0.1200 -0.1444 -0.2010
30784W        W46968  12.256   6.858   1.601 -0.2778 -0.2563  0.0756
30785W        W46969   9.933  18.199   4.081  0.1166 -0.0803  0.0608
30786W        W46970  13.099   7.153  10.585  0.1864  0.3710 -0.0673
30787W        W46971   0.440   7.731  10.930  0.0335  0.5854  0.1445
30788W        W46972   6.830  17.394   4.417  0.0415 -0.1434  0.1759
30789W        W46973  14.404  12.092   2.421 -0.0508  0.0980 -0.0218
30790W        W46974   2.877  11.399  14.442  0.3533  0.3451 -0.0972
30791W        W46975  11.999  13.979  11.199  0.0057  0.1774  0.1041
30792W        W46976   3.895  11.609  14.574  0.2126 -0.1352  0.2212
30793W        W46977   0.693  18.004  13.721  0.1795 -0.0534  0.0129
30794W        W46978   2.743  14.184  12.862  0.0868 -0.0566 -0.0166
30795W        W46979  11.896   8.012   1.223 -0.2815  0.5239  0.1938
30796W        W46980   8.631  10.313   6.029  0.4547  0.3097  0.0476
30797W        W46981  11.054   9.404   3.016 -0.0480  0.2886  0.3442
30798W        W46982  12.764   0.730   2.762 -0.2259 -0.3047 -0.0454
30799W        W46983  10.159   1.178   2.686  0.0540  0.2977  0.1325
30800W        W46984  14.825  12.181   4.737  0.0954  0.3105  0.1181
30801W        W46985   5.510  17.158  11.602 -0.2522  0.3081  0.4390
30802W        W46986  16.825   8.418   4.947  0.3223  0.0722  0.1668
30803W        W46987   5.607  12.181   1.837 -0.0174  0.4620 -0.0902
30804W        W46988  17.363   8.810  12.581 -0.0077 -0.1542  0.2000
30805W        W46989   9.705   9.938  15.087  0.1119  0.4623  0.0588
30806W        W46990   5.521   3.193   2.657 -0.0717 -0.5776 -0.2957
30807W        W46991  15.745  12.324   2.274 -0.0777 -0.3380  0.0796
30808W        W46992   0.912   5.116   4.110  0.0273 -0.0608  0.0904
30809W        W46993   3.572  18.965   0.968 -0.0270 -0.0793  0.3384
30810W        W46994  16.198   1.726  14.532  0.5768  0.0754  0.1341
30811W        W46995   9.784   4.152   3.247 -0.1058 -0.0453  0.1154
30812W        W46996  11.308   5.492   2.507  0.0154 -0.0577  0.0301
30813W        W46997   1.718  17.403   1.659 -0.0601 -0.0270 -0.2288
30814W        W46998   0.139   7.334   0.925 -0.1885  0.0290  0.0119
30815W        W46999   1.693   9.566   0.376 -0.0797 -0.0445  0.0917
30816W        W47000   9.507  11.806  13.218  0.0625  0.4492 -0.0785
30817W        W47001  18.728   7.271  11.551  0.0453 -0.1164 -0.2583
30818W        W47002   4.413   2.913  10.900 -0.2622  0.1602  0.0204
30819W        W47003   5.002  17.180   0.758  0.1401  0.2643  0.0732
30820W        W47004  18.292   6.002   2.021 -0.1036  0.0020  0.1211
30821W        W47005  11.688  15.294   4.818  0.1744 -0.3723  0.0165
30822W        W47006   5.150   7.834   3.040  0.0982  0.0065  0.1113
30823W        W47007  15.394  14.654   2.761 -0.1632  0.2000  0.1329
30824W        W47008  15.495  17.007   2.391  0.0035  0.1330  0.0379
30825W        W47009   0.769  11.386   4.906 -0.1577  0.0667  0.1474
30826W        W47010  15.704  15.085   5.424  0.1175 -0.0876 -0.2212
30827W        W47011  14.393   8.266   1.344  0.2888  0.1651 -0.1511
30828W        W47012  14.749  18.486   1.783 -0.0830 -0.4163  0.0992
30829W        W47013   7.936  14.247   1.656  0.4004 -0.0150  0.0016
30830W        W47014   4.676   2.637   4.574 -0.2258  0.0282 -0.2740
30831W        W47015   5.473  14.911  12.619 -0.1107 -0.0131 -0.0891
30832W        W47016  17.717  12.178  14.601  0.0160 -0.2376 -0.1255
30833W        W47017  17.085   4.239   0.327  0.2966 -0.2642 -0.0377
30834W        W47018   1.152  18.080   0.350 -0.0022  0.0073 -0.1886
30835W        W47019  17.282  11.247  13.026  0.1511  0.0401  0.2018
30836W        W47020   2.946   5.484  11.471  0.0360 -0.3353 -0.0462
30837W        W47021  10.358   5.067   2.920 -0.0257  0.0346  0.2928
30838W        W47022   3.709   2.486   5.002 -0.0902 -0.2091 -0.2761
30839W        W47023   0.813   9.788   1.378  0.3228 -0.0138 -0.3358
30840W        W47024   9.275  10.911   4.479 -0.1274  0.2231 -0.2515
30841W        W47025   8.817  13.043   1.810  0.1135 -0.1173 -0.2165
30842W        W47026   6.913   0.511   3.599 -0.1974  0.2294 -0.0565
30843W        W47027  16.551  10.791   4.191  0.1769 -0.1794  0.1978
30844W        W47028  15.120   5.876   1.352 -0.0188  0.1255 -0.1431
30845W        W47029  14.573   3.963  13.019  0.0881 -0.0281 -0.0072
30846W        W47030   0.345   2.891  13.287  0.1261  0.0121 -0.0399
30847W        W47031   5.624  15.724  14.451  0.1527  0.3298 -0.1144
30848W        W47032  16.315  11.680   2.619  0.1396 -0.1521 -0.2267
30849W        W47033   1.443  17.581   2.734 -0.0473  0.2629 -0.4844
30850W        W47034  15.069  11.009  12.867 -0.0804 -0.3343 -0.1675
30851W        W47035   1.655  18.467  14.588  0.3980 -0.0085  0.0443
30852W        W47036  13.611   4.729  13.765  0.0717 -0.2529 -0.1175
30853W        W47037   5.582  15.135  11.164 -0.1728  0.2175 -0.0708
30854W        W47038   7.233  15.751  12.014 -0.0090 -0.4258  0.0116
30855W        W47039   8.654  13.750  13.216 -0.1349  0.2023 -0.1645
30856W        W47040   0.053   2.671  11.157  0.0316 -0.1077  0.3629
30857W        W47041  15.594   8.629   1.772 -0.0663 -0.0017  0.0941
30858W        W47042  12.417   1.948  11.572  0.2905  0.2448 -0.0224
30859W        W47043   2.522  16.753   1.917 -0.2683  0.0966  0.1562
30860W        W47044   4.810   0.117  12.269  0.0603 -0.2222 -0.4406
30861W        W47045   4.505  15.535   3.195  0.1681 -0.1045 -0.1612
30862W        W47046  13.542   6.422   5.060 -0.4543 -0.2331  0.0205
30863W        W47047   0.990  13.777   0.283  0.0800 -0.1995 -0.2919
30864W        W47048   3.675  12.290  12.513 -0.3552 -0.3031  0.1580
30865W        W47049   4.428   7.241  10.405 -0.0392  0.1916 -0.0405
30866W        W47050  16.690  15.107   5.172  0.1806 -0.1610 -0.0743
30867W        W47051  15.373   5.359  10.745  0.2776 -0.1185 -0.1258
30868W        W47052   6.863   3.729   3.288 -0.0285  0.0899 -0.2213
30869W        W47053  13.516   8.437   4.609  0.2896  0.0778  0.1056
30870W        W47054  10.831   8.487   0.461  0.1318  0.2934  0.1589
30871W        W47055  10.932  15.090  14.022 -0.1271 -0.0122 -0.1369
30872W        W47056  11.749  10.824  11.989  0.0234 -0.4642  0.1780
30873W        W47057  18.245  11.482   4.747 -0.1940  0.0058  0.1691
30874W        W47058   5.537  17.990   0.637  0.3795 -0.0023  0.0031
30875W        W47059   8.328   8.015  14.152 -0.2170 -0.0614  0.1071
30876W        W47060   5.037  15.975   0.159  0.1191  0.3640  0.3333
30877W        W47061  16.093  17.515  14.653  0.2673 -0.0580  0.2729
30878W        W47062  14.391  11.467  14.007 -0.3538 -0.4060  0.0277
30879W        W47063  16.848   9.077   2.902  0.0145  0.3201 -0.1676
30880W        W47064   3.930   3.785  11.132  0.0317  0.4855 -0.1434
30881W        W47065  11.503   6.592  14.847  0.3387 -0.1986  0.2151
30882W        W47066   5.566   5.068  12.872 -0.1088 -0.0469  0.0070
30883W        W47067   6.871   7.833   0.047 -0.2204  0.1281 -0.1798
30884W        W47068   8.790  15.196  14.323  0.2040 -0.0101 -0.0172
30885W        W47069   0.174  15.722   4.329  0.3462  0.0903  0.0328
30886W        W47070   6.119  14.331  11.179  0.0897  0.0406 -0.3018
30887W        W47071   5.133   3.607  12.899 -0.0208  0.0180 -0.0781
30888W        W47072   1.285   1.289   0.228  0.2116  0.0877 -0.1438
30889W        W47073  16.890   8.124  13.724  0.3224  0.1317 -0.0549
30890W        W47074  11.599   9.544  13.658  0.3069  0.0760 -0.1027
30891W        W47075   4.386  15.525   4.435 -0.0216 -0.1044  0.2026
30892W        W47076  14.148  14.618  13.088 -0.1543 -0.0802  0.3200
30893W        W47077  18.726  16.666  12.244  0.2045  0.0815 -0.0828
30894W        W47078  13.842  17.373   4.149  0.0333  0.1658 -0.0954
30895W        W47079   8.883  10.025   2.946  0.1045 -0.0013 -0.0879
30896W        W47080   8.886  10.695  13.549  0.2408 -0.0908  0.0370
30897W        W47081   3.807   9.472  10.675  0.0510  0.0671 -0.2463
30898W        W47082   8.801   7.613   3.955  0.0975  0.0211 -0.0644
30899W        W47083   4.674   0.641  13.644  0.0859  0.0225  0.0491
30900W        W47084  10.219   3.167   0.338  0.1092  0.0784  0.1473
30901W        W47085   6.182   8.633  11.514 -0.1385 -0.1208 -0.2469
30902W        W47086  13.362   3.690  12.280 -0.1605 -0.1579 -0.2017
30903W        W47087   7.283  15.834   0.949  0.2277 -0.2554 -0.4509
30904W        W47088  11.561  11.033  12.450 -0.0581  0.0096  0.2812
30905W        W47089   4.030  18.961  15.057  0.0826  0.0596 -0.0320
30906W        W47090  18.665  17.225  15.210 -0.1672 -0.1862  0.1520
30907W        W47091   8.883   2.321   4.020  0.3531 -0.1124  0.2532
30908W        W47092  18.007   2.524   3.850 -0.1058  0.0363  0.2576
30909W        W47093  15.238   4.963  12.002 -0.3888  0.0052 -0.0469
30910W        W47094   7.111  16.268   1.555  0.1319  0.1092  0.0168
30911W        W47095   4.607  14.801  11.195  0.2183 -0.3346 -0.0031
30912W        W47096   9.204  16.840   1.828  0.0108 -0.1598 -0.0866
30913W        W47097  18.349  17.305   4.846  0.0643 -0.0488 -0.3243
30914W        W47098  15.585   9.531  10.653 -0.0273  0.2911 -0.1697
30915W        W47099  12.869   1.135   0.243 -0.2119 -0.0580  0.2189
30916W        W47100   1.589   4.140   1.602 -0.1580  0.0087  0.3372
30917W        W47101  17.609   5.173   3.565 -0.1260 -0.1440  0.0613
30918W        W47102   2.911  15.794   0.748  0.2836  0.0808  0.0725
30919W        W47103   8.260   0.066  10.697 -0.3212 -0.1789  0.1296
30920W        W47104   2.161  16.594  14.560  0.1984 -0.2008 -0.0235
30921W        W47105   6.555   1.518  13.953  0.0163 -0.2817 -0.2620
30922W        W47106  15.685  18.753   1.951 -0.0361 -0.2059 -0.0680
30923W        W47107   9.360   7.538  15.010  0.0852 -0.0403  0.1101
30924W        W47108  13.206  18.539   1.966 -0.2960 -0.0370  0.0039
30925W        W47109   2.072   1.138   3.463  0.4716  0.2360  0.1594
30926W        W47110   3.328  17.041   5.024  0.3136 -0.0624  0.1909
30927W        W47111   9.877   9.405   3.018 -0.1030 -0.2551  0.5722
30928W        W47112  11.120  11.379  13.070 -0.1239 -0.0062 -0.0815
30929W        W47113   0.466  10.389  14.090  0.2111  0.0551 -0.1664
30930W        W47114   6.713  11.802  12.296 -0.0656 -0.1387  0.1420
30931W        W47115   9.864  16.402  10.799  0.1536  0.0942  0.0093
30932W        W47116   1.596  17.297   4.303  0.4110 -0.2099 -0.1133
30933W        W47117   9.479   5.775  11.640  0.0553  0.0692 -0.3363
30934W        W47118  16.338   7.231  13.605 -0.5093 -0.0558  0.2979
30935W        W47119  12.857  17.421   0.321 -0.0439  0.4521  0.3597
30936W        W47120   8.204   6.930   3.963 -0.1095 -0.5149 -0.0320
30937W        W47121   9.093   3.554  12.991  0.1617  0.0322 -0.0883
30938W        W47122  14.547   4.460   0.491  0.3039  0.2862 -0.2809
30939W        W47123   0.398  17.736  11.007  0.0864 -0.4060 -0.0988
30940W        W47124   5.830  13.972  11.871 -0.1143  0.0023 -0.2473
30941W        W47125  13.769  10.824   4.792  0.0263  0.2157 -0.2250
30942W        W47126  11.658  18.040   4.331 -0.2302  0.0973 -0.0346
30943W        W47127   6.760   9.257   4.427  0.0434  0.2952  0.0562
30944W        W47128   1.402  12.357  10.734 -0.1650 -0.0265  0.3729
30945W        W47129   0.422   8.925   2.690 -0.1543 -0.1141 -0.1309
30946W        W47130  16.283  17.802  10.954 -0.1684 -0.0786 -0.0538
30947W        W47131   8.525   6.850  13.839 -0.2569 -0.3029 -0.0905
30948W        W47132  11.724  10.601   3.124 -0.1902 -0.1238  0.0171
30949W        W47133   1.589  14.560  11.163 -0.2332  0.3632  0.1636
30950W        W47134  17.686   0.693  13.559 -0.0550 -0.0430  0.2028
30951W        W47135   2.556   8.294  14.641 -0.0994  0.1549  0.0150
30952W        W47136  12.066   7.825   5.602 -0.2108 -0.2663 -0.0547
30953W        W47137   4.161   3.386   2.922  0.1207 -0.1079 -0.0587
30954W        W47138   8.084  16.895  13.774 -0.1618  0.0366 -0.0296
30955W        W47139  14.957  10.422  12.791 -0.1795 -0.1526 -0.0072
30956W        W47140  18.802  13.060  11.687 -0.0198 -0.2950  0.0391
30957W        W47141   5.950  16.355  10.525  0.1641 -0.0366 -0.0006
30958W        W47142   2.619  18.070  11.014 -0.1340  0.1597 -0.2134
30959W        W47143   7.633   4.211  14.909 -0.0631 -0.4491  0.3474
30960W        W47144   6.711   9.173  14.415 -0.2616 -0.1455  0.0586
30961W        W47145  10.469  12.625   2.476 -0.0335 -0.4787  0.0797
30962W        W47146   5.821   6.158   1.040  0.0286 -0.0171  0.1683
30963W        W47147  14.623  10.266   0.157 -0.0873 -0.2323 -0.2315
30964W        W47148  13.887  12.112  11.310  0.0062 -0.0377 -0.1299
30965W        W47149   6.704  14.720   2.740 -0.1678 -0.0591  0.0139
30966W        W47150   4.565   1.511   1.282 -0.4956  0.1258  0.3394
30967W        W47151   2.133   0.038   0.068 -0.2395  0.0708  0.2073
30968W        W47152   3.416   8.649   1.531  0.0957  0.3643  0.0617
30969W        W47153  11.677   2.708  14.159 -0.1666 -0.0201 -0.0195
30970W        W47154  17.288   3.515  13.678  0.1070 -0.0114 -0.3568
30971W        W47155  10.704  18.264  12.100 -0.2418 -0.0724  0.2946
30972W        W47156  11.000  11.950  13.651 -0.0691 -0.0694  0.2996
30973W        W47157   6.423   0.975   2.389  0.1109 -0.0681 -0.0686
30974W        W47158  18.028  17.320   0.876 -0.0860 -0.0766  0.0353
30975W        W47159  14.538   6.510   2.175  0.0882 -0.2145  0.1906
30976W        W47160   1.602  13.965   3.001 -0.2720 -0.2270 -0.2983
30977W        W47161   2.385   5.647   1.624  0.0862  0.0857 -0.1818
30978W        W47162  16.881  14.775  13.764  0.1431 -0.2653 -0.0591
30979W        W47163  12.691  17.233   4.703  0.0485  0.1051 -0.5021
30980W        W47164  17.897   9.907   2.101  0.0118  0.2743  0.0748
30981W        W47165  12.974   3.313   3.441 -0.1862 -0.2042 -0.0054
30982W        W47166   5.653   0.649   2.638  0.1162  0.1355  0.0189
30983W        W47167  13.897  15.517  14.659 -0.0683  0.0562 -0.2109
30984W        W47168   9.761   3.960  11.804  0.1072 -0.2636  0.2613
30985W        W47169   3.719  18.792   4.856 -0.1392  0.0594 -0.1230
30986W        W47170  13.418   5.993   1.873 -0.1063 -0.0680 -0.1144
30987W        W47171  11.908   1.944   1.164  0.2301 -0.0062  0.3851
30988W        W47172   2.543  14.669   5.518  0.2335  0.4364 -0.0729
30989W        W47173   5.428  14.857   0.946 -0.0858 -0.0262 -0.0471
30990W        W47174   4.132  17.696  14.724 -0.0770  0.0799  0.0090
30991W        W47175   1.312   0.574  12.187  0.4045  0.1166  0.0462
30992W        W47176  18.231   9.221  13.391  0.0791  0.0440  0.0506
30993W        W47177   3.600   1.657   0.198 -0.0927  0.3161  0.0047
30994W        W47178   2.087  16.074  12.499  0.1052 -0.0099  0.0286
30995W        W47179  10.953   5.446   0.474  0.2275  0.2044  0.2097
30996W        W47180  10.071  12.848  12.341 -0.0818 -0.0465 -0.2620
30997W        W47181   9.311   8.466  11.914 -0.2169  0.2142 -0.0387
30998W        W47182   9.741   9.459  11.263 -0.0543  0.2114  0.1785
30999W        W47183  17.934  17.828  15.339  0.0347  0.1382 -0.0664
31000W        W47184   1.982   7.711  13.530  0.0855  0.3571 -0.0282
31001W        W47185  12.180   2.052   2.754  0.0815  0.3079 -0.1084
31002W        W47186   3.687  18.396  13.689 -0.1851  0.0500 -0.0823
31003W        W47187  12.643  13.177   2.652 -0.0520  0.0549 -0.0123
31004W        W47188   3.959   2.675   3.565  0.0571 -0.2079  0.3285
31005W        W47189  14.247  11.478  12.363  0.3030  0.0090  0.4222
31006W        W47190  15.898   8.536  15.147 -0.1919  0.3884 -0.0952
31007W        W47191  16.299  15.999   3.099  0.6253 -0.0454  0.4892
31008W        W47192  10.204  11.989  12.428 -0.0205 -0.2245  0.0585
31009W        W47193  17.272   6.955   3.711  0.1331  0.1420  0.0492
31010W        W47194   5.066  16.200   4.389 -0.3837 -0.5624  0.0139
31011W        W47195   5.734  10.052  11.874  0.0678 -0.0473 -0.0448
31012W        W47196  12.957   9.252   4.358 -0.3515 -0.2873  0.0501
31013W        W47197  10.903   3.930   3.773 -0.3449 -0.0024 -0.0564
31014W        W47198  12.672   3.450   3.864 -0.1996  0.2452  0.2546
31015W        W47199  16.665   5.849   4.613  0.2030 -0.0196  0.1912
31016W        W47200  10.695  11.849   2.009  0.0271 -0.2363 -0.3020
31017W        W47201  10.545  18.873   1.030  0.1527 -0.0428  0.1490
31018W        W47202   0.598  17.388   3.883 -0.0195  0.0693 -0.0608
31019W        W47203   8.685  16.072   1.668 -0.3613  0.0642  0.0517
31020W        W47204  17.823   8.627   3.375  0.0147 -0.1782  0.0141
31021W        W47205   3.902  17.610  13.816  0.0543 -0.2236  0.0281
31022W        W47206  15.898   4.200  13.414  0.0508  0.0309 -0.0064
31023W        W47207   6.798  17.209   3.453 -0.3790  0.0038  0.0581
31024W        W47208  17.964  15.189  15.001  0.1872 -0.4060 -0.1582
31025W        W47209   2.059  11.630   6.038  0.0654 -0.0292 -0.2381
31026W        W47210   5.836   8.275   3.667  0.0712 -0.1452 -0.2779
31027W        W47211  17.547  12.114   4.152 -0.3307 -0.1396  0.3227
31028W        W47212  10.872  14.349  12.861 -0.0874 -0.1033 -0.0467
31029W        W47213  15.739   8.080  11.498  0.1545  0.2624 -0.0339
31030W        W47214  15.024  10.239   1.263  0.2712 -0.1832  0.0450
31031W        W47215  13.385  14.891  13.026  0.1669 -0.0731  0.1037
31032W        W47216   7.844   8.432  15.000 -0.0583  0.0020 -0.0324
31033W        W47217   2.365  10.088   4.912  0.0774  0.0684 -0.0781
31034W        W47218   7.515   5.212  14.027 -0.0627 -0.0920  0.1545
31035W        W47219  18.294  16.428  10.775 -0.2944 -0.1749  0.0144
31036W        W47220   5.009  11.025   2.857  0.1242 -0.3982  0.0452
31037W        W47221   2.623   0.074  15.352 -0.2817 -0.2241  0.3066
31038W        W47222  14.678  16.842  13.064  0.1404 -0.4503 -0.0398
31039W        W47223   7.107  15.219   2.099 -0.1525  0.1994 -0.0942
31040W        W47224   6.700   3.203  10.450 -0.3027  0.0006  0.0188
31041W        W47225  18.306  18.522  11.832 -0.0028 -0.2394 -0.3252
31042W        W47226   4.029   5.235  14.104 -0.0082 -0.2465 -0.0753
31043W        W47227  15.855  12.305  14.579 -0.0390  0.2863 -0.4715
31044W        W47228  11.346   4.990  12.308  0.1580  0.1427 -0.4243
31045W        W47229  17.096  14.843   5.537  0.2755  0.2332  0.1378
31046W        W47230   7.526   8.462   0.116 -0.4516 -0.2463 -0.1864
31047W        W47231  11.213  10.671  12.692 -0.2713 -0.4074  0.3873
31048W        W47232  17.064   9.621   0.908 -0.2478 -0.0700 -0.3375
31049W        W47233  11.869   6.744   1.284  0.1663 -0.2739 -0.1142
31050W        W47234  13.684   0.370   3.900 -0.1553 -0.1348  0.0807
31051W        W47235   2.048  15.816  12.907  0.2673 -0.1714  0.0144
31052W        W47236   6.042  16.747  14.987  0.1990  0.1644  0.3301
31053W        W47237  15.992  14.073   6.020  0.2210  0.1083  0.2115
31054W        W47238   4.282   0.852  12.675  0.0075  0.0812 -0.0243
31055W        W47239   2.607  12.912   4.522 -0.0321  0.1176  0.0448
31056W        W47240  13.215  14.839  14.454 -0.1479  0.0140 -0.2246
31057W        W47241  17.461  17.459   2.363 -0.5369 -0.0337  0.1216
31058W        W47242   9.435   5.690   0.662 -0.0921 -0.1518 -0.3079
31059W        W47243  12.076  11.974   3.278 -0.0423  0.3020  0.0049
31060W        W47244  10.096   1.891  15.278  0.1024 -0.3476 -0.1698
31061W        W47245   2.043   0.949  12.169  0.0137  0.0887  0.0067
31062W        W47246  15.636   7.863   5.599 -0.0346 -0.0334 -0.0648
31063W        W47247   6.929  12.177  11.489 -0.1732 -0.0144 -0.1879
31064W        W47248  12.378  16.917   1.268  0.1923  0.0795 -0.0174
31065W        W47249   2.750   3.193  11.449 -0.0259 -0.2312  0.1810
31066W        W47250   1.849  14.078   2.377  0.0075 -0.0779 -0.0370
31067W        W47251  12.507   7.283  12.473 -0.1528 -0.3726 -0.1534
31068W        W47252   4.613  17.113  11.509  0.1139 -0.0115  0.1941
31069W        W47253  12.360  12.620  10.993 -0.1230 -0.1635  0.0131
31070W        W47254  14.020   3.523  13.497  0.2601 -0.0918  0.1516
31071W        W47255  17.555   1.493  13.206  0.1141 -0.0123  0.0031
31072W        W47256   0.633  16.340  11.975  0.0650  0.0945  0.1608
31073W        W47257   9.236  11.582   3.317  0.0854  0.2029  0.0380
31074W        W47258  15.167   2.993  14.246 -0.1327 -0.0242  0.4514
31075W        W47259   2.973  12.582   4.512 -0.2630  0.3560 -0.3332
31076W        W47260  13.410  12.177   4.678 -0.1260 -0.0044  0.0029
31077W        W47261   9.659  16.916  14.887  0.2635 -0.0116  0.0659
31078W        W47262  16.566   6.840  10.895  0.4326 -0.1306 -0.1017
31079W        W47263  12.005  11.570   0.396 -0.2107 -0.0916  0.0470
31080W        W47264  12.594   5.170   3.906 -0.1816  0.0722 -0.1859
31081W        W47265   3.342  16.662   0.472  0.1075  0.1668 -0.2866
31082W        W47266   5.737   6.606   3.720 -0.1068  0.1278 -0.0629
31083W        W47267  10.401  16.683  13.958  0.0543  0.2967  0.1994
31084W        W47268   4.454  13.068  14.191 -0.0160 -0.2054  0.0628
31085W        W47269  17.080  14.258  13.721 -0.2243 -0.0149  0.2360
31086W        W47270  11.566  15.908   1.852 -0.3632 -0.0269  0.1022
31087W        W47271   7.816   1.508   2.462 -0.0355  0.0047 -0.1401
31088W        W47272   2.704   4.070   5.905  0.1551 -0.1278 -0.1193
31089W        W47273  13.654  12.046   2.713  0.0469  0.0492  0.2081
31090W        W47274  11.219  14.195  12.428 -0.0768  0.0081  0.0551
31091W        W47275  14.346  17.174  13.235 -0.1983  0.0154 -0.2579
31092W        W47276   8.798   7.589  11.710  0.2143  0.0034 -0.0002
31093W        W47277   8.987   4.847   4.469  0.0529  0.0136 -0.0661
31094W        W47278  16.988  17.547   1.553 -0.1804 -0.2198  0.0378
31095W        W47279   1.764  11.982  11.501  0.1102 -0.1229  0.0894
31096W        W47280  10.263   1.945   0.443 -0.3529 -0.0708  0.2265
31097W        W47281   7.195   1.678  10.584 -0.1484  0.1785 -0.1129
31098W        W47282   8.131  10.661   2.936  0.1948  0.4110  0.0979
31099W        W47283  16.965   2.262  14.236  0.0240 -0.4537 -0.2131
31100W        W47284  17.555  15.749  14.179 -0.0470  0.2613 -0.4052
31101W        W47285  10.735  15.219   3.051  0.1967 -0.3001 -0.1609
31102W        W47286  17.273  17.855   2.670 -0.2120  0.1917 -0.0161
31103W        W47287  12.493  15.737  11.086 -0.0073 -0.0074 -0.1596
31104W        W47288   0.603  10.972   4.153 -0.0286 -0.0929  0.1221
31105W        W47289   2.775  18.207  14.079 -0.1837  0.2081  0.3159
31106W        W47290  18.572   1.481  14.651  0.0323  0.2426 -0.1439
31107W        W47291  15.690  10.441   1.824  0.0492  0.0380  0.1530
31108W        W47292  13.527  18.573   0.064  0.0207  0.0124  0.0012
31109W        W47293   6.032   2.350   1.222  0.0496 -0.1679 -0.2484
31110W        W47294   6.135   7.261  11.554  0.0412  0.1469 -0.1466
31111W        W47295  10.167  13.072   3.445  0.0022  0.2434  0.1183
31112W        W47296  18.434   8.084   4.481  0.0186  0.0192  0.2312
31113W        W47297  18.257  13.158   1.566  0.2826  0.0588 -0.1901
31114W        W47298  10.075   9.871   1.070  0.1860  0.1702  0.3450
31115W        W47299   3.807   0.823   0.738  0.0210 -0.1543  0.2541
31116W        W47300  12.276  10.158   3.269 -0.3503  0.1618  0.0238
31117W        W47301   1.343  14.102  13.024 -0.0230  0.0194 -0.1940
31118W        W47302  14.800  11.451   0.758 -0.0980 -0.4126 -0.2339
31119W        W47303   8.313   2.265   5.469  0.1441 -0.0368 -0.0599
31120W        W47304  18.575  14.272   0.362  0.1517  0.1431  0.1807
31121W        W47305   9.786   9.481   0.704 -0.1068  0.2552  0.2129
31122W        W47306   2.078  11.228   3.335  0.0450 -0.1757  0.2482
31123W        W47307   1.985   2.986  12.289 -0.0646  0.0587  0.1618
31124W        W47308  13.937  17.831   0.206  0.0656  0.1504 -0.0339
31125W        W47309   6.854   4.919  11.667 -0.2602  0.0376 -0.0829
31126W        W47310   9.191   8.830  11.474 -0.1986  0.2867 -0.3304
31127W        W47311  18.290   5.491   4.233 -0.1641 -0.1676 -0.1703
31128W        W47312  14.347  17.011  11.831 -0.1127 -0.2317 -0.1955
31129W        W47313   0.503   5.187   4.358 -0.1731 -0.2016  0.2172
31130W        W47314  11.487  16.261  14.511  0.1447  0.2572  0.0018
31131W        W47315  16.910  12.030   1.300 -0.3131  0.2053 -0.0326
31132W        W47316  18.520   0.688   0.884 -0.2524  0.0342  0.2095
31133W        W47317   6.142  18.644   0.270 -0.0502 -0.3764  0.1304
31134W        W47318   6.260   7.897   4.735  0.0197  0.4690 -0.0562
31135W        W47319   6.128   2.610   3.267  0.1699 -0.3834  0.1480
31136W        W47320   8.114   1.569  14.529 -0.2435  0.3904 -0.0038
31137W        W47321   6.416   3.644   0.196 -0.0277 -0.1152 -0.1656
31138W        W47322   2.663  17.088  11.227  0.1730 -0.0701  0.1468
31139W        W47323   8.483   2.372   9.705 -0.0198 -0.2520  0.1920
31140W        W47324   5.437   0.878  14.588  0.2567 -0.2269 -0.1330
31141W        W47325   2.670   8.156  12.418 -0.0048 -0.0413  0.2630
31142W        W47326  16.996   7.089   1.701  0.0700  0.0933  0.0006
31143W        W47327   7.554  17.859   4.856 -0.0220  0.1606  0.0375
31144W        W47328  15.794  10.836  11.018 -0.0026  0.3188 -0.0911
31145W        W47329  15.392  18.710  14.026  0.0401 -0.1100  0.4627
31146W        W47330   6.310  18.713   1.194 -0.1312  0.3546 -0.0506
31147W        W47331   0.338  17.584   1.630  0.0469 -0.0004  0.1217
31148W        W47332  12.466  14.684   2.348 -0.1598  0.0857 -0.0960
31149W        W47333  16.867   7.685   3.779 -0.1491  0.1625 -0.4461
31150W        W47334  15.761   5.925   3.201 -0.0915  0.2429  0.0351
31151W        W47335  14.535  15.639   2.377 -0.1433  0.0180  0.0634
31152W        W47336   2.459  10.032   1.882  0.0291 -0.1822  0.0892
31153W        W47337   6.125  17.702   1.174  0.2480  0.1129 -0.1780
31154W        W47338  12.886  15.692   1.454  0.2129  0.4597 -0.1278
31155W        W47339  11.293   5.165   0.367  0.2439  0.0084 -0.0670
31156W        W47340   0.877   7.384   4.538  0.1121 -0.2774  0.0342
31157W        W47341  18.238  13.914   2.934  0.1297 -0.4503  0.0200
31158W        W47342   9.402   1.615  12.423  0.3305  0.0822 -0.0019
31159W        W47343  11.781   7.800  10.327  0.1757 -0.1484  0.2099
31160W        W47344   4.832  16.410   0.038 -0.0145  0.0686 -0.0933
31161W        W47345  15.133   0.683  10.799  0.2294  0.3441 -0.3587
31162W        W47346   3.963   4.871   3.030  0.5234 -0.2257 -0.0161
31163W        W47347  15.249  10.947   4.248  0.0875 -0.0318  0.1709
31164W        W47348   3.312  12.174   1.883 -0.4160 -0.0757 -0.0992
31165W        W47349  18.416   8.924  14.213  0.1750 -0.0863 -0.2649
31166W        W47350   5.429   9.568   5.257 -0.2301  0.0975  0.3073
31167W        W47351  11.653   0.397   2.288 -0.1002  0.1028  0.1961
31168W        W47352  16.795  16.295  12.664  0.2165 -0.1067 -0.0886
31169W        W47353   4.443   7.624   3.503  0.1288 -0.2604  0.0959
31170W        W47354   1.118   7.438  14.535 -0.0495  0.3978 -0.2259
31171W        W47355   9.244  18.729  11.558  0.0108  0.3311 -0.3324
31172W        W47356  18.377   3.576  11.507  0.0022 -0.1102  0.1020
31173W        W47357   7.935  14.456   1.189  0.2089 -0.0370 -0.0749
31174W        W47358  15.971   1.986   1.983 -0.1626 -0.2127  0.2849
31175W        W47359   1.215  13.263   0.483 -0.0188  0.2747  0.0960
31176W        W47360   3.646   1.385   4.858 -0.1254 -0.1525  0.1617
31177W        W47361  16.020   4.553   0.502  0.0304  0.1391  0.0353
31178W        W47362   5.684  18.299  13.543  0.2755 -0.0031 -0.1454
31179W        W47363   7.913   7.645  11.082  0.0270 -0.1173  0.1397
31180W        W47364  14.647  12.400  11.567 -0.0461 -0.0618 -0.0251
31181W        W47365  10.392   0.246   2.577 -0.2340  0.4133  0.1343
31182W        W47366  15.935  18.156   1.065  0.1617  0.1129 -0.3244
31183W        W47367   3.976  17.365   1.371 -0.0281 -0.1181  0.1380
31184W        W47368  16.333   5.364  13.638  0.0583  0.2121 -0.0600
31185W        W47369   9.059  15.819   3.270  0.2981 -0.3198 -0.0895
31186W        W47370  15.943  15.202  12.506  0.2293 -0.3299 -0.2545
31187W        W47371   0.669  10.330  10.481  0.0496  0.0138  0.2773
31188W        W47372   7.328  13.835   3.413  0.1910 -0.2237  0.0600
31189W        W47373  11.879  10.318   2.778  0.3366 -0.2400 -0.0483
31190W        W47374  18.414  10.298  14.045  0.3737  0.0653  0.0239
31191W        W47375  10.014  10.016   2.403  0.0706  0.0612  0.1177
31192W        W47376   5.887   1.217   1.042  0.0244  0.0901 -0.2100
31193W        W47377  13.274   2.210   3.341 -0.1317  0.0585 -0.2465
31194W        W47378  18.721   4.061   0.462  0.0678 -0.2139 -0.1265
31195W        W47379   0.964   0.576  11.195 -0.1701  0.0080  0.2456
31196W        W47380  12.242  17.931  14.976  0.1522 -0.1317  0.0641
31197W        W47381   1.806  16.352   2.918  0.1432 -0.1426  0.0836
31198W        W47382   0.211   5.309  10.056 -0.1548 -0.2825 -0.0958
31199W        W47383  15.377   0.162   1.018  0.2138 -0.0811  0.0199
31200W        W47384   9.374  17.260  13.370  0.0182 -0.2384  0.2718
31201W        W47385   2.737  14.009  13.423  0.1067 -0.0289 -0.3145
31202W        W47386   7.603  17.108  11.771 -0.1892  0.3062  0.2348
31203W        W47387  15.915   8.045   0.358  0.5607 -0.3469 -0.2924
31204W        W47388   0.698   0.945   3.664 -0.1348 -0.1987  0.2018
31205W        W47389   8.537  16.867  14.502 -0.2118  0.0109 -0.1517
31206W        W47390  13.811   9.699   3.670  0.0836  0.0047  0.3345
31207W        W47391   4.965   4.306  13.504 -0.2269 -0.4265  0.1495
31208W        W47392   7.632   1.901   1.034  0.5613 -0.2310  0.2892
31209W        W47393  18.588   1.694   5.444  0.3918  0.0416  0.2259
31210W        W47394  15.398  12.634   2.432  0.0653 -0.0150  0.1080
31211W        W47395   9.108   4.117  11.285 -0.1622 -0.0277 -0.1948
31212W        W47396   7.295   7.470   2.723 -0.1213  0.2860  0.0904
31213W        W47397   8.480   0.260   3.727 -0.0858  0.0299 -0.4094
31214W        W47398   3.151  17.744  11.590  0.1452 -0.1841 -0.0747
31215W        W47399   9.253  10.377   4.792  0.0750  0.1199  0.3169
31216W        W47400  15.115  18.282  13.779 -0.2505 -0.3528  0.2938
31217W        W47401   2.252   8.214   2.705  0.0723  0.0525  0.1401
31218W        W47402   3.670   3.509   5.829 -0.0512  0.0922 -0.3227
31219W        W47403   2.858   7.915  12.996 -0.2749 -0.1419  0.0619
31220W        W47404  12.710   5.820  13.462  0.0710  0.0284 -0.0274
31221W        W47405   4.893   1.165   1.042 -0.0509  0.0410 -0.2536
31222W        W47406  17.394   8.854  13.072  0.0772 -0.2371 -0.0618
31223W        W47407  15.073  12.903   0.609 -0.2455 -0.0915 -0.3632
31224W        W47408   6.648  11.997  13.252 -0.1821 -0.0587 -0.0800
31225W        W47409   1.025  14.945  13.445 -0.4202 -0.1626 -0.2343
31226W        W47410  13.331  10.221  10.955 -0.0029 -0.1603 -0.3649
31227W        W47411  15.197   0.294   2.401  0.1873 -0.1076  0.1224
31228W        W47412  11.787  14.240   3.333  0.2414 -0.1153 -0.1818
31229W        W47413   1.334   7.971  10.990  0.3599 -0.1480 -0.1922
31230W        W47414  16.056  14.456  14.857 -0.1429 -0.0032  0.2420
31231W        W47415  14.333   3.035  13.659 -0.3273 -0.0932 -0.1691
31232W        W47416   7.153  12.275   3.106 -0.1437  0.1629  0.0170
31233W        W47417  14.122  11.292  15.016 -0.2369 -0.0133  0.1021
31234W        W47418   3.447   3.037   4.317 -0.0479 -0.0424  0.0190
31235W        W47419  13.953   4.244   2.664  0.0815  0.3962  0.1617
31236W        W47420  17.020   9.252   2.449  0.2495 -0.0800 -0.1034
31237W        W47421  15.055   8.656  12.947  0.3186 -0.0382 -0.0853
31238W        W47422   6.401   1.811   1.957  0.0116 -0.1511  0.0588
31239W        W47423   1.057   4.270   4.351  0.2023 -0.0478  0.1115
31240W        W47424   5.823   0.084   4.426  0.0955 -0.0417 -0.3124
31241W        W47425  16.184   0.922   0.549 -0.0334 -0.2347  0.4106
31242W        W47426   6.280   2.344   3.737  0.2918 -0.2069 -0.0165
31243W        W47427  11.065  17.673   3.801  0.2917 -0.0577 -0.3814
31244W        W47428  12.969   6.905   3.930  0.1273  0.0645 -0.0428
31245W        W47429   4.985   4.198  14.423 -0.0117  0.0704  0.2161
31246W        W47430   4.189  17.169   4.383 -0.0996 -0.0579 -0.2978
31247W        W47431  10.482   3.582  13.341  0.1302  0.3505 -0.1546
31248W        W47432  10.325  10.009  13.683  0.0312 -0.2550  0.0729
31249W        W47433  11.647   8.773  10.209 -0.0418 -0.3781 -0.1585
31250W        W47434  17.242   8.096   2.013  0.2709 -0.1437  0.1410
31251W        W47435  17.367  17.605  13.147  0.0404  0.0699  0.0508
31252W        W47436  17.837   5.901  11.642 -0.0580 -0.1527 -0.0021
31253W        W47437   4.215  10.806  13.722  0.1200 -0.0010 -0.0502
31254W        W47438  16.792   4.343  11.385  0.2125 -0.0081 -0.0867
31255W        W47439   5.509   4.617  11.664 -0.0213 -0.4520 -0.2245
31256W        W47440  13.029   4.394  15.140 -0.0231 -0.0282 -0.1837
31257W        W47441   5.950  12.202  13.671  0.0641 -0.6599  0.0870
31258W        W47442  10.703  10.856  15.184  0.0407  0.3784 -0.1742
31259W        W47443   3.822   6.761  10.592  0.1448  0.1487  0.1847
31260W        W47444   5.601   1.639  12.189  0.2498 -0.1096  0.1441
31261W        W47445  13.759  17.776  14.202  0.1288 -0.1418 -0.1700
31262W        W47446   4.414   2.766  14.284  0.2861 -0.1842  0.0203
31263W        W47447  13.233   8.548  10.809 -0.5302 -0.1056  0.0316
31264W        W47448   9.640   6.198  13.867  0.1946 -0.2308 -0.2246
31265W        W47449   3.432   8.582   3.229  0.2032 -0.1980  0.0992
31266W        W47450  11.795   8.446  11.178 -0.0241  0.2352  0.2703
31267W        W47451  16.753   7.879  13.262 -0.0190 -0.2641  0.1691
31268W        W47452  16.682  12.425  11.233  0.1107 -0.2918 -0.0632
31269W        W47453   7.900  16.677   5.742  0.0078 -0.2512 -0.0096
31270W        W47454  12.409  16.835   2.478  0.1211  0.3159  0.3718
31271W        W47455  13.449   0.284  11.014  0.3401 -0.2170 -0.2483
31272W        W47456  15.653  10.929   3.716 -0.1369  0.0397 -0.0714
31273W        W47457   6.669   9.957  11.779 -0.0289 -0.0593  0.1885
31274W        W47458  16.999   6.282  13.228 -0.0848  0.2951  0.0126
31275W        W47459   9.639   0.412   0.975 -0.1158 -0.1570  0.0837
31276W        W47460   9.673   0.523   4.113 -0.0441  0.2176  0.0708
31277W        W47461   6.364  10.356   1.252 -0.2727 -0.0351  0.0095
31278W        W47462  13.496   5.815   0.017 -0.1181  0.0895  0.0176
31279W        W47463  12.788  13.696   0.264  0.0127  0.0562  0.0343
31280W        W47464  11.348  17.780  13.234 -0.1572 -0.2018 -0.2433
31281W        W47465  11.776  11.457   0.869 -0.1583  0.0038  0.0543
31282W        W47466  16.389   4.785  15.130  0.1500  0.1094 -0.2558
31283W        W47467  11.647  16.229  10.305  0.2871  0.3186  0.2531
31284W        W47468   7.005  17.709   3.338  0.0027  0.1055  0.1496
31285W        W47469  13.827   7.885   2.799  0.0695 -0.0909  0.0241
31286W        W47470  13.353   0.542   3.492 -0.2809 -0.0500  0.0623
31287W        W47471  16.659  12.169   0.297 -0.0147 -0.1082  0.3910
31288W        W47472  18.952  10.567  12.493 -0.2297 -0.0087 -0.0735
31289W        W47473   2.655  11.406   1.435 -0.0720  0.1174 -0.1347
31290W        W47474  17.222   5.136  11.844 -0.1966 -0.0960 -0.2929
31291W        W47475   0.082   8.797  13.534  0.0505 -0.3917 -0.0993
31292W        W47476  16.119  11.319  13.448 -0.0957  0.4673 -0.2969
31293W        W47477   2.440   3.398  10.753 -0.0984 -0.0014 -0.3471
31294W        W47478   5.777  14.100   1.535 -0.0136 -0.0337 -0.2651
31295W        W47479   5.496  12.270   0.055  0.0848 -0.1005  0.0250
31296W        W47480   9.488   7.795   1.599 -0.1227 -0.0662 -0.0106
31297W        W47481   7.810   4.375  11.039 -0.0290  0.1553  0.2099
31298W        W47482   5.345   3.917   3.372 -0.0217 -0.0668 -0.2188
31299W        W47483   4.905   0.592  12.364 -0.0281  0.1709 -0.1359
31300W        W47484  16.492   6.272   1.574  0.0460 -0.0014  0.0684
31301W        W47485   4.237  18.055   4.557  0.0575  0.1678 -0.3450
31302W        W47486   3.549   8.436  13.273  0.1588  0.0216 -0.4112
31303W        W47487   6.628   8.708   2.416 -0.0075 -0.0568  0.2012
31304W        W47488   9.526   2.943  14.663 -0.0310  0.2215  0.2682
31305W        W47489   2.755   3.118   3.100 -0.1875  0.1922  0.2024
31306W        W47490   5.388  14.056  13.279 -0.2258  0.2209  0.1242
31307W        W47491   3.278   8.929  14.022 -0.3105 -0.2406  0.0243
31308W        W47492  10.060  17.292  15.198 -0.1517  0.0722  0.4790
31309W        W47493  15.995   2.061   2.575  0.1307 -0.0901 -0.0486
31310W        W47494   3.502   2.013  13.745 -0.0669 -0.3144  0.1288
31311W        W47495  14.219   7.258   3.781  0.3416  0.2484  0.1179
31312W        W47496  13.642  10.609   1.802  0.0716 -0.1252  0.0136
31313W        W47497   5.568   9.413  11.444 -0.3318 -0.1519  0.0731
31314W        W47498  15.438   5.977   0.900  0.3116 -0.1401 -0.0368
31315W        W47499  18.232   5.749  14.548 -0.1857 -0.0799 -0.0295
31316W        W47500   0.971   3.614  12.661  0.3033  0.1178  0.1109
31317W        W47501  15.555   0.950  12.435  0.0848 -0.1968 -0.2096
31318W        W47502   2.206   8.100  11.303 -0.1593 -0.2437 -0.0060
31319W        W47503   5.699   4.827   2.192  0.2025 -0.0460 -0.0707
31320W        W47504   6.453  15.340   3.886  0.1052 -0.1175  0.0605
31321W        W47505   4.140  10.378  11.683  0.1854  0.0732 -0.0885
31322W        W47506   1.827  10.275  15.343  0.0038 -0.2224 -0.1240
31323W        W47507  15.206   7.285   1.218  0.2320  0.1332 -0.0165
31324W        W47508   1.002   3.102  12.567 -0.1459 -0.2167 -0.0539
31325W        W47509   8.614   7.739   6.076 -0.1353  0.1054 -0.1119
31326W        W47510   5.478  18.018  12.561  0.0156  0.2997  0.3191
31327W        W47511  18.858   7.686  14.177  0.3734  0.0093 -0.2047
31328W        W47512  18.546  17.647   3.352  0.2414  0.0021  0.0124
31329W        W47513   5.943  14.609   0.275 -0.0041  0.0013  0.2140
31330W        W47514  17.536   8.239  10.796  0.2516  0.0160 -0.1029
31331W        W47515  14.476   2.906   5.383  0.1833  0.0117  0.0902
31332W        W47516   0.673  13.718   3.487  0.0912 -0.0736 -0.0460
31333W        W47517   7.215  10.718   2.692 -0.0762 -0.1380  0.5602
31334W        W47518   0.042  12.579  12.521 -0.0642 -0.3073  0.0577
31335W        W47519   9.215   6.412   1.163  0.2187 -0.1649 -0.0925
31336W        W47520   8.861   8.203   2.091  0.3429  0.2878 -0.1470
31337W        W47521   4.471  18.271   2.351 -0.2481  0.1917 -0.1473
31338W        W47522  12.776   8.151   4.004 -0.1944 -0.2214  0.1684
31339W        W47523  12.150   4.009   3.197 -0.0238 -0.3181 -0.0099
31340W        W47524   2.555   7.265   0.322  0.0362  0.2684  0.2858
31341W        W47525   3.185   2.358  11.663  0.0296 -0.0201 -0.2896
31342W        W47526  15.818  14.788  12.735  0.3402  0.1600 -0.2186
31343W        W47527  14.649   2.562  11.612 -0.0533  0.5330 -0.0461
31344W        W47528  15.813   2.944  12.475  0.0431  0.2251  0.2205
31345W        W47529  17.222   6.628  12.210 -0.0907 -0.0332  0.1883
31346W        W47530   6.339   9.527  11.103  0.2134 -0.0398 -0.0190
31347W        W47531   4.410   7.470  13.798  0.1197  0.0145 -0.1023
31348W        W47532  10.339   3.836   2.329 -0.1724  0.1466  0.2912
31349W        W47533   5.784  15.119   0.336 -0.0125  0.1330  0.0542
31350W        W47534  15.140   6.003   3.586  0.0458 -0.2560  0.2940
31351W        W47535  11.049   8.288   1.333 -0.2293  0.2419 -0.1623
31352W        W47536  15.768  12.966   1.183 -0.1245 -0.1212 -0.2966
31353W        W47537   3.964   0.388  12.801  0.3441  0.1612  0.2732
31354W        W47538   7.989  16.352  11.335  0.0917  0.4312  0.0182
31355W        W47539  10.883   1.320   1.994 -0.0844  0.1610 -0.0054
31356W        W47540   2.236  18.418  11.951 -0.0198 -0.3253 -0.2166
31357W        W47541  18.116  15.876   0.405  0.0359  0.0834  0.0496
31358W        W47542   1.424  15.963   5.229 -0.1638  0.0832  0.2027
31359W        W47543   7.837   9.631   0.140 -0.1885  0.0935  0.1736
31360W        W47544  14.011  16.438   5.089 -0.1037  0.1726  0.0489
31361W        W47545   2.295   2.791  11.513  0.0544  0.0917 -0.0412
31362W        W47546   3.367  10.488   3.782  0.1071 -0.3949 -0.0260
31363W        W47547   7.836   1.385   4.395  0.0660 -0.3065  0.1662
31364W        W47548   5.106  17.270  11.291 -0.1866  0.6743  0.1588
31365W        W47549   5.380   5.099  11.756 -0.0885  0.0854  0.0016
31366W        W47550   2.833   9.267  11.658  0.0107  0.0506 -0.1234
31367W        W47551  13.058  17.654   1.783 -0.1745 -0.0347 -0.0252
31368W        W47552  15.106   4.828  13.870  0.0250 -0.2643 -0.0913
31369W        W47553  18.212  10.244  13.579  0.0465  0.0866 -0.0323
31370W        W47554  15.131  12.576  12.327  0.0112  0.0379  0.0222
31371W        W47555  15.615  11.645   3.172 -0.0705  0.1481 -0.0067
31372W        W47556  11.705  14.621   2.978 -0.0963  0.1434  0.4059
31373W        W47557  12.583  18.315  11.073  0.0315 -0.1318 -0.0564
31374W        W47558  12.216  15.669   4.091  0.1340  0.3417 -0.0635
31375W        W47559   0.026  17.653   3.078  0.0912  0.0159  0.0132
31376W        W47560   8.825   8.488  12.753 -0.1153 -0.1240 -0.2867
31377W        W47561   3.716   0.420   3.797 -0.1302  0.2805  0.2699
31378W        W47562   4.068  15.514  15.281  0.2927 -0.0312 -0.1615
31379W        W47563   9.670   1.091   5.098  0.0645  0.3901 -0.1165
31380W        W47564  13.292  12.306   0.529 -0.0305 -0.0001 -0.0752
31381W        W47565   4.513  12.186  12.778  0.1256  0.0432 -0.4025
31382W        W47566  12.125  16.545  12.829 -0.0536 -0.3747 -0.1562
31383W        W47567   7.949   5.839   2.202 -0.4353 -0.0365 -0.5104
31384W        W47568  17.286   6.890   5.480 -0.0981 -0.0757  0.3568
31385W        W47569  14.428   6.764   3.384 -0.0633  0.0294  0.1838
31386W        W47570  17.639   4.264  14.310  0.1237 -0.2735  0.0397
31387W        W47571  18.745  17.836   4.211  0.1141 -0.1157 -0.2985
31388W        W47572  10.461   1.166   3.704 -0.0801  0.2872  0.1829
31389W        W47573  11.313  18.498   1.276 -0.1214 -0.2646  0.2759
31390W        W47574   5.217   4.159   4.898 -0.1039  0.0685 -0.1320
31391W        W47575   3.274  18.235  13.375 -0.0338 -0.0443  0.2423
31392W        W47576   3.204   1.737  11.383 -0.3747  0.0205 -0.0214
31393W        W47577   8.052  16.209   2.417 -0.0448  0.1459 -0.3454
31394W        W47578   8.540   4.490  14.838 -0.1883  0.2388  0.2492
31395W        W47579  14.199   8.947   2.859 -0.2670 -0.1245  0.0811
31396W        W47580  18.692   9.500  13.452  0.2438  0.0332 -0.0710
31397W        W47581   1.832  10.689   1.193 -0.2403 -0.2197  0.2481
31398W        W47582   4.522  11.867   2.491  0.0093  0.0863 -0.2169
31399W        W47583  18.446  13.576   2.020 -0.3950 -0.3306 -0.0089
31400W        W47584   3.862   3.395  14.643 -0.3136  0.2989  0.0251
31401W        W47585   1.452  14.023  11.285  0.2473  0.3618 -0.2308
31402W        W47586  14.386  13.961  14.724 -0.2752 -0.2293 -0.0309
31403W        W47587   0.987  10.587   0.212  0.0392  0.2334 -0.1412
31404W        W47588  17.619   7.690  11.482  0.0964  0.3250 -0.2429
31405W        W47589   4.178  13.200   2.649  0.0143 -0.1007  0.0048
31406W        W47590   4.066   3.325   5.015 -0.0040  0.1406 -0.1667
31407W        W47591   8.846   4.392   2.418 -0.3021 -0.0348  0.0617
31408W        W47592  15.238  17.126   3.611 -0.1937  0.0430 -0.1330
31409W        W47593   7.243   6.105  12.506  0.0066 -0.0601 -0.2382
31410W        W47594  15.303  17.027   0.905  0.0271  0.2303  0.0867
31411W        W47595  16.189  17.571   2.938 -0.0453 -0.3613 -0.1790
31412W        W47596  17.628  18.957   1.152 -0.1851 -0.2330 -0.2672
31413W        W47597  13.992   9.127  12.459  0.1591  0.3848  0.4302
31414W        W47598  10.509  14.446  10.599  0.1495 -0.0397  0.1814
31415W        W47599  11.051  10.582  14.857  0.0355 -0.1958  0.0197
31416W        W47600   1.294   1.895  14.466 -0.0867 -0.1551  0.2836
31417W        W47601  17.814   6.676  12.565 -0.0346 -0.1269  0.1082
31418W        W47602  17.280  12.380   5.080 -0.0283  0.2316 -0.0304
31419W        W47603  16.386  11.370  15.218  0.2751  0.0354  0.0603
31420W        W47604  15.299  16.215  12.960 -0.0484  0.0658  0.1063
31421W        W47605  16.176  18.183  14.163 -0.1318  0.4211  0.3200
31422W        W47606  15.933   6.921  13.783 -0.0829  0.1535 -0.3059
31423W        W47607   4.111   6.469  10.258 -0.0940 -0.0909 -0.2097
31424W        W47608  12.911  17.744   1.322 -0.3787  0.0509 -0.2774
31425W        W47609   4.406   5.983  11.035 -0.3793 -0.3446  0.1086
31426W        W47610  18.257   9.225   2.058  0.0264 -0.1266  0.0309
31427W        W47611  18.628  10.780   3.970  0.3120  0.0162  0.0647
31428W        W47612   2.037  15.582  12.208 -0.0131 -0.0672  0.2032
31429W        W47613   1.277  18.528   0.709 -0.1158  0.0824  0.3128
31430W        W47614   8.146  11.697   5.172 -0.0372 -0.0605 -0.1091
31431W        W47615   8.180  15.554   3.393  0.2537  0.1572  0.0098
31432W        W47616  17.475   3.983   1.945  0.0205 -0.3012 -0.0392
31433W        W47617  10.180   4.325  14.388 -0.1134 -0.0680  0.1590
31434W        W47618  18.795  12.104  14.354  0.1471 -0.0064 -0.1441
31435W        W47619  16.623   9.516  12.213 -0.0418  0.0761  0.0296
31436W        W47620   4.642   8.882  13.699  0.0157  0.0029  0.1002
31437W        W47621   5.606   2.719   2.671 -0.1080 -0.0270 -0.1974
31438W        W47622   3.712   8.334  11.567 -0.2088 -0.4076 -0.2323
31439W        W47623   1.628  10.499  14.912 -0.0530 -0.0949  0.2353
31440W        W47624  13.380  10.306  12.426 -0.1012  0.2755 -0.0180
31441W        W47625  11.372  16.677   2.676 -0.1122  0.3264 -0.0077
31442W        W47626   2.006   8.594   0.836 -0.2971  0.2771  0.0564
31443W        W47627   8.974   4.612  11.689 -0.1545  0.0694  0.1116
31444W        W47628  18.813  16.672   4.498  0.2552  0.1237 -0.1962
31445W        W47629   0.276   7.455   1.386 -0.1264  0.3431 -0.3658
31446W        W47630  15.940  10.866  15.274 -0.2053 -0.2627  0.0864
31447W        W47631  16.673   5.567  14.443 -0.1538  0.0059  0.2323
31448W        W47632   6.921  16.565  12.903  0.3053  0.1464  0.1145
31449W        W47633   5.610  14.978   3.349 -0.1419  0.1064 -0.0151
31450W        W47634   2.768   5.818   0.827 -0.2160 -0.2725  0.2666
31451W        W47635   1.659   1.284  13.799  0.2277 -0.2686 -0.0643
31452W        W47636   5.515   2.575   1.117 -0.0626  0.1386  0.0896
31453W        W47637  10.054   3.610  12.113 -0.0522 -0.2231 -0.0199
31454W        W47638   8.587  16.922  14.000 -0.0574  0.1301  0.0447
31455W        W47639   0.126  14.752   3.780 -0.1009 -0.1598  0.1573
31456W        W47640   8.301  18.868   2.725 -0.1457 -0.0962  0.2360
31457W        W47641  17.583  14.476  13.472  0.2467 -0.1039 -0.1449
31458W        W47642  13.825   3.017   2.499  0.1692 -0.0431  0.0488
31459W        W47643  15.805   7.116  12.239 -0.0375 -0.1392 -0.3350
31460W        W47644   3.908  16.876   4.137  0.0076 -0.1805 -0.1457
31461W        W47645  12.817  17.535   2.824  0.2126  0.0721 -0.0073
31462W        W47646   0.740  16.236   1.680  0.0989 -0.0618  0.0206
31463W        W47647  11.039  17.772   1.221 -0.1506 -0.1705 -0.1104
31464W        W47648  14.768  13.579   5.544  0.1302 -0.3619  0.0140
31465W        W47649  17.900  12.643  13.963  0.2804  0.1308 -0.0764
31466W        W47650  15.092  12.791   4.293 -0.0211 -0.0568  0.1133
31467W        W47651  14.450   8.292   2.341 -0.0315  0.1482  0.0378
31468W        W47652   4.612  12.846  10.883 -0.3275  0.1528  0.0386
31469W        W47653   4.278  11.323  14.075  0.0449 -0.0525 -0.2282
31470W        W47654  11.599  13.024  10.725 -0.1995  0.0553  0.0668
31471W        W47655  15.417  18.559   0.595 -0.0696 -0.3761 -0.1678
31472W        W47656   5.083   2.709   0.723  0.0111 -0.0458 -0.3021
31473W        W47657   7.148   0.823   4.777  0.4317 -0.3699  0.0497
31474W        W47658   5.487   1.003   2.250 -0.1810  0.1355  0.1549
31475W        W47659   8.671   9.744   4.957 -0.1304 -0.1827  0.2265
31476W        W47660  14.758   9.014  13.608 -0.4595  0.1109 -0.1743
31477W        W47661   0.592  18.182  10.586  0.1157  0.0186 -0.1731
31478W        W47662  17.838   2.790   3.480  0.0781 -0.1804 -0.2077
31479W        W47663  12.371   7.616  10.584  0.2158  0.0632 -0.0036
31480W        W47664  12.954  10.684   1.044 -0.2078  0.1319 -0.2692
31481W        W47665   7.242   1.204  13.650  0.1235  0.0274 -0.1090
31482W        W47666  14.687   1.927  12.461 -0.0580 -0.1222  0.1065
31483W        W47667  16.390   7.522   0.577 -0.0437  0.0482  0.0840
31484W        W47668  14.799  17.129   5.107  0.1331  0.1308  0.0621
31485W        W47669  10.253  11.803   1.833  0.0657 -0.0497  0.3745
31486W        W47670   0.947  18.169   0.789 -0.0130 -0.2981  0.3232
31487W        W47671   0.502   3.728  12.824  0.0696  0.2493  0.1064
31488W        W47672   6.900   2.827   0.375  0.3236 -0.1500 -0.0580
31489W        W47673   6.325   5.668  12.561  0.0406  0.0656 -0.2857
31490W        W47674  17.848   1.424   4.806  0.2329  0.0433 -0.0031
31491W        W47675   9.338  17.149  12.438 -0.0486 -0.3193 -0.3213
31492W        W47676  17.041  15.139  13.310  0.0187  0.2503  0.2472
31493W        W47677   6.444  16.955  14.669 -0.4308 -0.1925 -0.3141
31494W        W47678  10.652  10.394   4.538 -0.1604 -0.1053 -0.0378
31495W        W47679   3.357  18.225  14.957 -0.2020  0.0774  0.4188
31496W        W47680   9.847   8.814   0.443  0.4424  0.1559 -0.2032
31497W        W47681   2.329  12.819   1.143  0.0909 -0.0726  0.3201
31498W        W47682   8.210  17.200  11.432 -0.2246  0.0766  0.0205
31499W        W47683   7.376  16.607   2.812 -0.0715  0.1321 -0.1132
31500W        W47684   4.840  15.660  14.067 -0.0660  0.3018  0.2641
31501W        W47685  17.663   1.385   0.154 -0.0562  0.2469 -0.2471
31502W        W47686   1.848   1.166  11.323  0.1172  0.1119 -0.1734
31503W        W47687  15.232  14.694   0.382 -0.2582  0.0801  0.0316
31504W        W47688   9.973  13.233  14.004 -0.2217  0.2010  0.4341
31505W        W47689   4.973   8.628  13.985  0.0172 -0.4207 -0.1119
31506W        W47690  14.156   7.065   1.569 -0.0193 -0.2005  0.2460
31507W        W47691  15.111   9.330   3.078 -0.1771  0.1292 -0.0248
31508W        W47692   5.102   4.876   1.476  0.2600  0.3390  0.0265
31509W        W47693  10.294  13.639   1.534 -0.0134  0.0099 -0.0544
31510W        W47694   0.297  15.559   5.531  0.0704 -0.2828 -0.3698
31511W        W47695  10.974  12.417  12.455 -0.1345 -0.0594 -0.2616
31512W        W47696  12.286   3.863  10.224  0.0146 -0.0998 -0.1601
31513W        W47697  17.254   1.956   2.453 -0.0696  0.0728 -0.1994
31514W        W47698   8.333  17.426  13.835  0.0989  0.0483  0.2015
31515W        W47699  17.125   1.323   1.004  0.1592 -0.0458 -0.4800
31516W        W47700   0.683   8.253  12.179  0.1771 -0.2236 -0.3465
31517W        W47701   8.869   5.900   5.294  0.0270  0.0853 -0.1113
31518W        W47702  18.825  18.667  15.166 -0.2401 -0.1303  0.0601
31519W        W47703   3.784   8.795  12.904  0.1459 -0.1729 -0.1682
31520W        W47704  11.591  12.328   3.467  0.2145 -0.1773 -0.1001
31521W        W47705   2.242  14.346  15.108  0.0719 -0.2807 -0.0261
31522W        W47706   4.906   0.814  10.630 -0.0875 -0.0921  0.1664
31523W        W47707  14.756   8.985   2.954  0.4328  0.0445 -0.4829
31524W        W47708  11.899  10.214  11.398 -0.1206  0.4290 -0.2633
31525W        W47709  14.888   0.015  12.372 -0.1976  0.0332  0.0660
31526W        W47710  15.263  16.379   5.369 -0.1891 -0.1573 -0.3001
31527W        W47711  12.747   1.206  11.026  0.0073 -0.1164 -0.1211
31528W        W47712  17.438  18.912   5.332 -0.0076 -0.0212  0.3367
31529W        W47713   1.198   0.286   0.017  0.4423 -0.0001  0.1775
31530W        W47714  12.481   4.550   4.309  0.1427  0.0147  0.0697
31531W        W47715   8.130  14.770   0.646 -0.0860 -0.1438 -0.0583
31532W        W47716   9.912   1.000  13.074  0.0054  0.0543  0.0673
31533W        W47717  12.041   5.447  15.114 -0.0882 -0.1332  0.1795
31534W        W47718  18.877  14.597   2.712  0.2272  0.5089  0.0668
31535W        W47719   3.628  15.631  13.450 -0.0510 -0.1610  0.0708
31536W        W47720  17.928  11.870   4.435 -0.1847 -0.3066  0.3493
31537W        W47721   6.462   7.109   2.854 -0.3732  0.2604  0.1037
31538W        W47722   7.093  17.079  13.904 -0.1439 -0.0675  0.2743
31539W        W47723  15.937   3.186   0.869 -0.2791 -0.1134  0.2638
31540W        W47724  18.333   8.145  13.718 -0.0364 -0.2856  0.0606
31541W        W47725   3.552   5.472   0.588 -0.4030  0.1158  0.0185
31542W        W47726   8.228  16.439   0.743  0.3160  0.1709 -0.0745
31543W        W47727  10.657  10.778  14.596  0.0010  0.0863  0.3074
31544W        W47728  18.274  10.235   0.538  0.2436 -0.0824  0.0076
31545W        W47729   4.813   8.304  13.663 -0.4211 -0.1581 -0.0719
31546W        W47730   3.327   6.081  13.221 -0.2114  0.5213 -0.1507
31547W        W47731   2.722  13.280   4.217 -0.0263  0.1745  0.2343
31548W        W47732   5.448  14.870   1.458  0.0750 -0.2143 -0.1671
31549W        W47733   2.618  12.358  11.023  0.3552  0.0291 -0.1784
31550W        W47734   2.952   6.329   4.737  0.0047 -0.0641  0.2122
31551W        W47735   8.035  17.731   3.295 -0.2096  0.0014 -0.1896
31552W        W47736  16.588  15.672   4.853  0.0536 -0.0154  0.2258
31553W        W47737  15.972  15.040  11.415  0.1284 -0.4033  0.0718
31554W        W47738   8.658  15.498  11.009  0.2996  0.1543  0.0306
31555W        W47739  16.759  11.557   1.499  0.2531 -0.3772  0.2018
31556W        W47740   0.674  10.617  13.707  0.1067 -0.3796 -0.2179
31557W        W47741   2.468   7.205   1.052 -0.3464  0.0318 -0.1998
31558W        W47742   8.614  13.744   4.051 -0.1701 -0.0905  0.1998
31559W        W47743   2.453   5.142   1.522 -0.2002  0.1423 -0.1720
31560W        W47744   6.308   1.636   5.715 -0.1079 -0.2460  0.1069
31561W        W47745  11.225  10.432  10.633  0.3057  0.0021  0.2746
31562W        W47746   6.268   8.229   4.375 -0.1275  0.2718  0.1668
31563W        W47747   3.374  15.588  12.287 -0.0464  0.2243  0.1594
31564W        W47748   2.290  11.392  12.320 -0.1264  0.2535  0.0565
31565W        W47749  15.410   5.095   2.013  0.0489  0.0664 -0.0438
31566W        W47750  10.501  13.971   2.613 -0.1564  0.1519 -0.1457
31567W        W47751  12.112  11.428  15.333 -0.0937 -0.0186 -0.0370
31568W        W47752   5.259  13.897   1.601  0.3229  0.4264  0.1122
31569W        W47753   3.445  11.782  14.658 -0.1560 -0.1165  0.0534
31570W        W47754  16.486   6.018  11.943  0.0118  0.2008 -0.0377
31571W        W47755   0.400   5.954   1.481 -0.1522  0.0636  0.1641
31572W        W47756  16.792  10.838  12.409 -0.1727  0.1352  0.1689
31573W        W47757   0.293  10.736   3.634 -0.1745  0.0171 -0.0151
31574W        W47758   6.456   7.579   2.505  0.2153  0.0107 -0.0060
31575W        W47759   5.389   8.303   0.244 -0.0562  0.0517 -0.1861
31576W        W47760   9.906  15.514  12.996  0.0070 -0.0291  0.2154
31577W        W47761  13.588   8.253   3.723  0.0109 -0.1044  0.1051
31578W        W47762  17.743   7.139  12.748 -0.3861  0.0425 -0.2784
31579W        W47763  17.678  12.365   0.125 -0.0155  0.2000  0.0540
31580W        W47764   1.282   8.602   2.367 -0.3220 -0.0575  0.0327
31581W        W47765  14.295  10.249  15.155  0.1313 -0.0036  0.2113
31582W        W47766   4.028  16.902   1.591 -0.0863 -0.1641  0.0198
31583W        W47767  16.468   3.635   3.363 -0.0529 -0.0878  0.0353
31584W        W47768   9.264  10.005  12.286  0.0639  0.0397  0.1046
31585W        W47769  18.476   5.880  12.757 -0.1125 -0.3152 -0.1116
31586W        W47770  17.865   1.705   2.170 -0.1834 -0.1391  0.1081
31587W        W47771   8.806  12.940  13.835 -0.2407 -0.2993  0.0294
31588W        W47772  12.836   7.005   4.901 -0.0927  0.0293 -0.0701
31589W        W47773   2.157   2.812   1.556  0.1204  0.2043 -0.1900
31590W        W47774  16.250   5.901   3.145  0.1110  0.0661  0.0629
31591W        W47775  10.311   7.586   1.221 -0.0582 -0.1266  0.2892
31592W        W47776  18.153   8.465   3.794  0.0257 -0.0569  0.0282
31593W        W47777   8.192  14.234  12.464 -0.1091 -0.1084  0.2891
31594W        W47778  14.776  17.552  14.893  0.1775  0.0351 -0.0677
31595W        W47779  11.785   3.195   3.416 -0.3097 -0.0540 -0.3518
31596W        W47780   0.523   9.996   4.294  0.2054  0.1399 -0.1515
31597W        W47781   4.401  18.227   5.268 -0.1614 -0.0264 -0.0873
31598W        W47782  11.900   0.389  14.085 -0.0605 -0.2098  0.1578
31599W        W47783  11.516  14.595  13.269  0.2028 -0.0281 -0.0596
31600W        W47784  14.092  11.034   5.156  0.1714  0.0846  0.0715
31601W        W47785  15.130   5.438  13.185  0.0427  0.2676  0.0589
31602W        W47786   5.764  13.437  11.730 -0.0242  0.0917  0.3355
31603W        W47787   1.634  16.234  11.167  0.1752 -0.1511 -0.2952
31604W        W47788   5.384   4.019   3.841  0.0477  0.1618  0.2184
31605W        W47789  10.965  11.691   3.325  0.3644 -0.0702 -0.2072
31606W        W47790   7.266   1.009   0.543 -0.3307 -0.1731  0.3219
31607W        W47791   0.767  16.466  13.934 -0.3465 -0.2202  0.0245
31608W        W47792  10.143   7.348  13.118 -0.0996  0.0163  0.0826
31609W        W47793   8.424   3.924   4.825  0.1809 -0.2711  0.0999
31610W        W47794   5.705  18.850   0.399  0.0971 -0.2675 -0.3153
31611W        W47795   8.770   7.944   3.072  0.3521  0.3053  0.0839
31612W        W47796  14.040  15.631   1.099  0.0470 -0.2763 -0.0788
31613W        W47797   6.667   4.103   4.698 -0.0657  0.3127  0.2294
31614W        W47798  13.111   0.245  11.889  0.1819  0.1138  0.3938
31615W        W47799   7.378   8.502  14.956  0.0770 -0.0592 -0.0264
31616W        W47800  15.078  13.036  14.100  0.1241  0.1077  0.2982
31617W        W47801  12.551   8.805   3.698  0.2861  0.5113 -0.1052
31618W        W47802   5.404   8.996  11.923 -0.2440 -0.0181 -0.0215
31619W        W47803  15.396  18.118  15.023 -0.3922 -0.0592  0.1619
31620W        W47804   6.270  16.679   4.064  0.0494 -0.0873 -0.1453
31621W        W47805   7.801  13.486  14.028 -0.0200 -0.0482 -0.0338
31622W        W47806   6.722   0.916   1.036 -0.1173  0.1526  0.1601
31623W        W47807   0.913   4.053   3.924  0.2086 -0.0458 -0.0078
31624W        W47808  18.240  15.607   3.802 -0.1772 -0.1648  0.0559
31625W        W47809   5.460   1.454  10.981 -0.0134 -0.1251  0.1772
31626W        W47810  17.217   8.432  12.871 -0.0490  0.0475 -0.4411
31627W        W47811   3.650   5.057  14.395  0.0949 -0.0448 -0.3778
31628W        W47812  12.674  16.730   2.025 -0.1213 -0.1267 -0.3908
31629W        W47813  11.518  10.368   4.617 -0.2012  0.3821 -0.3415
31630W        W47814   7.447   9.792   0.476  0.0143 -0.0579 -0.1766
31631W        W47815   7.691   2.209  12.763 -0.3046  0.1736  0.1147
31632W        W47816   3.591  14.129   1.394 -0.0634 -0.0053  0.2905
31633W        W47817   7.913  15.925  10.893 -0.2882  0.2358 -0.1963
31634W        W47818  13.393   9.431   3.670  0.0614 -0.0248 -0.1350
31635W        W47819   5.076  10.102  13.421 -0.0605 -0.0087  0.0781
31636W        W47820   0.248  12.443  11.202  0.0726  0.0368  0.0022
31637W        W47821  17.118   6.778   4.301 -0.0525  0.0157  0.1028
31638W        W47822   3.236  13.973  11.375  0.2193  0.0892  0.1808
31639W        W47823  10.040   7.872  13.223  0.1260  0.1599 -0.0359
31640W        W47824  12.320  10.833  14.514  0.1499  0.1001  0.1716
31641W        W47825   4.028  15.791   4.768 -0.0926 -0.0226  0.0064
31642W        W47826  17.112  13.261  12.484  0.0911 -0.0274  0.0283
31643W        W47827  15.200  10.810  13.942 -0.1292  0.2212  0.0545
31644W        W47828   9.621   2.342   4.451 -0.0030  0.0159 -0.0616
31645W        W47829  14.215  10.862   4.389 -0.3194 -0.1399  0.2070
31646W        W47830   9.190   6.819   4.501  0.0765 -0.2033 -0.0049
31647W        W47831   8.248  17.912  15.251  0.4247 -0.0299  0.2514
31648W        W47832  17.418   2.250   1.693 -0.2106  0.0970  0.1411
31649W        W47833   6.537   8.535   1.896 -0.1457 -0.0331 -0.4021
31650W        W47834  15.416  18.827   4.838 -0.3087 -0.0506 -0.0107
31651W        W47835   9.310   7.032   3.169 -0.1588 -0.1553 -0.1605
31652W        W47836  16.179  16.374  13.985 -0.0240 -0.1546  0.1333
31653W        W47837   0.423  10.150  11.759  0.3789  0.3077 -0.1521
31654W        W47838  12.067  13.258   0.921  0.0136  0.1080 -0.0787
31655W        W47839  10.881  18.054   4.096 -0.0793  0.0306 -0.0083
31656W        W47840  16.190  13.697  11.407  0.3467  0.2646  0.0291
31657W        W47841   4.792  17.970   5.361  0.0566  0.0524 -0.0396
31658W        W47842   9.476  16.574  14.441  0.2470 -0.0743 -0.0752
31659W        W47843   2.191  11.743  10.639  0.1091 -0.0818 -0.2964
31660W        W47844   4.198  14.572   2.017  0.2786  0.1143  0.1024
31661W        W47845   6.339   2.148   0.599 -0.0738 -0.0507 -0.0075
31662W        W47846   6.226   1.969   4.910  0.0700  0.0976  0.0304
31663W        W47847   0.378  10.249  12.258  0.3393  0.1465 -0.1316
31664W        W47848  11.882   8.818  13.004  0.0950  0.0944 -0.2216
31665W        W47849   7.410   9.770  14.736 -0.2319  0.2138  0.0155
31666W        W47850   9.599   0.722   4.732  0.1658  0.0209  0.0716
31667W        W47851   9.662   6.313  10.602  0.0109  0.0801  0.1300
31668W        W47852   9.802  11.376   0.001 -0.0845 -0.5369  0.2092
31669W        W47853   5.110   7.250   4.946  0.0628  0.0567 -0.1464
31670W        W47854  10.724  18.411  12.628  0.2104 -0.4362  0.0432
31671W        W47855  14.491   3.687  15.295 -0.1982  0.0992 -0.3401
31672W        W47856  14.079   7.369  15.075  0.2752 -0.3548 -0.3399
31673W        W47857   1.408  11.050   2.395 -0.2424 -0.1200  0.0096
31674W        W47858   6.918   1.546  12.877 -0.0461 -0.0006 -0.0868
31675W        W47859  12.750  14.472   5.122 -0.1076 -0.1473  0.1237
31676W        W47860  13.236  10.943  11.732 -0.1739 -0.2062 -0.0249
31677W        W47861   3.151   6.356   1.986  0.0974 -0.0904 -0.1097
31678W        W47862   1.730   8.412   4.516  0.1021 -0.0633  0.3326
31679W        W47863  12.567  13.384   3.190  0.0014 -0.0752  0.2760
31680W        W47864  18.457  16.732   2.129 -0.2468 -0.1444  0.3430
31681W        W47865  16.670   0.542  11.884 -0.1381  0.2412 -0.2557
31682W        W47866   7.598   0.604   2.279 -0.0320 -0.4160  0.5352
31683W        W47867   8.487   3.290   3.277  0.1949  0.2068  0.2530
31684W        W47868   4.862  15.635   1.056  0.1467  0.0304 -0.1037
31685W        W47869  13.663  15.259   3.924 -0.0242 -0.0059 -0.2558
31686W        W47870  17.581   3.028  14.747  0.2749  0.0958 -0.2025
31687W        W47871  18.702  13.778  13.698 -0.0472  0.3498 -0.1209
31688W        W47872  15.675   9.762  13.952  0.1494 -0.0908 -0.0316
31689W        W47873   5.929   7.069   0.884 -0.1975 -0.1659 -0.2882
31690W        W47874   4.450   9.969   4.823  0.0186 -0.1756 -0.2984
31691W        W47875   6.062  18.215   4.795  0.0337 -0.1022 -0.3991
31692W        W47876  11.049   8.216  14.897  0.3254  0.3213  0.1331
31693W        W47877   9.277  17.177  13.878  0.0281 -0.1032  0.3157
31694W        W47878  17.295  17.290  14.094 -0.1037  0.0307  0.0228
31695W        W47879  10.411   9.708   4.163  0.1247  0.3707  0.1123
31696W        W47880  16.020  12.535  12.579 -0.0878  0.0098  0.4514
31697W        W47881   8.635   0.843   2.692  0.0308  0.2370  0.0526
31698W        W47882  12.009   4.999   0.888  0.2264  0.1036  0.3417
31699W        W47883  11.995   4.958  15.219  0.0559 -0.0661 -0.0598
31700W        W47884   6.306   5.350  15.288  0.1383 -0.1533  0.0745
31701W        W47885  17.006  16.057   4.804  0.0641  0.0302 -0.1096
31702W        W47886   5.309  18.863   2.388  0.3741 -0.3131  0.0737
31703W        W47887  11.924   5.228   9.837 -0.0580 -0.1835 -0.0021
31704W        W47888   9.865   5.382   2.604  0.0866  0.1849  0.2013
31705W        W47889  17.550   6.883  13.207  0.1772 -0.0342 -0.0705
31706W        W47890   5.043  12.488   0.846 -0.2886 -0.0658  0.2324
31707W        W47891  16.513   5.497   3.168  0.0425  0.2121  0.0337
31708W        W47892   9.941  14.674   3.478 -0.4360  0.1369 -0.0422
31709W        W47893   4.528   2.779  13.757 -0.0084 -0.0208  0.2472
31710W        W47894   8.917  12.822   3.174  0.0373  0.0304  0.1035
31711W        W47895   7.763   0.778   3.168 -0.1084  0.2725  0.0330
31712W        W47896   0.705  11.391   2.068 -0.0042 -0.1494  0.1069
31713W        W47897   3.492   6.131  12.066  0.1555 -0.0302 -0.2676
31714W        W47898   3.797  16.557   0.782  0.4781 -0.1946 -0.0978
31715W        W47899  15.827   8.012   4.883  0.1883  0.2151  0.1244
31716W        W47900   3.818  18.890   2.255  0.1391  0.1287  0.1405
31717W        W47901   0.801   5.838   1.067 -0.0713  0.1120 -0.2195
31718W        W47902   1.072  10.290  13.708  0.0262  0.1170 -0.0918
31719W        W47903   1.366  17.317  11.650  0.1280 -0.0892  0.1526
31720W        W47904  11.283   7.910   4.810  0.0083 -0.2827  0.1970
31721W        W47905  12.597  15.282   3.884 -0.1591  0.0441  0.0770
31722W        W47906   1.980  11.702   4.059  0.1846 -0.1085 -0.0344
31723W        W47907   8.139  14.485   3.846  0.3155  0.1429  0.4345
31724W        W47908  14.822   8.547  10.683  0.0637 -0.2058 -0.0237
31725W        W47909   5.131   4.303   1.198 -0.0293 -0.1036 -0.1978
31726W        W47910  13.468   7.632  15.345 -0.0855  0.1853 -0.1816
31727W        W47911  10.220   2.379  15.197 -0.0303 -0.1234  0.0306
31728W        W47912   7.885   5.095  15.384 -0.0236 -0.1585 -0.0565
31729W        W47913  10.972   7.425  10.153 -0.1366  0.1502  0.1491
31730W        W47914   0.848   2.453   5.698 -0.1605  0.2443 -0.3952
31731W        W47915  10.233   2.305  12.266  0.0321  0.0277  0.2922
31732W        W47916  10.776   1.699   2.293  0.0842  0.3672  0.1488
31733W        W47917  16.976  11.183  10.821  0.0797 -0.0581 -0.1299
31734W        W47918  16.225  15.938   5.556 -0.2184  0.1789 -0.1242
31735W        W47919  11.629   0.959   3.802 -0.1172 -0.1962  0.0719
31736W        W47920   6.117   1.892   2.380  0.0156 -0.2775  0.1353
31737W        W47921   7.437  16.807   5.499  0.2727 -0.3426  0.3232
31738W        W47922  12.286   8.665   4.384 -0.0828 -0.1892  0.0056
31739W        W47923   5.998  16.683   0.887 -0.0371  0.0588  0.0205
31740W        W47924   9.308  17.885  14.903 -0.4780  0.3071  0.1847
31741W        W47925  16.508   7.712   2.763 -0.0345  0.1017  0.1091
31742W        W47926  13.119  16.561   3.877  0.1033  0.0365 -0.0326
31743W        W47927   3.141  14.865  11.457  0.2663 -0.0946 -0.1817
31744W        W47928   3.477   9.503   1.270  0.0732 -0.2740  0.2939
31745W        W47929   4.283  16.534   4.131 -0.0184  0.0173  0.1250
31746W        W47930  17.984   2.226   4.675 -0.2190 -0.1924 -0.1438
31747W        W47931   8.756   0.339  10.648  0.0860  0.2335  0.0187
31748W        W47932   8.634  13.618   0.988 -0.0016  0.1072  0.1619
31749W        W47933   8.773   7.606   0.099 -0.0356  0.0294  0.0999
31750W        W47934   3.855  16.319  15.286  0.0542  0.0441  0.0062
31751W        W47935   2.450   3.623   4.985  0.1346 -0.0570  0.0665
31752W        W47936  18.294   1.691   1.898 -0.1883 -0.2569  0.4219
31753W        W47937  12.167   1.426  11.690  0.1589  0.0555 -0.1330
31754W        W47938  14.531   7.784   2.259 -0.1230  0.0179 -0.0016
31755W        W47939  10.792  16.072  11.722  0.3335 -0.3708  0.0564
31756W        W47940  18.258  16.879   1.726 -0.0818  0.2022  0.0800
31757W        W47941  17.951   6.684  11.097 -0.0273 -0.0480  0.0293
31758W        W47942  13.651  15.027  14.591  0.1964 -0.1773 -0.3236
31759W        W47943  11.021  16.863   3.899  0.0348 -0.1516  0.0916
31760W        W47944   9.167   5.322  11.900  0.0491 -0.3316  0.1488
31761W        W47945   1.361  15.042   2.146  0.5318 -0.1342 -0.0659
31762W        W47946  12.183   9.390   3.876 -0.0779  0.1359  0.0194
31763W        W47947   7.176   3.287   1.530 -0.4316  0.2496 -0.0876
31764W        W47948  13.181   7.832   1.712 -0.4753 -0.2477 -0.1127
31765W        W47949  13.731   9.785  12.930  0.0151 -0.3337 -0.1346
31766W        W47950  17.501  15.333  13.201  0.0142 -0.2426 -0.1969
31767W        W47951   4.965  14.627   1.053 -0.0079 -0.2034  0.2383
31768W        W47952   8.951  18.062   1.012  0.0590  0.1588  0.2482
31769W        W47953   4.634   6.364  11.546  0.1557 -0.2681  0.0807
31770W        W47954  18.286  16.620   5.406 -0.0019  0.2637 -0.1898
31771W        W47955   6.493   9.476   2.292 -0.0008 -0.0228  0.1130
31772W        W47956   0.540   1.768   3.741  0.0422 -0.1549  0.0531
31773W        W47957   5.032   4.771  11.833  0.4491  0.1534 -0.0802
31774W        W47958   9.052  18.903   2.391 -0.2506  0.1404  0.2848
31775W        W47959   8.739   5.572   0.018  0.1777  0.0033  0.0085
31776W        W47960   1.580  16.989   3.674  0.0493  0.0594 -0.3863
31777W        W47961   2.443   6.026  14.207 -0.3610  0.1189  0.1069
31778W        W47962  11.119  15.190  11.417  0.3821 -0.0148  0.0246
31779W        W47963   4.500   9.413   0.196 -0.2463 -0.2679  0.3146
31780W        W47964   5.391  13.384  11.147  0.0847 -0.5090 -0.2003
31781W        W47965   8.744   0.036   1.847  0.3396  0.1952 -0.0007
31782W        W47966  17.015  10.171  12.590  0.0547  0.1555  0.1089
31783W        W47967   3.904  15.345   0.689  0.0058  0.0525 -0.3127
31784W        W47968   7.720   7.446   5.870 -0.0762  0.1317 -0.1641
31785W        W47969  13.189   1.740   4.425  0.1103 -0.0095  0.0946
31786W        W47970   4.779   2.097   3.753 -0.0762  0.1468  0.3596
31787W        W47971  17.656   8.187  14.474  0.0127 -0.2076  0.2489
31788W        W47972   2.282  15.309  13.034 -0.1882  0.0752 -0.3151
31789W        W47973  16.699  11.104  12.906  0.1451 -0.3318  0.2303
31790W        W47974  13.282   6.864  14.250 -0.0977  0.1443  0.0097
31791W        W47975   8.699  14.713  14.171 -0.0267 -0.1844 -0.2489
31792W        W47976  16.762   8.753   1.026 -0.1404 -0.0952  0.0467
31793W        W47977  11.187   3.458  13.327 -0.0787 -0.3279 -0.4421
31794W        W47978   8.568   4.905   3.202  0.2254  0.1436  0.1444
31795W        W47979   2.629  17.931  12.896 -0.2827 -0.1541  0.1177
31796W        W47980   5.370   8.349   3.897  0.1109 -0.0446 -0.4219
31797W        W47981  18.368  12.610  14.322  0.0348  0.0034  0.2856
31798W        W47982   0.647  10.458   3.949 -0.0593  0.2668 -0.1630
31799W        W47983  13.844   1.427   0.557 -0.0590  0.1185  0.2119
31800W        W47984   5.495  15.753  10.566 -0.0306 -0.2672 -0.2280
31801W        W47985  15.158  18.586  10.511 -0.2875 -0.1622 -0.5041
31802W        W47986  16.962  12.439  12.059 -0.0988  0.3387  0.1645
31803W        W47987  15.580   3.431  12.274  0.3727  0.2171  0.1520
31804W        W47988   2.672   8.502   0.929 -0.1802  0.2694 -0.1261
31805W        W47989   3.149   7.645  14.512  0.0584  0.2667  0.1664
31806W        W47990   2.693   1.833  10.618  0.2613 -0.0727  0.0580
31807W        W47991  15.548   9.466   1.628 -0.0472 -0.0263  0.0013
31808W        W47992  11.088  15.233   2.123 -0.0806 -0.1468  0.2802
31809W        W47993  18.034  10.750  14.011  0.0661 -0.3468 -0.2066
31810W        W47994   8.031  17.535   1.268  0.0996 -0.2367  0.0917
31811W        W47995   6.761   8.670  11.026 -0.3382 -0.2147  0.1290
31812W        W47996   2.399   4.046   2.168 -0.1018  0.2256 -0.2784
31813W        W47997  17.979   0.891  11.607  0.2369 -0.0518  0.0288
31814W        W47998  15.462  16.684  10.952  0.1058 -0.3194 -0.1915
31815W        W47999   8.824   4.536   4.149  0.2785  0.3973  0.0340
31816W        W48000   0.067   1.676   1.616  0.0689  0.0822  0.0865
31817W        W48001   5.563  11.432   2.289  0.1580 -0.2152  0.0567
31818W        W48002   5.246   7.582  10.599  0.2083  0.2749 -0.0881
31819W        W48003   6.769   6.695   5.069 -0.0068 -0.1392  0.3735
31820W        W48004  11.997  10.895   9.750  0.1895 -0.2555 -0.2058
31821W        W48005  15.008   6.871  13.628  0.0240  0.1488 -0.0584
31822W        W48006  17.480  14.094  11.372  0.3027 -0.0997 -0.0944
31823W        W48007   3.622   2.580   0.229 -0.0698 -0.1579  0.1512
31824W        W48008  14.921   0.707   1.827  0.2394  0.1797  0.2063
31825W        W48009  14.128   0.230  13.950  0.3019  0.1872 -0.0408
31826W        W48010   5.466  14.327   2.378  0.1627  0.1103  0.0650
31827W        W48011  18.501  10.247  15.052 -0.0421 -0.2158 -0.0808
31828W        W48012   4.184   6.487   5.310 -0.5482 -0.4634  0.3109
31829W        W48013   4.478   6.326   1.592 -0.1956  0.0873 -0.0165
31830W        W48014   6.190  10.431   0.459 -0.1137 -0.1974  0.1703
31831W        W48015   6.531  17.558   3.350  0.0703 -0.2891  0.0198
31832W        W48016   7.358  13.812   2.803 -0.2629 -0.0118 -0.1390
31833W        W48017  12.021   7.908   3.855 -0.2162  0.2264 -0.1754
31834W        W48018   5.334  13.491   4.191  0.0197 -0.1153 -0.0023
31835W        W48019   4.481   1.404   2.390  0.1480 -0.0768  0.2075
31836W        W48020   2.211   3.186   2.955  0.0369 -0.0125  0.4656
31837W        W48021  15.272  10.446   3.051  0.3451  0.2517 -0.0685
31838W        W48022   3.171   8.226   0.858 -0.0922  0.1464  0.1177
31839W        W48023  16.211  17.196  13.353 -0.0474 -0.1649 -0.0160
31840W        W48024   8.670  10.659  10.724 -0.2374 -0.1745 -0.1286
31841W        W48025  14.380   1.157  14.232  0.1802 -0.2855 -0.1815
31842W        W48026   1.239  10.306   2.813 -0.1155  0.1737  0.1051
31843W        W48027  15.541   1.353  13.361 -0.0115  0.0997 -0.0892
31844W        W48028  13.550   8.464   2.742  0.1066  0.0871  0.2327
31845W        W48029   1.675  17.101   5.274 -0.0914 -0.1059  0.3082
31846W        W48030  11.807   0.761   4.224  0.2532  0.2228  0.0038
31847W        W48031   6.111  18.298  15.272  0.0091  0.1348 -0.0076
31848W        W48032  16.573  18.904  13.022  0.0522  0.1795 -0.2550
31849W        W48033  13.191   5.255  13.322 -0.1225  0.0577 -0.1984
31850W        W48034  17.480   0.303   3.724 -0.2938 -0.2465 -0.2118
31851W        W48035   4.454  13.210   4.867  0.0935 -0.1770 -0.0929
31852W        W48036   6.044   3.274   2.776  0.1501  0.2558 -0.1451
31853W        W48037   4.276   1.456   4.363 -0.0845  0.2452 -0.1415
31854W        W48038  10.554  18.481   2.994 -0.1422 -0.0739 -0.0627
31855W        W48039  10.536  11.565  11.553 -0.0235  0.3567 -0.2846
31856W        W48040   7.062   1.565   4.809  0.2007  0.0698  0.1802
31857W        W48041   4.573  14.585   4.112  0.0251  0.1706  0.2238
31858W        W48042   2.866   7.533   5.388  0.1900  0.2717  0.1539
31859W        W48043   6.740   5.391   1.990 -0.1911 -0.0411 -0.3083
31860W        W48044   1.100   6.869   0.026 -0.2790 -0.1330 -0.2941
31861W        W48045   3.232   8.523   3.661 -0.0736  0.1006 -0.1697
31862W        W48046   7.466  17.642   9.607 -0.0939 -0.2543 -0.2215
31863W        W48047   3.071  15.387   1.627  0.2291 -0.1278  0.0417
31864W        W48048   5.060   5.231   5.244  0.1431  0.2575 -0.1726
31865W        W48049   4.114   5.158  13.511  0.1378  0.2468 -0.0346
31866W        W48050   7.107  15.000  12.958 -0.0164  0.1268 -0.1903
31867W        W48051  14.841   3.739  11.105 -0.3123  0.0634 -0.1971
31868W        W48052  10.831  14.516   3.854  0.3388  0.1898 -0.1704
31869W        W48053   6.196  12.038   4.539  0.1588  0.0765  0.1297
31870W        W48054   4.519  14.922  14.725 -0.0424 -0.0926  0.0069
31871W        W48055  14.613   6.520  13.824  0.6085  0.0514  0.1208
31872W        W48056  13.589   5.675   4.417 -0.0312  0.0871  0.1400
31873W        W48057  12.953   1.453  14.202 -0.1302 -0.1097 -0.0252
31874W        W48058   0.359  11.235  15.315 -0.0065 -0.1947  0.1129
31875W        W48059   2.944   8.789  13.545  0.2706 -0.2691  0.3730
31876W        W48060   0.481   6.107  15.136 -0.1141  0.1953 -0.1629
31877W        W48061  13.379   7.824   4.505  0.2369  0.1462 -0.0500
31878W        W48062  11.629   5.681  12.766  0.0864  0.0761 -0.3214
31879W        W48063   6.105   4.945   3.408 -0.2461 -0.1792 -0.0936
31880W        W48064   7.465   7.264  11.927 -0.1847 -0.0875  0.0291
31881W        W48065   1.493   7.572   3.359  0.0156  0.0116  0.2152
31882W        W48066  18.847  11.842  11.924  0.2359  0.2167 -0.3201
31883W        W48067  10.564   6.022  11.506  0.1225  0.1363  0.0034
31884W        W48068  14.533  14.681   4.779 -0.1541 -0.0067 -0.0148
31885W        W48069  13.975  11.999  14.403 -0.4331 -0.1371 -0.1711
31886W        W48070   3.427   0.522  12.721 -0.0153  0.2635  0.2887
31887W        W48071   1.523  12.464   2.378  0.0141 -0.1470 -0.1446
31888W        W48072  10.911   8.248   0.871  0.0729 -0.2364  0.1400
31889W        W48073  11.158  14.564  10.054 -0.1158 -0.0039 -0.1705
31890W        W48074   7.596   2.585  11.092 -0.0746  0.0760 -0.3228
31891W        W48075   5.389  14.462   5.132 -0.1513  0.0632  0.1763
31892W        W48076   6.038   1.786  13.202  0.0721  0.2529  0.2448
31893W        W48077   2.816   3.729   4.695 -0.7659 -0.0785 -0.2455
31894W        W48078   7.320  18.133   0.265 -0.1436 -0.1487 -0.1678
31895W        W48079  17.267  11.221  14.805 -0.3720 -0.3731  0.2598
31896W        W48080  10.560  12.517   0.620 -0.2658 -0.0713  0.1407
31897W        W48081   1.187   2.746  14.648 -0.1349 -0.0549 -0.1395
31898W        W48082  12.159  10.025  10.978 -0.0386  0.1280 -0.0284
31899W        W48083   3.054  18.119   0.888  0.1810  0.0023  0.0693
31900W        W48084  18.112  18.781   1.019  0.0295  0.2734 -0.0629
31901W        W48085   7.930  13.373  13.349 -0.0215  0.1224  0.3655
31902W        W48086   7.070  15.341   3.127  0.3340 -0.1771  0.2453
31903W        W48087   1.642  10.915  13.897 -0.1253  0.1760  0.3397
31904W        W48088  16.521  17.762   5.024  0.1009 -0.1463 -0.2246
31905W        W48089  11.178   0.152  12.064  0.0233  0.0636 -0.0054
31906W        W48090   6.218  10.247   3.796 -0.1383 -0.0459 -0.2526
31907W        W48091   6.385  13.471   2.835  0.0318  0.3303 -0.0112
31908W        W48092   7.938   4.750   1.932  0.3296 -0.0824  0.1895
31909W        W48093   7.190   0.495  13.004  0.0725 -0.0991 -0.3357
31910W        W48094   7.402   1.225   4.494  0.2605  0.0286  0.0940
31911W        W48095   5.785   5.871   5.760 -0.0780 -0.0201 -0.0471
31912W        W48096  14.687  17.346   4.181 -0.2385 -0.2918 -0.0468
31913W        W48097  11.184   6.361  14.451 -0.1822  0.2614  0.0895
31914W        W48098   8.593  13.080  12.642  0.1577  0.1737  0.0793
31915W        W48099   6.650   6.389  10.869  0.0589  0.2059 -0.2093
31916W        W48100  12.566  18.415   3.233 -0.0819  0.1200 -0.0654
31917W        W48101   4.197   0.462   3.914  0.1547 -0.2997 -0.2693
31918W        W48102  13.705  16.009   1.303  0.2080 -0.1114  0.1250
31919W        W48103   3.992   0.262  12.065  0.0894 -0.3265 -0.3418
31920W        W48104   2.218   8.523   4.681  0.3166  0.0390  0.1254
31921W        W48105  10.498   1.003   4.467 -0.0676  0.4443 -0.2104
31922W        W48106  18.943  16.030  11.252 -0.1447 -0.0118  0.0887
31923W        W48107  18.862  14.663   0.019  0.2081  0.1939  0.3612
31924W        W48108  15.888  15.678  10.010  0.0550 -0.0459  0.0898
31925W        W48109  18.104   2.390   3.371 -0.0504  0.2036 -0.0467
31926W        W48110  16.148   3.500   2.105 -0.0182 -0.1061 -0.1198
31927W        W48111   7.262   6.288   2.861  0.0493 -0.1509 -0.0756
31928W        W48112   9.027  16.229  11.622  0.0500 -0.1895  0.4552
31929W        W48113  17.946   7.554  15.109  0.0319 -0.2030 -0.1599
31930W        W48114  12.553   0.007  13.578  0.1092  0.1901 -0.0321
31931W        W48115  16.529   6.279   2.689 -0.0876 -0.0445  0.2054
31932W        W48116   2.839   8.889   5.590  0.2444 -0.2036  0.1235
31933W        W48117   9.319  12.462  14.008  0.0140 -0.0435 -0.2119
31934W        W48118   2.323   4.336   5.423 -0.4697  0.0695 -0.1840
31935W        W48119  10.875  10.301  14.410  0.1064  0.0319  0.0504
31936W        W48120  17.794   1.886  15.019 -0.1229  0.1987 -0.3398
31937W        W48121   7.239  17.888   3.769  0.1640 -0.2820  0.1512
31938W        W48122   5.152   7.593   2.186 -0.0468 -0.2799 -0.1648
31939W        W48123   7.989  17.768   0.800 -0.0340 -0.1604 -0.0146
31940W        W48124   1.677  10.114  13.112  0.1674 -0.0942 -0.0145
31941W        W48125   2.108   3.774  10.553 -0.1420 -0.0379  0.2762
31942W        W48126  16.237  17.688  12.837 -0.0412  0.1532  0.1051
31943W        W48127  11.667   1.909   3.449  0.0557 -0.0773 -0.1914
31944W        W48128  16.252   1.254   2.656  0.0599 -0.0821 -0.0513
31945W        W48129  13.912   7.804  12.937 -0.3566 -0.2097 -0.0391
31946W        W48130  18.743   4.895   4.875  0.3410 -0.1826 -0.0344
31947W        W48131   6.721   0.412   2.475  0.2706 -0.1229 -0.1937
31948W        W48132   1.992   6.495   0.811 -0.4635  0.1283  0.2445
31949W        W48133   9.231  13.613  10.646  0.2934 -0.1509 -0.1081
31950W        W48134  10.279  18.542  12.433  0.3086 -0.1492 -0.2520
31951W        W48135  15.425   7.727  11.133  0.0948  0.1004 -0.1496
31952W        W48136   2.543   8.714  11.049  0.2691  0.2074  0.0493
31953W        W48137   8.534  16.154   2.609 -0.1399  0.1181  0.1237
31954W        W48138  13.133  16.706   2.964  0.0561 -0.1647  0.1946
31955W        W48139   7.541  13.240   2.149  0.0520 -0.0189  0.0844
31956W        W48140   2.637  15.825   3.672 -0.1514  0.3337 -0.0529
31957W        W48141  10.410  10.215  11.023 -0.1779 -0.1300  0.1570
31958W        W48142  14.948   6.774  11.897  0.1830 -0.3560 -0.1939
31959W        W48143  15.523   4.114  10.794 -0.0270  0.1947  0.1313
31960W        W48144  15.386  14.259  11.139 -0.1807  0.1216 -0.2525
31961W        W48145   6.105   6.254   0.183  0.0785 -0.0522  0.1006
31962W        W48146  10.242   0.110  13.007  0.1816  0.0976 -0.1590
31963W        W48147  15.259   8.319   2.070  0.3218 -0.1326  0.0142
31964W        W48148  13.737  16.094  14.920  0.3731 -0.3653 -0.2815
31965W        W48149  12.087  12.648   1.598 -0.3243  0.3197 -0.1384
31966W        W48150  18.247   0.823   3.872 -0.0395  0.1308 -0.2687
31967W        W48151   7.142  12.982   4.495  0.1912 -0.0125  0.2240
31968W        W48152   9.981  14.975  12.957 -0.1502 -0.0712 -0.0460
31969W        W48153   0.185   9.159  13.136  0.0271 -0.0322 -0.0014
31970W        W48154  14.298  18.545  13.240  0.2871 -0.1100 -0.1831
31971W        W48155  14.330  14.464  13.567  0.0999  0.2307 -0.3956
31972W        W48156  16.615  10.287  12.321 -0.1444  0.3913 -0.2189
31973W        W48157   4.134  10.783   0.765 -0.2051 -0.2360 -0.0060
31974W        W48158  13.862   7.552  14.441 -0.3339  0.0518  0.2940
31975W        W48159   9.355  10.401  11.363 -0.0078  0.0852  0.2423
31976W        W48160   6.435   1.423   3.661 -0.1503 -0.4167  0.1017
31977W        W48161  14.615   6.521  14.675  0.0591  0.2306  0.0374
31978W        W48162  15.522   1.354   4.564 -0.1988  0.0267 -0.2036
31979W        W48163   5.520  10.518   3.271  0.0833 -0.2211 -0.2244
31980W        W48164  10.953   3.198  10.825  0.1027  0.2433  0.1393
31981W        W48165   6.030   1.240  15.233  0.1079 -0.0236  0.1356
31982W        W48166   6.439   0.136  14.807 -0.2080  0.1613 -0.0416
31983W        W48167   2.666   2.724   0.369 -0.0797 -0.3158  0.0954
31984W        W48168   9.617   0.092  11.598 -0.5000 -0.1024 -0.1237
31985W        W48169   0.653   6.085  13.726  0.2922 -0.1969  0.0311
31986W        W48170   3.981   2.189   1.812 -0.0519  0.1912 -0.0935
31987W        W48171   0.853  10.768  11.406  0.0084 -0.1749 -0.0779
31988W        W48172   0.721   5.666   3.955  0.0255 -0.0031 -0.0431
31989W        W48173   2.118   1.473  13.529 -0.0118 -0.0609  0.0381
31990W        W48174   4.674   6.642   0.756 -0.1202 -0.0657 -0.0953
31991W        W48175  14.081   7.875  15.289  0.1597 -0.1109 -0.0976
31992W        W48176  12.063   1.095  13.031 -0.0136  0.3982  0.1537
31993W        W48177  15.366  16.153  10.967 -0.1970  0.1443  0.1076
31994W        W48178  18.986  15.508   3.142 -0.0071 -0.2001 -0.3614
31995W        W48179   3.700   4.581  14.203  0.1807  0.2863  0.2976
31996W        W48180   0.730  15.122   0.353 -0.1021 -0.3831  0.0183
31997W        W48181  15.790  13.214   0.315 -0.3560 -0.1491  0.0760
31998W        W48182   7.742  14.101   3.692 -0.1113 -0.1147 -0.1374
31999W        W48183   2.501  18.066  15.003  0.1812  0.2773 -0.2951
32000W        W48184  17.209   0.025  15.122 -0.3659  0.1120  0.3243
32001W        W48185  16.730   0.180   0.699 -0.0988  0.2340 -0.2750
32002W        W48186   2.432   1.472   1.362 -0.0959  0.1912  0.2406
32003W        W48187  11.269  18.598   9.602 -0.1530 -0.1199  0.1343
32004W        W48188   0.842  15.564   2.875  0.0826  0.1350 -0.0161
32005W        W48189  10.004   0.282   3.683  0.3700 -0.2367 -0.0226
32006W        W48190   8.550  15.997  13.411  0.0084  0.0670 -0.1424
32007W        W48191   0.120   8.746   4.305 -0.0253  0.0087  0.1361
32008W        W48192  18.299  14.163  14.903 -0.2168  0.3974 -0.1468
32009W        W48193   5.238  12.283  10.732 -0.3406  0.0114  0.1038
32010W        W48194   5.069   1.091  13.071 -0.1200  0.1711 -0.1668
32011W        W48195  14.162  13.292   1.360  0.0196  0.2887  0.5063
32012W        W48196   6.578  14.561  11.181  0.0208 -0.0235  0.1259
32013W        W48197   0.835   5.348  12.393 -0.2820 -0.0686  0.0369
32014W        W48198  16.480  18.466   1.369 -0.0847  0.2553  0.3136
32015W        W48199  16.200   9.577   1.086 -0.2518  0.0335 -0.2018
32016W        W48200  16.821   2.989  10.928 -0.0752 -0.0416 -0.1207
32017W        W48201  16.078   0.936   2.990  0.0012 -0.0681  0.0139
32018W        W48202   6.897  16.319  10.701  0.0987 -0.0779  0.3041
32019W        W48203  12.714  12.988  13.674  0.1645 -0.1990 -0.4662
32020W        W48204  18.883   1.634   4.875  0.2735  0.2029 -0.0845
32021W        W48205  16.866   7.631  10.975 -0.0532 -0.0283 -0.0162
32022W        W48206  17.727  11.545  13.960  0.1301  0.0391  0.0368
32023W        W48207  10.967  15.687  14.071 -0.0099  0.0690  0.2306
32024W        W48208  13.504  12.317  10.806  0.1477  0.1789 -0.0912
32025W        W48209   3.617  12.195   0.152  0.0490  0.0516 -0.3337
32026W        W48210  18.754  13.007  12.780 -0.0685 -0.1684 -0.3318
32027W        W48211   4.773  16.641   2.182 -0.3974 -0.0229 -0.4886
32028W        W48212   9.125  12.441   2.835 -0.3061  0.2352  0.0291
32029W        W48213  12.486  10.704  13.992 -0.0286  0.2754 -0.3477
32030W        W48214   2.406  13.714   1.664  0.0850 -0.0637 -0.1333
32031W        W48215   9.768   6.451   1.770  0.0039  0.0311 -0.0799
32032W        W48216  11.485  13.050   0.224 -0.0785 -0.1664  0.3317
32033W        W48217  15.802   1.459  14.349 -0.2379  0.3491 -0.1022
32034W        W48218   6.716   7.665   4.664  0.2291  0.2234 -0.2814
32035W        W48219  10.148   0.568  10.901  0.1040  0.0828 -0.3476
32036W        W48220   7.915  11.247   3.761  0.0988  0.0518 -0.1291
32037W        W48221   6.798   1.556  10.287  0.1034 -0.5462  0.2205
32038W        W48222   1.018   5.533   2.005  0.1587  0.0377  0.0810
32039W        W48223   2.214   2.213  11.356 -0.0528 -0.2002  0.0755
32040W        W48224   4.884  13.741   4.236 -0.1004 -0.0380 -0.0852
32041W        W48225   1.918  16.573  12.506  0.2359  0.0428  0.2408
32042W        W48226  18.809   0.043  14.326  0.1857  0.1717  0.0456
32043W        W48227  16.548  12.322   2.632  0.0740  0.0304  0.4802
32044W        W48228   5.472   1.569   4.544  0.1155  0.0630  0.0448
32045W        W48229   8.453   8.110   4.286  0.1568  0.3046 -0.0566
32046W        W48230   5.656  17.756   1.656  0.0515  0.0941  0.1386
32047W        W48231  10.047   9.488  13.371 -0.0928 -0.1151 -0.0407
32048W        W48232   4.450   2.290  15.118 -0.1275 -0.1570  0.1840
32049W        W48233   8.899   2.243  14.632  0.2152 -0.2614 -0.0047
32050W        W48234   9.861  16.903   0.934  0.2298  0.0236  0.3059
32051W        W48235   5.012   3.787   4.580  0.4063  0.1985  0.2635
32052W        W48236  12.613   4.601   1.060 -0.1173 -0.0985 -0.1094
32053W        W48237   9.792   8.747  10.723  0.2691 -0.2346 -0.3997
32054W        W48238   4.628   3.088   3.489 -0.3534 -0.0028  0.1411
32055W        W48239   0.633  12.318   1.008 -0.2280  0.1982  0.1133
32056W        W48240   2.408   4.868   0.713  0.2787  0.1957  0.0344
32057W        W48241   7.870  16.458  15.045  0.0140 -0.1499  0.1451
32058W        W48242  11.487  18.210   0.050  0.1975  0.1329 -0.2736
32059W        W48243  18.128   5.374  14.212  0.4189 -0.2466 -0.0676
32060W        W48244   6.037   4.014  10.523 -0.4577  0.0806 -0.0111
32061W        W48245  11.660  14.303   1.037  0.0608  0.2175  0.0142
32062W        W48246   1.688  17.064  12.578  0.0949 -0.0411 -0.0596
32063W        W48247  16.020   1.160   4.001  0.0187 -0.0437 -0.1688
32064W        W48248  15.001  10.029   4.406  0.0059 -0.0323  0.2505
32065W        W48249  12.429  10.853  11.347 -0.0509 -0.3393 -0.0931
32066W        W48250  18.835   9.926   4.401 -0.0287 -0.0723  0.0747
32067W        W48251   2.182  12.673   4.504 -0.0989  0.1553 -0.4751
32068W        W48252  12.306   2.895  13.005  0.1228  0.0927 -0.1150
32069W        W48253  12.804   5.185   0.362 -0.2470 -0.1007  0.1490
32070W        W48254   4.159   5.619  13.376  0.1175 -0.0752  0.0040
32071W        W48255   0.247   7.943   0.458 -0.0740  0.1411 -0.3095
32072W        W48256  15.327  10.873  10.770  0.0532 -0.0816  0.0152
32073W        W48257  10.245  18.061   0.766  0.1190  0.3593 -0.3108
32074W        W48258   0.131   7.310  13.933 -0.3894 -0.1983  0.5140
32075W        W48259   4.331  15.661   1.395  0.1158 -0.3440 -0.0883
32076W        W48260  12.023  17.186  12.379 -0.0034 -0.0617  0.1899
32077W        W48261  16.136  17.800   0.163  0.4402  0.2528 -0.1215
32078W        W48262  13.202  12.166  15.318  0.3135  0.0233 -0.2710
32079W        W48263   3.736  17.480   3.420  0.1620  0.2879 -0.0021
32080W        W48264   7.651   7.873   3.259 -0.0776  0.2402 -0.2926
32081W        W48265   7.527  15.356   1.059  0.2094  0.0554  0.2423
32082W        W48266   4.779  16.478  12.029 -0.1471  0.2975  0.3149
32083W        W48267   6.179   3.549   1.765  0.2734 -0.0687  0.0725
32084W        W48268  15.605  15.624   1.462 -0.3365 -0.2121  0.3073
32085W        W48269   6.180   4.622  13.995  0.0528  0.1004  0.0445
32086W        W48270  11.251  13.212   0.653 -0.0716  0.2831 -0.2135
32087W        W48271  12.767  10.571  15.280 -0.1360  0.0135  0.1855
32088W        W48272   8.114  10.484  14.947 -0.0821  0.0127 -0.0635
32089W        W48273   9.123   9.311  14.528  0.2056 -0.2552 -0.0300
32090W        W48274   2.514  13.683  10.804  0.0875  0.1536 -0.1862
32091W        W48275  14.838   8.817  11.613  0.0920 -0.4373 -0.0195
32092W        W48276  10.734  10.285  11.390  0.1742 -0.1223 -0.0032
32093W        W48277  17.370  18.922  10.954 -0.0157 -0.0105 -0.1668
32094W        W48278   8.091  17.428   2.216 -0.1054  0.1679  0.4854
32095W        W48279  15.457   0.461   2.816  0.0889 -0.3450 -0.1356
32096W        W48280   2.732  11.123  12.422 -0.0855  0.0620  0.0286
32097W        W48281  14.026   6.066  11.031 -0.0511 -0.1330 -0.1192
32098W        W48282  12.490   4.310   0.021 -0.3244 -0.2363  0.0227
32099W        W48283  13.940  17.370  11.620  0.2016  0.2959  0.2956
32100W        W48284   0.128   3.614  12.101  0.1383  0.0421  0.1397
32101W        W48285  11.665  12.828   0.633  0.2824 -0.1213 -0.0297
32102W        W48286   4.648  13.891  13.642 -0.0977  0.1520 -0.5363
32103W        W48287   8.756   3.459   0.806 -0.0788 -0.1388  0.0007
32104W        W48288   0.175  10.337   4.511  0.4335 -0.0741 -0.1773
32105W        W48289   4.511   7.140  14.969 -0.1003 -0.0337  0.2606
32106W        W48290   7.737  11.752   1.940  0.0266  0.1249 -0.0115
32107W        W48291   0.454   4.632  11.531  0.1232  0.0126  0.1444
32108W        W48292  17.609  13.456  11.205 -0.2830  0.1451 -0.0412
32109W        W48293   4.598  16.350   1.147 -0.1947  0.0586  0.0501
32110W        W48294  12.712  12.476  13.182 -0.1081 -0.0886 -0.0906
32111W        W48295  12.719  13.392   4.095 -0.1124 -0.1148  0.1073
32112W        W48296   5.289   7.062  11.595 -0.0574  0.0030 -0.2893
32113W        W48297  12.351   2.567   2.391  0.0630 -0.0081  0.0835
32114W        W48298  11.238  16.227   2.369  0.1990  0.1274  0.1876
32115W        W48299   8.814   4.364   4.608  0.3306  0.1609 -0.0109
32116W        W48300  13.022  11.860   2.863 -0.0246 -0.0153 -0.0453
32117W        W48301  13.679  12.831  13.982  0.0108 -0.0072 -0.2993
32118W        W48302   6.268  17.239  13.348  0.1853  0.2858 -0.0193
32119W        W48303  10.439   5.953   3.061  0.4993 -0.0924 -0.0535
32120W        W48304  17.507  13.226  13.573 -0.2397  0.5706 -0.1318
32121W        W48305  11.890   9.382  12.268 -0.1219  0.1038  0.0668
32122W        W48306  17.234   4.458   2.196  0.2017  0.1884 -0.0401
32123W        W48307  12.673  18.872  15.270 -0.1804  0.1848  0.0053
32124W        W48308   2.918   7.076   2.485 -0.3676 -0.2214 -0.6045
32125W        W48309   1.308   6.026   4.620 -0.1026  0.0593  0.1483
32126W        W48310  16.792  18.198  14.799  0.1393  0.0006  0.6293
32127W        W48311   8.245   8.078  11.026  0.2859  0.0258  0.2682
32128W        W48312  10.310   6.100  15.381 -0.1421 -0.0124 -0.0922
32129W        W48313  14.034   7.426   1.255 -0.3238  0.0536 -0.2909
32130W        W48314   7.661  15.608  11.781 -0.0309  0.0393 -0.1569
32131W        W48315  15.424  16.054   2.360 -0.1383 -0.1716 -0.0842
32132W        W48316  12.563  16.478  10.688  0.0397 -0.1401  0.0872
32133W        W48317   0.161   8.510  14.895 -0.0417  0.0775 -0.0930
32134W        W48318  12.638  17.380   1.100  0.1616 -0.2006  0.3871
32135W        W48319  12.511   0.974  14.518 -0.1608  0.3244 -0.3213
32136W        W48320   6.728   5.679  13.801  0.1211  0.2779 -0.0144
32137W        W48321   5.304   5.015   0.091 -0.1546  0.1191 -0.0026
32138W        W48322  16.700   1.780   1.011 -0.0343  0.0528  0.2562
32139W        W48323  14.087   0.228  13.458 -0.0129  0.0544  0.0762
32140W        W48324   0.820   8.215  10.123  0.1479 -0.0039 -0.3216
32141W        W48325  16.540  14.644   0.197  0.1660 -0.0285 -0.1192
32142W        W48326  12.676  13.086   3.603  0.1579 -0.0357 -0.1560
32143W        W48327   8.528  17.888   2.614  0.1860 -0.0815  0.1297
32144W        W48328   0.951   3.399  12.140  0.1417 -0.0369 -0.1482
32145W        W48329   1.654  14.078  13.970 -0.0171  0.0250  0.1928
32146W        W48330   4.121  16.880  10.823  0.0535  0.0421  0.0982
32147W        W48331   5.240  15.210   1.727 -0.1102 -0.0889 -0.0273
32148W        W48332   5.110  10.595  13.198 -0.2050 -0.0157 -0.2302
32149W        W48333   5.442  16.980  13.173  0.1294 -0.0372  0.0474
32150W        W48334   2.245  15.749  15.196 -0.1183  0.0269  0.2819
32151W        W48335  14.813  16.126  13.483 -0.0147  0.2501 -0.1741
32152W        W48336   1.189  17.649  11.954  0.3872  0.1833 -0.2748
32153W        W48337   9.469  15.854  13.973  0.0421 -0.0591  0.0939
32154W        W48338  18.411  17.396  13.281  0.0275 -0.2640 -0.3081
32155W        W48339   7.045   5.401  12.339  0.0975  0.1684 -0.2204
32156W        W48340   6.163  13.517   2.340  0.0588  0.3597 -0.3548
32157W        W48341  18.654   4.733   3.718  0.0307  0.1525 -0.4919
32158W        W48342  11.010   3.230  14.552 -0.2941  0.1738 -0.2948
32159W        W48343   5.770  14.127  15.043 -0.0593 -0.4228 -0.0934
32160W        W48344   6.373  16.136  13.592  0.0415  0.2277  0.1593
32161W        W48345   7.448   1.217  13.098 -0.0440  0.0934  0.1810
32162W        W48346  15.813  16.459  12.113  0.0416  0.0908 -0.1635
32163W        W48347   9.698   8.283  14.038  0.0170 -0.0175 -0.2183
32164W        W48348   6.928   5.801  14.721  0.4061  0.0834 -0.2391
32165W        W48349  17.662  10.668  14.340 -0.2499  0.2926  0.0861
32166W        W48350   3.726   8.790   2.728 -0.1734  0.0582 -0.0265
32167W        W48351  10.430  13.118  13.680  0.0178  0.0858  0.0463
32168W        W48352   0.386  10.803  12.320 -0.2283 -0.2306  0.0904
32169W        W48353   4.464   8.626  12.392  0.0417  0.0939 -0.1269
32170W        W48354  12.260  10.814   0.836  0.1962 -0.0561 -0.0085
32171W        W48355   9.123   7.226   0.007  0.0669  0.0116  0.0660
32172W        W48356  16.012   3.418  11.597  0.0846  0.5246  0.0961
32173W        W48357   2.046  10.711  14.689 -0.1268 -0.1536 -0.0678
32174W        W48358  13.267  13.909   5.674 -0.1216 -0.1535  0.4150
32175W        W48359   1.346  15.051   4.905  0.1000 -0.2777 -0.0678
32176W        W48360  10.693  13.979   3.705  0.0212 -0.1648 -0.1720
32177W        W48361   1.625   5.725  11.587 -0.3414 -0.1003 -0.0953
32178W        W48362  15.329   3.065  15.168 -0.1480  0.1006 -0.1375
32179W        W48363  18.127  16.544  13.025  0.0444  0.1132  0.2513
32180W        W48364   4.308  11.010   5.172 -0.0771  0.1831 -0.1138
32181W        W48365  12.701   5.019   2.206  0.1652 -0.1483  0.0137
32182W        W48366   7.109  11.649  10.795 -0.0816 -0.2782  0.1638
32183W        W48367   5.699   3.601  13.307 -0.1017 -0.0898 -0.2289
32184W        W48368   4.008  15.876  11.591  0.0232  0.0100 -0.0754
32185W        W48369  18.250   4.816   0.812 -0.2092 -0.1727 -0.0395
32186W        W48370  18.546   0.196  13.553  0.1969 -0.2728 -0.2515
32187W        W48371   3.047  12.241   0.962 -0.0106  0.0516  0.1128
32188W        W48372   9.300  14.863  11.096  0.1800 -0.0897  0.2761
32189W        W48373  11.460  10.991  12.970 -0.1712  0.1123 -0.1133
32190W        W48374   4.964   1.054  13.532 -0.2182 -0.0234  0.0266
32191W        W48375  15.459   2.505  14.239  0.1568  0.0253  0.0165
32192W        W48376   3.714   4.246  11.391  0.1493  0.3484  0.1700
32193W        W48377   8.083   4.311   1.767  0.0917  0.2135  0.2639
32194W        W48378   2.456  11.643  14.674 -0.0433  0.0891 -0.1080
32195W        W48379  14.846  18.347   3.317 -0.3466 -0.2022  0.1536
32196W        W48380  12.944  17.848  15.354 -0.2305  0.0774 -0.1526
32197W        W48381   4.530  18.440   3.668  0.0561  0.1315  0.1107
32198W        W48382  17.242  13.369   4.680 -0.0604  0.1413 -0.0879
32199W        W48383  17.899   3.635   0.654  0.1157 -0.0579  0.2304
32200W        W48384  13.123   2.206   0.349  0.0051  0.3494  0.1459
32201W        W48385  13.571   1.428  15.161  0.5923 -0.2120  0.1729
32202W        W48386  13.708   2.368   2.223  0.3609  0.4183 -0.1636
32203W        W48387  18.788  10.505   0.614 -0.1704 -0.1141  0.1025
32204W        W48388  10.213  15.821  10.933  0.4094 -0.0217 -0.1495
32205W        W48389  17.564  15.318  15.270  0.2816 -0.0675  0.4951
32206W        W48390   5.450   7.830   2.538 -0.0609  0.3104 -0.2403
32207W        W48391   6.463  18.399   1.567  0.0726  0.1904  0.0526
32208W        W48392   5.451  16.751   3.439 -0.0556  0.1188  0.1834
32209W        W48393  15.414  18.215   3.758  0.3143 -0.2373 -0.0293
32210W        W48394   4.402   9.006  13.230 -0.1250  0.1684  0.5235
32211W        W48395   2.923   1.904   2.915 -0.2005  0.2015  0.3838
32212W        W48396   3.604  10.184   3.463  0.1520  0.0734  0.0283
32213W        W48397  14.533   6.675   5.027  0.2400  0.4230 -0.2131
32214W        W48398   1.266  15.097   3.690  0.0249 -0.1891  0.0595
32215W        W48399  11.638  10.468  12.923  0.0810 -0.4160  0.0148
32216W        W48400   1.241  16.658   1.205 -0.0095  0.2049  0.0405
32217W        W48401   6.458  10.051   4.275 -0.2183  0.0866  0.1363
32218W        W48402  11.204  15.440   3.075 -0.2219  0.1271  0.1014
32219W        W48403  10.332   5.844  14.013  0.1041 -0.0802  0.0539
32220W        W48404   3.905  13.952  11.710  0.1273  0.1387 -0.2421
32221W        W48405  11.358   8.750   1.532  0.0738 -0.0447 -0.1623
32222W        W48406  15.463   7.854   2.036 -0.0846 -0.2483 -0.1912
32223W        W48407  17.068   7.181  12.231  0.1434 -0.0690  0.3570
32224W        W48408   8.433  12.854  10.281  0.0118  0.1954 -0.1967
32225W        W48409   9.013   7.864   5.084  0.1837  0.4164 -0.2831
32226W        W48410  14.073  15.250   0.135  0.0645 -0.1523 -0.1347
32227W        W48411   1.409  11.239   9.714 -0.0389 -0.2326 -0.1074
32228W        W48412   8.279  14.502  14.025 -0.2768  0.2324  0.0040
32229W        W48413  11.113  16.187   1.852 -0.0662  0.0832  0.1221
32230W        W48414   3.072  13.670  10.873 -0.2724  0.3635 -0.0223
32231W        W48415  10.670   6.488   4.679 -0.3939 -0.1295 -0.1460
32232W        W48416  11.063   3.810  11.957 -0.0749  0.1807  0.0014
32233W        W48417  12.162  14.451   0.310 -0.4468  0.5180 -0.3649
32234W        W48418   6.952  13.594  11.934 -0.0933  0.1635 -0.2548
32235W        W48419  17.365   5.175  13.123 -0.0806 -0.2590  0.0648
32236W        W48420  12.650  14.743  11.501 -0.1696 -0.3120 -0.1340
32237W        W48421   4.872   7.798   4.888  0.0618  0.0382  0.2604
32238W        W48422  18.815   7.241  14.373 -0.2478 -0.3403  0.0748
32239W        W48423  10.669  15.850   1.840  0.0190 -0.2023  0.1913
32240W        W48424   2.455   5.120   5.119  0.1592  0.3059  0.1916
32241W        W48425   5.411   0.336  12.498  0.2522 -0.0211  0.1756
32242W        W48426   1.821  18.342   4.137 -0.0220 -0.2929 -0.1604
32243W        W48427   4.687  13.858   3.372  0.2346  0.2504 -0.4239
32244W        W48428   9.571  10.668   2.126 -0.1351 -0.0192  0.1949
32245W        W48429   4.530  15.683   0.046  0.0371 -0.1582  0.1117
32246W        W48430   8.759  15.238  15.209  0.1009 -0.0459 -0.0038
32247W        W48431   3.790  14.367   4.549 -0.1667 -0.1545 -0.1276
32248W        W48432   3.492   2.292   1.943  0.1338  0.1115  0.0747
32249W        W48433   9.852   7.821  15.022  0.1566  0.2830  0.1963
32250W        W48434   7.863  16.330   3.349  0.3318 -0.0953  0.2327
32251W        W48435  16.251  18.948  14.880 -0.1327 -0.1609 -0.1244
32252W        W48436  15.783   0.492   4.394 -0.0197  0.1157 -0.1562
32253W        W48437   8.463   1.677   1.154 -0.0223  0.3550  0.5693
32254W        W48438   8.056   4.856   0.843 -0.0454 -0.0047  0.2994
32255W        W48439  16.180   4.582   5.308 -0.3388 -0.1345  0.0281
32256W        W48440   1.233  16.274  10.826  0.0137  0.1517 -0.0271
32257W        W48441  11.399   4.149   1.626 -0.0972 -0.1759  0.0207
32258W        W48442  13.568  10.828   0.290  0.1619  0.2515 -0.0139
32259W        W48443  10.227  11.556  14.146 -0.1256 -0.0739 -0.0122
32260W        W48444   9.444  17.675  12.482 -0.2278 -0.1978  0.1427
32261W        W48445   7.367  18.739   2.704  0.0093 -0.1921 -0.3310
32262W        W48446   5.683   9.709  12.733 -0.0847 -0.0304 -0.1097
32263W        W48447   5.475  18.689   1.411  0.0860  0.0505 -0.0697
32264W        W48448   0.633  12.129  13.986 -0.0150  0.0958  0.0807
32265W        W48449   0.557  11.831   3.817 -0.0046  0.2736 -0.1659
32266W        W48450   1.298  10.422  12.080 -0.2593  0.0284  0.1463
32267W        W48451   1.258  13.613  12.368  0.1569  0.3030  0.1595
32268W        W48452   4.820   0.455   4.731 -0.0923  0.0302  0.0950
32269W        W48453  13.594   3.576  10.474 -0.1218 -0.0206 -0.1773
32270W        W48454  11.108  12.137   4.690 -0.1279  0.1365  0.1794
32271W        W48455  14.320   3.750   1.176  0.0191  0.0264 -0.2910
32272W        W48456  16.581  15.166  13.579  0.0428  0.1420  0.1597
32273W        W48457  13.876   2.459  12.193  0.0446  0.0774  0.0177
32274W        W48458   7.508  15.820   5.448  0.0242 -0.4450 -0.0287
32275W        W48459  12.268  10.537  12.829  0.1788  0.4138 -0.0432
32276W        W48460  13.878   4.295  13.684 -0.0974  0.3738  0.0926
32277W        W48461  15.609  17.360  12.173 -0.1675  0.0013 -0.0167
32278W        W48462   7.298  15.731  11.463 -0.1485 -0.3367  0.0268
32279W        W48463   2.257   5.695   4.982 -0.0824 -0.3803 -0.0145
32280W        W48464  14.529  16.553  13.452 -0.1179  0.1348  0.0508
32281W        W48465  18.960   4.359  15.052  0.0343 -0.0831  0.0109
32282W        W48466   1.368   0.916  14.878 -0.0688  0.5146  0.0735
32283W        W48467   7.413  12.711  14.026 -0.3696  0.0284 -0.2493
32284W        W48468  10.679  16.481   1.975 -0.1575 -0.3762 -0.0295
32285W        W48469  18.953  12.362   0.295  0.0366  0.1383 -0.2203
32286W        W48470  13.196  17.511   5.054  0.0113  0.0320  0.3535
32287W        W48471   5.746  15.594   4.677 -0.0057 -0.3968 -0.5789
32288W        W48472   4.310  13.423   5.384  0.1657 -0.1526  0.0221
32289W        W48473  11.083  10.638   2.042  0.0707 -0.4130 -0.3191
32290W        W48474  11.622  13.408  11.609 -0.0856  0.0524 -0.0187
32291W        W48475   2.375   3.769  14.622 -0.1426  0.3058 -0.0195
32292W        W48476   5.549   0.412   2.254 -0.2627 -0.2383 -0.0583
32293W        W48477   1.049  16.998  13.391 -0.1457 -0.0217  0.0249
32294W        W48478  17.210  16.378  14.622  0.0989  0.4091 -0.0178
32295W        W48479  15.475   4.770  13.583 -0.0175  0.2359  0.0751
32296W        W48480   1.238   3.272  13.006  0.0138 -0.0244  0.0430
32297W        W48481  13.835   1.594  13.172 -0.1423 -0.0330 -0.1035
32298W        W48482   9.754  14.973   3.845  0.3082  0.1365  0.0656
32299W        W48483   2.748  13.068   2.027  0.0457  0.2795  0.1579
32300W        W48484   2.841  10.074  15.082 -0.1832 -0.1514 -0.1767
32301W        W48485   9.891  12.276   4.041 -0.2320  0.1083 -0.0183
32302W        W48486  13.101   0.356  12.409  0.2501 -0.0593  0.1915
32303W        W48487   9.205   3.536  10.643  0.0998  0.0148  0.2785
32304W        W48488  17.630   8.503  11.810  0.0257 -0.0129  0.1374
32305W        W48489  15.029   8.308   0.173  0.0720 -0.0450  0.0009
32306W        W48490  17.035   8.281  11.999 -0.0370 -0.0539  0.5395
32307W        W48491   3.712   4.436   5.552 -0.0750 -0.1650  0.1087
32308W        W48492   2.891  13.856  14.609  0.1156 -0.3355 -0.1846
32309W        W48493  15.825   9.279  14.645  0.0300 -0.0264 -0.0627
32310W        W48494  14.622  11.154  11.454  0.3699 -0.0935 -0.4183
32311W        W48495  10.208  12.317  10.288  0.1750 -0.1489  0.2972
32312W        W48496   4.063   0.070   4.280  0.0518  0.2340  0.1441
32313W        W48497  11.728  14.226  12.355  0.3419 -0.1068  0.2903
32314W        W48498  12.655   5.736  11.689 -0.1153 -0.3840 -0.0760
32315W        W48499   0.290  18.546   1.768 -0.1662  0.0572  0.0834
32316W        W48500  10.542   3.392  14.728  0.0168  0.0438  0.1022
32317W        W48501   7.850   9.957  13.511 -0.1063 -0.0899 -0.1397
32318W        W48502   0.754  15.981   3.688 -0.1205 -0.2884 -0.0680
32319W        W48503   4.227   3.533  10.838 -0.1385  0.3133 -0.0892
32320W        W48504  15.775   4.322   5.538 -0.3027 -0.0033 -0.0101
32321W        W48505  13.740   6.807  12.656  0.1022 -0.0798  0.2526
32322W        W48506  12.135   7.541   5.044 -0.2394  0.0224 -0.3014
32323W        W48507  18.050   4.611  11.368 -0.2159 -0.1314  0.4993
32324W        W48508  17.154  11.748   1.704  0.0567  0.0962 -0.0855
32325W        W48509   5.332  11.537  13.013 -0.2055  0.0413 -0.0278
32326W        W48510   5.960   8.904   4.913  0.0462  0.0465  0.0307
32327W        W48511   2.798  15.977  13.820 -0.0743  0.0085 -0.0081
32328W        W48512   6.479   2.036   1.058  0.0399  0.0281  0.0470
32329W        W48513   9.955  14.351   1.087  0.0472 -0.1271  0.3384
32330W        W48514   7.672  10.667   9.838  0.3150  0.3335  0.3171
32331W        W48515   4.431  15.923  14.161 -0.1490 -0.2453  0.4829
32332W        W48516  13.294   4.398   4.611  0.1623  0.0836  0.2384
32333W        W48517  17.468   3.237  10.245 -0.3180  0.0825  0.2468
32334W        W48518   3.803  14.911   1.816 -0.1703  0.0062 -0.0603
32335W        W48519   6.403  12.649   4.952  0.1073 -0.0538  0.0522
32336W        W48520   4.739  10.889  13.112 -0.0919  0.4326  0.0979
32337W        W48521   3.846   0.240  14.264 -0.0749 -0.3221  0.0138
32338W        W48522   6.199  12.017  14.104  0.1931  0.1501 -0.1622
32339W        W48523   8.574   8.341  12.332 -0.2440 -0.3977  0.2364
32340W        W48524   6.996   9.895   1.622  0.0897  0.1924 -0.0785
32341W        W48525   4.191  13.701   2.523 -0.0093 -0.1573  0.2079
32342W        W48526  15.072  16.433  11.245 -0.0040 -0.2177  0.1199
32343W        W48527   0.374   9.625   0.740 -0.2024  0.2714 -0.1044
32344W        W48528   7.274  17.222   1.877 -0.0606 -0.0670  0.1646
32345W        W48529  10.822  13.326   0.261  0.0349 -0.0387 -0.1756
32346W        W48530   4.640  18.038  14.667 -0.2990 -0.3946  0.0202
32347W        W48531   4.272   4.750   4.203  0.0808 -0.0835 -0.2134
32348W        W48532   0.757   7.787  12.163 -0.1583  0.1351 -0.1133
32349W        W48533   3.385  13.441  11.969 -0.2007  0.2579  0.2609
32350W        W48534   1.134  16.457  14.562  0.0837 -0.1247  0.1404
32351W        W48535   4.878  10.976  15.082 -0.0529 -0.2161  0.0080
32352W        W48536   7.640   4.578  13.501 -0.2251 -0.1199  0.1610
32353W        W48537   2.079   4.181  14.123 -0.1612 -0.2648 -0.1210
32354W        W48538   7.194   1.994   5.069  0.2166 -0.4151 -0.3492
32355W        W48539   5.521   0.039  14.350 -0.2088 -0.0938 -0.3274
32356W        W48540  14.810   4.184   4.118  0.1779 -0.0692  0.0895
32357W        W48541   0.553   3.148  12.747  0.1908  0.0826 -0.0286
32358W        W48542  11.256   0.150   3.585  0.1738  0.2607 -0.1873
32359W        W48543   1.880   0.319   4.512  0.0423  0.0630 -0.2046
32360W        W48544  18.238  16.803  12.534  0.2080 -0.0147 -0.0265
32361W        W48545  17.944  14.408  13.896  0.4038  0.1011 -0.6064
32362W        W48546  14.510   9.155  12.479  0.3343  0.1172  0.0353
32363W        W48547  11.015  14.832   9.632  0.0318  0.1402 -0.0767
32364W        W48548   6.424  10.073   0.769  0.2618 -0.2657  0.3945
32365W        W48549   4.634   1.290   4.683 -0.0079  0.1018 -0.0132
32366W        W48550   7.093  17.873  11.569  0.0616  0.0288 -0.0693
32367W        W48551   5.851  18.175  10.985  0.2178  0.2294 -0.0127
32368W        W48552  14.097   2.360   4.680  0.0502  0.0309 -0.0276
32369W        W48553  11.526  17.333  12.280 -0.0249 -0.4097  0.2503
32370W        W48554   7.202  18.739  12.497 -0.0952  0.2731 -0.0555
32371W        W48555  14.660  18.765   4.830 -0.0827  0.1546 -0.2023
32372W        W48556  15.754  12.221   1.366 -0.3022  0.0378 -0.0789
32373W        W48557   6.384   1.847   0.157  0.0377 -0.0701 -0.2375
32374W        W48558   6.738  18.807   1.463  0.1082  0.0097  0.3435
32375W        W48559   7.757  14.197   4.145  0.0033  0.1818  0.0786
32376W        W48560   8.435  10.087  12.532  0.0717  0.1314  0.3671
32377ION     NA48561   7.568   2.720  10.108  0.1239 -0.0713 -0.3254
32378ION     NA48562   4.313  16.601   9.843  0.3801 -0.0439  0.0078
32379ION     NA48563  16.210   5.032   9.855  0.2257 -0.1834 -0.1141
32380ION     NA48564  16.570  12.561  10.136  0.2084 -0.3068  0.1135
32381ION     NA48565   9.829   3.182  14.218 -0.0815 -0.1792  0.0700
32382ION     NA48566   2.543   1.019  10.076 -0.3075 -0.0641 -0.0421
32383ION     NA48567  12.812   5.677  10.002 -0.0944  0.0197  0.1817
32384ION     NA48568   5.405  14.448  14.934  0.1505  0.0026  0.0134
32385ION     NA48569   1.923  10.821   1.762 -0.0850 -0.1145 -0.4163
32386ION     NA48570   8.154   7.376   9.548  0.2108 -0.3544  0.2969
32387ION     NA48571   5.362   4.993   4.325  0.0473  0.1033 -0.1240
32388ION     NA48572  17.014   1.360  10.091  0.2063 -0.3766  0.1484
32389ION     NA48573   1.445   5.728  10.058  0.0655 -0.1691  0.0113
32390ION     NA48574   5.926   0.903  14.425  0.1465  0.1454  0.0711
32391ION     NA48575   3.813   4.486  11.870 -0.0054  0.3813 -0.0212
32392ION     NA48576  18.813   5.965   5.594  0.2401  0.0220  0.0744
32393ION     NA48577   6.705   2.225   0.161  0.0346 -0.1985  0.3207
32394ION     NA48578   4.950   5.837   9.851  0.0854 -0.2056 -0.0045
32395ION     NA48579   4.514  16.502   1.718 -0.0611  0.3272 -0.0730
32396ION     NA48580  10.386  12.355   2.935  0.0746 -0.1161 -0.4870
32397ION     NA48581   0.001   4.397   0.190  0.2059  0.0098  0.2727
32398ION     NA48582  14.121   4.710   0.766  0.0183 -0.0554 -0.1343
32399ION     NA48583  16.329  16.054   9.884 -0.3002  0.0670 -0.3769
32400ION     NA48584  14.082   2.143   2.559 -0.5117  0.0533 -0.1252
32401ION     NA48585   8.334  15.632   9.617  0.2237  0.3271 -0.0564
32402ION     NA48586   6.579   9.063   9.888  0.0601  0.1241  0.0117
32403ION     NA48587   7.474   4.678  10.104 -0.2658  0.0345  0.0099
32404ION     NA48588  17.708   9.735   3.999  0.3416 -0.5714 -0.1137
32405ION     NA48589   8.602  11.976  10.039  0.1465 -0.1646 -0.0840
32406ION     NA48590  17.952  10.414   9.933  0.0279 -0.1874  0.0214
32407ION     NA48591   6.509   9.826  10.068 -0.0561  0.0814 -0.0129
32408ION     NA48592   3.498  13.682   9.959 -0.1537  0.1030 -0.1787
32409ION     NA48593  16.510   9.289  11.515  0.2581  0.0948  0.0188
32410ION     NA48594   8.133   6.040   4.669 -0.1405 -0.1408  0.1867
32411ION     NA48595   2.847  13.351   3.315  0.1183  0.0138 -0.0864
32412ION     NA48596  14.494  11.747   4.664 -0.0323  0.0757 -0.2903
32413ION     NA48597   0.755   1.085  13.335 -0.1069  0.1744  0.0037
32414ION     NA48598  16.259  15.483   1.279  0.0901 -0.0304  0.1414
32415ION     NA48599   9.191  12.798  13.464 -0.0827  0.1575  0.1121
32416ION     NA48600  11.731  11.810   9.821  0.1691  0.0676 -0.0319
32417ION     NA48601   8.084   9.836   9.831  0.2695 -0.0714  0.0189
32418ION     NA48602   9.991   2.519   9.854  0.1427  0.1307  0.4406
32419ION     NA48603   4.347   1.902   5.954 -0.2615 -0.0612  0.1156
32420ION     NA48604   1.795  15.036   9.911 -0.1995 -0.2865  0.4398
32421ION     NA48605   2.233  16.065  14.756 -0.0552 -0.0672  0.1002
32422ION     NA48606   3.613   0.883  10.152 -0.1177 -0.1966  0.1894
32423ION     NA48607   8.331   7.904  12.885  0.3050 -0.5181 -0.2388
32424ION     NA48608  14.775   8.139   4.484 -0.0642 -0.1385  0.0466
32425ION     NA48609   8.793  11.504  10.651  0.2400 -0.3800  0.2408
32426ION     NA48610   6.356   0.143   4.640 -0.0062 -0.1916  0.0716
32427ION     NA48611   9.722   0.824   5.530  0.1713 -0.1063  0.4457
32428ION     NA48612  12.229   4.371   9.868 -0.0032  0.0887 -0.0201
32429ION     NA48613  14.204  14.334   9.891  0.1146  0.0004 -0.2481
32430ION     NA48614  13.414  16.309   9.894  0.1384  0.0324 -0.0633
32431ION     NA48615  11.047  10.866   9.723 -0.1141  0.1504  0.2412
32432ION     NA48616  17.928  16.421  10.323 -0.1862  0.1193 -0.0989
32433ION     NA48617  14.538   3.914   5.308 -0.2044 -0.5663 -0.0197
32434ION     NA48618  10.196   2.322   5.307  0.2756  0.2129  0.0819
32435ION     NA48619   5.433   8.286   0.825  0.1753  0.2035  0.0737
32436ION     NA48620   6.425  10.730  10.227 -0.0777  0.3669 -0.0122
32437ION     NA48621   6.958   7.811   5.583  0.0258 -0.0365 -0.2252
32438ION     NA48622  18.603  12.097  10.038 -0.0292 -0.2325 -0.0334
32439ION     NA48623   0.929  15.198  10.115  0.2264  0.2167  0.3652
32440ION     NA48624   8.422  14.641  12.233  0.1047 -0.0480 -0.1632
32441ION     NA48625  18.321  15.630   1.143 -0.0260  0.0477 -0.0422
32442ION     NA48626   3.955   6.868   2.497  0.1610 -0.0476 -0.0361
32443ION     NA48627   9.269   5.456   1.052 -0.0588  0.0645  0.3063
32444ION     NA48628   3.658   7.588   4.741  0.0404 -0.0755 -0.3312
32445ION     NA48629  14.993   2.754   9.665 -0.1250 -0.0508  0.1983
32446ION     NA48630  16.309   0.566   3.322  0.2172 -0.0795 -0.1015
32447ION     NA48631  18.113  17.932   9.888 -0.2119 -0.1282 -0.0548
32448ION     NA48632   4.177   7.179  13.405 -0.4073  0.1248 -0.0446
32449ION     NA48633  16.320   1.712   9.919  0.0755  0.0479 -0.0063
32450ION     NA48634   0.555  12.072  11.803 -0.4069  0.3281  0.0095
32451ION     NA48635   4.133   7.658   2.167  0.4700  0.0023  0.0183
32452ION     NA48636  16.487   4.261  10.355  0.2884 -0.0410 -0.0249
32453ION     NA48637  18.379  15.682  10.015 -0.0166  0.1511 -0.0502
32454ION     NA48638   8.393  12.037   2.310  0.0158  0.0864 -0.0966
32455ION     NA48639   9.738  11.307   9.647  0.0033 -0.3112 -0.1408
32456ION     NA48640  10.977  10.045   9.876 -0.0937  0.1971 -0.0472
32457ION     NA48641  13.192  17.651  12.845 -0.1758  0.1248  0.1837
32458ION     NA48642   2.044  12.594   5.115  0.0534 -0.0868  0.1994
32459ION     NA48643  17.232   0.594   0.433  0.0253 -0.1233 -0.0423
32460ION     NA48644  11.853   2.196   5.132  0.3012 -0.0895 -0.1447
32461ION     NA48645   0.337  15.335   2.807 -0.0826 -0.1002  0.0746
32462ION     NA48646  11.929  18.448   9.876 -0.2901  0.1869  0.2051
32463ION     NA48647   4.380   0.802   9.951  0.0758 -0.1490  0.0721
32464ION     NA48648   6.289  17.517   0.599  0.1012  0.0160  0.0224
32465ION     NA48649   1.876   2.469   5.581 -0.1271  0.1467  0.0731
32466ION     NA48650   6.785  15.878   9.525  0.0006  0.2396 -0.0062
32467ION     NA48651   9.359  11.863   5.477 -0.1955 -0.0264 -0.3146
32468ION     NA48652   4.956  15.927   5.278 -0.1082  0.1202 -0.3258
32469ION     NA48653   1.410  15.266  13.497  0.0860 -0.0702  0.3052
32470ION     NA48654   4.183   9.252  11.557  0.2432 -0.0164  0.1309
32471ION     NA48655  17.908   2.221   5.787 -0.0791 -0.1712  0.2125
32472ION     NA48656  16.256  15.881  15.341  0.1691 -0.1571 -0.1538
32473ION     NA48657  15.873  10.357  13.533 -0.1571  0.4291 -0.1300
32474ION     NA48658   5.883   7.196   4.438 -0.0328  0.1174  0.4731
32475ION     NA48659  17.238  10.046  10.434 -0.2989  0.2934 -0.1288
32476ION     NA48660   1.344   4.977   3.226  0.2154 -0.1096 -0.3085
32477ION     NA48661  16.812  13.456  10.434 -0.2112  0.1728  0.1537
32478ION     NA48662   5.818  14.241   9.667 -0.1221  0.3453  0.2318
32479ION     NA48663   3.600  18.241   5.193 -0.1509  0.0431  0.5146
32480ION     NA48664  10.379  15.754  11.881 -0.3067  0.1035  0.0617
32481ION     NA48665   9.529   6.380   9.732 -0.0545  0.1638  0.1756
32482ION     NA48666  16.657  14.676  10.784 -0.1311  0.0729  0.4239
32483ION     NA48667  16.113   7.776   5.358  0.2643 -0.1625 -0.2601
32484ION     NA48668   0.493   4.039   9.940  0.3374 -0.0729  0.1692
32485ION     NA48669  16.968  17.726  10.243  0.1894 -0.2055 -0.2756
32486ION     NA48670   6.144  10.829   5.558  0.0045  0.2059  0.0261
32487ION     NA48671  17.606  10.937  10.297  0.1070 -0.0786  0.2561
32488ION     NA48672   2.955   8.860   3.150  0.0104 -0.0001  0.0069
32489ION     NA48673  11.729  11.695   5.502  0.4971  0.2907 -0.0325
32490ION     NA48674  14.596   8.765  11.128  0.1342 -0.1075 -0.3447
32491ION     NA48675   9.479  10.457   3.250 -0.1838  0.0807  0.1145
32492ION     NA48676  18.528   0.951   5.742  0.1417  0.0908 -0.1559
32493ION     NA48677   8.090   1.200   3.161 -0.2156  0.0017  0.1897
32494ION     NA48678   6.505  11.482   2.639 -0.0195 -0.2499  0.1945
32495ION     NA48679  16.719   0.533  10.115 -0.1388  0.1149  0.3177
32496ION     NA48680  11.665   6.574   0.572  0.2930  0.1237  0.1706
32497ION     NA48681  11.426  14.395  11.897 -0.0314 -0.0621  0.0956
32498ION     NA48682   0.339  15.194  10.042 -0.0941 -0.2347 -0.0779
32499ION     NA48683  12.444   6.528   9.712 -0.3769 -0.1356 -0.3628
32500ION     NA48684   9.283  10.929   1.404  0.1686 -0.0850  0.1249
32501ION     NA48685   3.891   3.895  14.366  0.0159 -0.2993  0.0711
32502ION     NA48686  14.526   6.745   9.903 -0.1055  0.0620  0.0762
32503ION     NA48687   0.807  18.092  12.051 -0.1321 -0.0210  0.2713
32504ION     NA48688   4.943   2.837   9.716 -0.2687  0.1296  0.0478
32505ION     NA48689   3.742  10.990   5.974  0.0696 -0.0841  0.0281
32506ION     NA48690   4.018  17.748  10.234 -0.0285  0.0348  0.3106
32507ION     NA48691  14.039   9.270   2.456 -0.0362  0.0446  0.2728
32508ION     NA48692  15.365  13.993   9.823 -0.1396  0.2586  0.1532
32509ION     NA48693   1.945  13.293   9.728 -0.0674  0.0999  0.1629
32510ION     NA48694  11.466  12.601   9.918 -0.0686  0.0370 -0.0054
32511ION     NA48695  17.555   4.255  10.052  0.1077 -0.1278  0.0016
32512ION     NA48696   9.709  15.015  14.424  0.0387 -0.0203 -0.0538
32513ION     NA48697   2.596  13.853   2.780  0.2152  0.2407  0.2615
32514ION     NA48698  18.827  16.208   0.202 -0.2576 -0.0354  0.0917
32515ION     NA48699  11.562   1.487   9.711  0.2036 -0.1630  0.0026
32516ION     NA48700  17.287  14.668  11.943  0.0372  0.1934  0.2343
32517ION     NA48701   1.129   1.533  14.156 -0.0224 -0.0317 -0.3123
32518ION     NA48702  13.416   9.620   9.620  0.2322  0.0848 -0.3317
32519ION     NA48703  17.120  15.731  10.129  0.2268 -0.0630  0.3982
32520ION     NA48704   4.760  18.752   5.394 -0.0694  0.1208 -0.1136
32521ION     NA48705  16.598   9.497   5.582  0.1580  0.2596 -0.2448
32522ION     NA48706  11.231  16.621   9.581  0.1295 -0.1488  0.0529
32523ION     NA48707  13.279   8.869  10.231 -0.1289 -0.1641  0.3164
32524ION     NA48708  12.549  15.942  14.713 -0.1176  0.0654  0.2186
32525ION     NA48709  11.737  17.166   5.356  0.1247 -0.0104 -0.1617
32526ION     NA48710  13.590   8.333  12.704 -0.0005 -0.0758  0.1962
32527ION     NA48711   1.880   7.759   4.011  0.4198 -0.1089  0.0290
32528ION     NA48712   0.530  11.438  12.478  0.1523  0.2020  0.3672
32529ION     NA48713  15.266   5.567  15.134 -0.0615 -0.0156  0.1835
32530ION     NA48714  13.999  16.907   9.905  0.0206  0.0831  0.1820
32531ION     NA48715  14.763  13.197   9.917 -0.4034  0.1088  0.1226
32532ION     NA48716   9.982   0.648   9.804  0.2578 -0.2293 -0.0884
32533ION     NA48717   0.540   0.464   9.923 -0.1333 -0.1945  0.4730
32534ION     NA48718   9.077   6.729   9.862 -0.1153  0.1473 -0.2398
32535ION     NA48719   1.906  11.255   9.842  0.0224 -0.3046 -0.3413
32536ION     NA48720  11.671  16.596   9.884 -0.1789 -0.1170  0.2516
32537ION     NA48721   0.641   8.338  14.892 -0.1502  0.0133  0.0029
32538ION     NA48722  10.888  16.700   5.262 -0.3935  0.0828  0.1624
32539ION     NA48723  15.438   3.530   9.675 -0.1956 -0.0171 -0.2041
32540ION     NA48724  10.709   7.286   9.760  0.1723 -0.0990 -0.0263
32541ION     NA48725  17.881   7.670   9.734 -0.0797 -0.3421 -0.0975
32542ION     NA48726   9.334  10.423   9.969 -0.0575 -0.1096 -0.0047
32543ION     NA48727  11.379   3.269   3.153  0.0996 -0.2036 -0.3637
32544ION     NA48728   6.037   6.929   6.097  0.1493 -0.0361 -0.0944
32545ION     NA48729  14.089  11.898   9.860 -0.0410  0.2276 -0.2094
32546ION     NA48730  11.090   4.431  14.247  0.1038 -0.2180  0.1715
32547ION     NA48731   6.075  15.686   9.877 -0.2428  0.3341 -0.0819
32548ION     NA48732   3.993  18.374   5.484 -0.1642  0.3211 -0.0186
32549ION     NA48733   7.325   9.723  10.618  0.4450 -0.3023  0.0279
32550ION     NA48734   4.539   1.722  10.033  0.1104  0.2337  0.1866
32551ION     NA48735  10.021   5.868   9.791  0.1657  0.0159 -0.1555
32552ION     NA48736   3.149   2.639  14.278 -0.1035 -0.0108  0.3005
32553ION     NA48737   6.538  16.722   9.849 -0.1342  0.0470  0.0754
32554ION     NA48738   2.174   4.650  10.273 -0.1188  0.1282  0.1215
32555ION     NA48739   2.007   1.823   9.978 -0.0092 -0.0949  0.0049
32556ION     NA48740   2.993  12.167  10.089  0.4112  0.2847 -0.0689
32557ION     NA48741  15.754  13.389   5.525  0.1436  0.3161 -0.1742
32558ION     NA48742  18.739   7.501   9.775 -0.0904 -0.0521 -0.0889
32559ION     NA48743   6.987  13.128  11.666 -0.0151 -0.1365  0.0187
32560ION     NA48744   1.095  10.818   9.749 -0.1341  0.3886 -0.1279
32561ION     NA48745   5.407  11.884   0.936 -0.3401 -0.1794  0.2185
32562ION     NA48746  10.873  18.318  13.972  0.0334  0.0222 -0.2014
32563ION     NA48747  16.935   5.088   5.018  0.3280 -0.1630  0.0801
32564ION     NA48748   6.129  13.454  10.052 -0.3947  0.0294  0.1255
32565ION     NA48749  12.860   6.581   5.676  0.1925 -0.0044  0.2365
32566ION     NA48750   0.357  13.435  10.134 -0.3356  0.2455  0.0224
32567ION     NA48751   8.387   2.759   5.448  0.4275 -0.0149  0.0246
32568ION     NA48752  17.499  14.812  10.002 -0.0435  0.1875 -0.2369
32569ION     NA48753  18.030   0.169  10.578 -0.3500 -0.0773 -0.1481
32570ION     NA48754   5.905   5.820   9.909 -0.1022 -0.2887  0.0668
32571ION     NA48755  12.361   0.436   2.727 -0.1724  0.0188 -0.1862
32572ION     NA48756   4.629   6.383  14.012  0.0584 -0.0890  0.0507
32573ION     NA48757  14.544  10.007   9.901 -0.0641  0.1349 -0.3639
32574ION     NA48758  14.654   8.707  14.497 -0.0058 -0.2150 -0.2690
32575ION     NA48759  17.439   6.667  11.747  0.1227  0.0953  0.1108
32576ION     NA48760  13.412  17.717   9.871 -0.0054  0.2276 -0.2690
32577ION     NA48761   0.520  18.433   5.512 -0.2802  0.0467 -0.1818
32578ION     NA48762   6.733  18.756   5.458 -0.1963  0.0339  0.1776
32579ION     NA48763   6.368   4.575   0.931 -0.0022  0.2282 -0.1559
32580ION     NA48764   8.323   0.870   9.840  0.3979  0.2924 -0.4796
32581ION     NA48765   9.869   7.293   9.972 -0.1087  0.1106 -0.1482
32582ION     NA48766   1.038  13.011  10.063 -0.1896  0.1841  0.2567
32583ION     NA48767   1.169  13.703   5.934  0.1678 -0.2326  0.1870
32584ION     NA48768   6.760  14.471   5.265  0.0277  0.0307 -0.0446
32585ION     NA48769   0.780   1.301   9.817 -0.2880 -0.0048 -0.0353
32586ION     NA48770  13.636   6.982   9.890  0.2841  0.1627 -0.0068
32587ION     NA48771   8.200  13.346  12.549 -0.1790 -0.0155  0.1440
32588ION     NA48772   2.287  11.228  10.565  0.1115  0.2488 -0.1196
32589ION     NA48773   3.338  17.124  10.070 -0.2433 -0.2585  0.2376
32590ION     NA48774   8.436  16.845   9.754 -0.2297 -0.3096 -0.4359
32591ION     NA48775  17.831   9.435   1.811  0.0995  0.3372  0.1643
32592ION     NA48776   9.845  18.614   9.599 -0.1275  0.0961 -0.0080
32593ION     NA48777  17.234   2.746  10.111  0.2776  0.0952 -0.0557
32594ION     NA48778   7.323  16.431  14.692 -0.2593 -0.2984 -0.0381
32595ION     NA48779   5.694  11.144  10.139 -0.0405 -0.2945 -0.3453
32596ION     NA48780   4.221   7.589  10.079 -0.1255 -0.0226 -0.0204
32597ION     NA48781  11.383   3.693   4.046 -0.1335  0.1089 -0.5214
32598ION     NA48782   5.141   0.240  10.055 -0.0606 -0.1636 -0.1423
32599ION     NA48783   5.878   6.845  10.148 -0.0916  0.0233 -0.1511
32600ION     NA48784   8.246   4.057   5.248  0.2484 -0.0982  0.0195
32601ION     NA48785   1.690  17.514   3.718 -0.2631 -0.2222 -0.0815
32602ION     NA48786  10.904   5.253   9.837 -0.1864  0.0171 -0.0161
32603ION     NA48787  17.742  11.848  10.355 -0.1021 -0.0174 -0.0281
32604ION     NA48788  10.389   2.204  10.637 -0.2842 -0.0395 -0.1004
32605ION     NA48789  14.027   2.589   9.917 -0.0535 -0.0050 -0.0803
32606ION     NA48790   1.512  14.356   9.820  0.0186  0.2297  0.0846
32607ION     NA48791   9.424  13.347   0.603  0.0906 -0.1353  0.1726
32608ION     NA48792   4.821   6.352  10.751  0.3808 -0.1052 -0.0123
32609ION     NA48793  17.622   3.220   3.659 -0.1655  0.1797  0.1241
32610ION     NA48794  15.992  11.777  10.145  0.0413  0.2079  0.0920
32611ION     NA48795  10.624  13.207  10.286  0.2607 -0.1255 -0.0069
32612ION     NA48796  15.120   1.252   9.589 -0.2925 -0.0768 -0.0305
32613ION     NA48797  16.612   5.867   9.831  0.0166  0.0613 -0.0785
32614ION     NA48798   1.802   6.302  10.341 -0.1704  0.3478 -0.2014
32615ION     NA48799  15.600  15.443   2.591 -0.2972  0.0831 -0.0962
32616ION     NA48800   3.108   4.457  13.968 -0.0373 -0.1835 -0.1781
32617ION     NA48801  13.264  10.551   9.648  0.1185  0.0823 -0.1718
32618ION     NA48802   5.932   3.905  12.998 -0.0701 -0.2454  0.0869
32619ION     NA48803   4.262   8.536  10.233  0.1887  0.1623  0.0205
32620ION     NA48804  13.841   4.216   9.776  0.2713 -0.0234  0.2685
32621ION     NA48805  12.047   0.845   9.679  0.1786  0.0189 -0.1453
32622ION     NA48806   5.473  16.901  12.630  0.1019  0.1079  0.0592
32623ION     NA48807  14.075  15.132   9.923  0.5134  0.1187 -0.0113
32624ION     NA48808   7.294   0.774   4.261 -0.1559 -0.0434  0.2370
32625ION     NA48809   3.799   1.733   3.500 -0.2621  0.1252  0.4520
32626ION     NA48810   5.066  15.618   9.877 -0.1545  0.2572 -0.0558
32627ION     NA48811  15.548   1.931  12.498  0.0091  0.0525 -0.0705
32628ION     NA48812  15.688   7.418   5.315  0.1218  0.2999 -0.0199
32629ION     NA48813  10.135  13.910   9.721  0.0641  0.1815  0.2195
32630ION     NA48814  14.138   1.145   5.540  0.0679 -0.0209  0.0685
32631ION     NA48815   8.639  10.833  12.674 -0.0439 -0.1857 -0.0296
32632ION     NA48816   6.912   8.804   1.284 -0.0860 -0.0802  0.0049
32633ION     NA48817  15.675   2.863  12.935  0.2096 -0.2041 -0.1044
32634ION     NA48818  16.431  17.996   9.975 -0.2240 -0.1195  0.1350
32635ION     NA48819  10.468  11.100  10.660  0.2225 -0.2885 -0.2383
32636ION     NA48820   6.173   6.575   1.937  0.1174 -0.0701 -0.3013
32637ION     NA48821  14.809   3.143  13.586 -0.2226 -0.0762  0.2700
32638ION     NA48822   7.718   6.435   9.935 -0.0432  0.1582 -0.0016
32639ION     NA48823  15.999   6.598   9.758  0.2188 -0.2645 -0.3942
32640ION     NA48824   5.064  16.844   3.784 -0.2721 -0.3516 -0.1378
32641ION     NA48825   7.787   5.243  11.574 -0.2189 -0.1654 -0.1644
32642ION     NA48826   5.623   9.321  10.058  0.3004 -0.0754 -0.0916
32643ION     NA48827   2.484   9.332  10.079  0.0307 -0.0397  0.3034
32644ION     NA48828   4.434  11.495  10.189  0.1482 -0.0916 -0.2849
32645ION     NA48829   9.124  12.537   3.574  0.2586  0.0856 -0.2665
32646ION     NA48830  11.400  12.644   5.683  0.0748  0.2161  0.2369
32647ION     NA48831   2.208  14.272  14.194  0.0534 -0.2536 -0.1957
32648ION     NA48832  11.999   0.287   9.692  0.0845  0.0653  0.3982
32649ION     NA48833   3.759  11.859  10.201 -0.0944  0.2990  0.3316
32650ION     NA48834   6.664   0.832   2.798  0.0182  0.0865  0.0129
32651ION     NA48835  18.115   9.423   9.860 -0.0417 -0.2438 -0.1225
32652ION     NA48836  13.054  13.688   9.855  0.2115 -0.0138  0.1350
32653ION     NA48837  11.191  15.072  13.341 -0.0639  0.0669 -0.0289
32654ION     NA48838  12.095   8.850   9.544  0.1589 -0.2082 -0.4950
32655ION     NA48839   7.908  18.339   1.056 -0.1327  0.2569  0.1218
32656ION     NA48840   4.907   4.450  10.023  0.1304 -0.0649  0.0773
32657ION     NA48841  18.840  18.979   9.926  0.1287 -0.0519 -0.0434
32658ION     NA48842  14.163  10.950   9.760  0.0696  0.2445 -0.1775
32659ION     NA48843  14.704  11.963   9.608 -0.1397  0.2158 -0.0288
32660ION     NA48844   7.489  10.648  11.549  0.1582  0.0644  0.2966
32661ION     NA48845   3.587  18.303  10.101 -0.1647  0.2072  0.2360
32662ION     NA48846  16.110   3.537   0.489  0.3222 -0.0286 -0.1021
32663ION     NA48847   6.947  12.438  10.214 -0.1005 -0.0631 -0.1745
32664ION     NA48848   0.574   9.286   9.708 -0.1243  0.1626 -0.0868
32665ION     NA48849   1.358   7.104   9.868  0.4750 -0.1204 -0.4988
32666ION     NA48850  12.529   2.350   9.609 -0.2686  0.0673  0.2468
32667ION     NA48851  13.590   5.122   9.768 -0.5062  0.0797 -0.2763
32668ION     NA48852  12.276   3.936   2.398 -0.1608  0.3377 -0.0833
32669ION     NA48853  15.586  17.956   9.660  0.2039 -0.2364  0.3192
32670ION     NA48854   2.312   5.345   6.012  0.0007  0.0034 -0.0652
32671ION     NA48855  14.566   1.933   9.600 -0.0679  0.0338 -0.1915
32672ION     NA48856   7.381   9.595  10.141 -0.2847  0.1195 -0.1398
32673ION     NA48857  14.026   4.063   4.699 -0.0542  0.3539 -0.3831
32674ION     NA48858   8.315   0.582   0.587  0.2652  0.1509 -0.1949
32675ION     NA48859  11.263   7.891  10.049 -0.0022 -0.2744 -0.0584
32676ION     NA48860  18.464   5.159  10.617  0.1078  0.1910 -0.0604
32677ION     NA48861   3.160  11.040   5.890  0.0158  0.1862 -0.4544
32678ION     NA48862  15.909  14.590  10.228  0.0366 -0.0641 -0.0113
32679ION     NA48863   3.255   2.903   9.929 -0.1091 -0.1145 -0.1443
32680ION     NA48864   9.214  17.187   9.751  0.1105  0.5799  0.1383
32681ION     NA48865  10.377   4.186  10.341  0.0905 -0.1121 -0.3194
32682ION     NA48866   4.287   5.283   3.121  0.2871  0.0991 -0.0379
32683ION     NA48867  16.970   6.674  11.232  0.0553  0.1800 -0.0801
32684ION     NA48868  12.226   1.317   1.974 -0.5324 -0.0575  0.0671
32685ION     NA48869  15.963   0.966  10.375 -0.1658 -0.5706  0.0496
32686ION     NA48870   7.975  13.702   9.810  0.0303  0.0039  0.1594
32687ION     NA48871  12.999  15.863   5.000 -0.0784  0.2447  0.1954
32688ION     NA48872  13.921  13.448   9.813  0.3538  0.1663 -0.0477
32689ION     NA48873  18.116   1.655  10.306 -0.2358 -0.1251  0.1449
32690ION     NA48874  10.353   3.276   9.935 -0.0177 -0.2322 -0.0212
32691ION     NA48875   5.447   9.345  12.306 -0.2370  0.2814  0.1701
32692ION     NA48876  13.317  14.642   9.864 -0.4215 -0.1878  0.1910
32693ION     NA48877  15.148   8.814   9.799 -0.2234 -0.4974  0.0617
32694ION     NA48878   2.948  13.794   9.859  0.1404 -0.0713  0.0104
32695ION     NA48879   5.102  13.846  10.069  0.1257 -0.1628 -0.3581
32696ION     NA48880  12.553  13.863  10.053  0.2069  0.0442 -0.2489
32697ION     NA48881   0.044   4.017  12.353  0.0191 -0.1986 -0.0629
32698ION     NA48882  12.580  15.165   9.880 -0.3482 -0.4941 -0.1204
32699ION     NA48883   4.272  13.936  10.093 -0.2588 -0.2104  0.1278
32700ION     NA48884  10.526  14.867   5.354 -0.0007 -0.3251 -0.2119
32701ION     NA48885  12.464   4.193  12.981  0.2487 -0.1702 -0.1521
32702ION     NA48886   4.779  18.367  10.182  0.0656 -0.1051 -0.3117
32703ION     NA48887   9.122  15.799   0.814  0.0905 -0.3477 -0.1953
32704ION     NA48888   5.186   1.672   3.637  0.2577  0.1342  0.0938
32705ION     NA48889   0.473   6.373   1.807  0.0188 -0.0223  0.0524
32706ION     NA48890  10.214  15.434   9.482 -0.0555  0.3209  0.1731
32707ION     NA48891  18.388   0.191  14.065  0.0269  0.0409 -0.1086
32708ION     NA48892  12.830   8.962   9.484  0.1360 -0.0974  0.1466
32709ION     NA48893  12.757  18.027   9.909 -0.3180  0.0096 -0.2075
32710ION     NA48894   2.190   5.446  12.787 -0.3942 -0.1965  0.1349
32711ION     NA48895  16.256   2.897   2.929  0.3228 -0.2031 -0.0170
32712ION     NA48896  12.468   3.069   9.736  0.1123  0.0878  0.0526
32713ION     NA48897  12.572  10.813   3.542 -0.1371 -0.3028 -0.0605
32714ION     NA48898   2.088   9.836  12.862 -0.0588  0.0404 -0.0787
32715ION     NA48899   0.484  14.328  10.218  0.1561 -0.2024 -0.3880
32716ION     NA48900  10.454  17.420   9.539  0.0919 -0.0835  0.0917
32717ION     NA48901   0.769   1.993  10.095  0.1881  0.1655  0.2103
32718ION     NA48902   6.242  13.185  10.523  0.1549 -0.1917 -0.0920
32719ION     NA48903  14.265   9.024   9.949  0.0666 -0.1442 -0.0965
32720ION     NA48904  16.650  11.289  10.428  0.2317 -0.1670  0.1699
32721ION     NA48905  16.256  14.880   5.867 -0.1720 -0.2175 -0.3794
32722ION     NA48906   2.614  15.432   9.943 -0.2365 -0.2347 -0.3232
32723ION     NA48907   0.231  18.101   9.987  0.0373  0.3783 -0.1158
32724ION     NA48908   1.264   1.298   9.716 -0.1124 -0.0845  0.0193
32725ION     NA48909   4.818  17.332  10.090  0.1490  0.0804  0.0905
32726ION     NA48910   5.726   2.255  10.070 -0.0659  0.0554  0.0411
32727ION     NA48911   6.652   7.260   9.833 -0.3125 -0.1829  0.1179
32728ION     NA48912  18.947  13.694   2.106 -0.1599  0.1578  0.1458
32729ION     NA48913  15.172   8.945   5.484 -0.2081 -0.1007  0.2109
32730ION     NA48914   8.397  15.882  11.159  0.4551 -0.0871 -0.0994
32731ION     NA48915   7.018  12.203   1.088 -0.0680 -0.1865 -0.1768
32732ION     NA48916  12.123  13.704   5.214 -0.0244  0.0907 -0.0538
32733ION     NA48917   2.368   8.248  10.444 -0.2988 -0.1659 -0.0054
32734ION     NA48918  10.995  12.769   9.908  0.1498  0.3134 -0.4350
32735ION     NA48919  11.885   9.469   2.543  0.2628  0.1001  0.2948
32736ION     NA48920   4.214   5.654  10.017 -0.0151  0.0484 -0.3912
32737ION     NA48921  16.998  11.068  12.055  0.1648  0.0297  0.1396
32738ION     NA48922  14.789   4.189   9.662  0.0305  0.0118 -0.1438
32739ION     NA48923   4.802   9.613  10.495 -0.0916 -0.1278  0.1097
32740ION     NA48924  18.943   1.152   9.959 -0.1183 -0.0506 -0.2418
32741ION     NA48925  14.271  17.359   9.811 -0.1085  0.0632 -0.3461
32742ION     NA48926   5.567  17.734  10.128 -0.1996  0.2468  0.3789
32743ION     NA48927   6.131  17.264  15.029  0.2708 -0.0095 -0.1034
32744ION     NA48928  10.131  12.797   9.494  0.0488 -0.2128  0.1006
32745ION     NA48929   6.495  14.495   9.861 -0.3723  0.3033  0.3813
32746ION     NA48930   9.883  18.539  10.545  0.1695  0.3279 -0.1875
32747ION     NA48931   5.509  18.794  10.291 -0.1011  0.2824 -0.2404
32748ION     NA48932   8.615  10.506  10.203  0.1453  0.4216 -0.2988
32749ION     NA48933  14.256   7.495   4.798  0.1224  0.5592  0.0409
32750ION     NA48934   0.840  18.814  10.137  0.1587 -0.1300  0.5656
32751ION     NA48935  14.587  14.038   9.957  0.2527  0.1501  0.0373
32752ION     NA48936   1.323   8.650   4.222  0.0310 -0.0959 -0.1388
32753ION     NA48937   3.380  15.949   9.903  0.0648 -0.0656  0.4101
32754ION     NA48938   2.892   3.953   1.385 -0.0630 -0.0516 -0.0419
32755ION     NA48939   7.728   0.025   1.684  0.0598  0.0938 -0.0557
32756ION     NA48940  11.053   1.700   9.979  0.0135  0.0889  0.2084
32757ION     NA48941  17.056  16.764  10.640 -0.1022 -0.0761  0.0812
32758ION     NA48942   5.149  12.632  14.418  0.1451 -0.0095  0.0469
32759ION     NA48943  12.438  17.512   9.951  0.1683  0.3814 -0.4321
32760ION     NA48944   7.376   3.577   9.946  0.1394  0.1488  0.0216
32761ION     NA48945   8.739   8.660  10.139 -0.1072 -0.4779  0.2088
32762ION     NA48946   1.679  17.208  10.084  0.1435  0.2140 -0.2763
32763ION     NA48947  15.260  18.411   4.160 -0.1240  0.1268 -0.0620
32764ION     NA48948  14.859   2.420  11.044  0.2210 -0.0411  0.1506
32765ION     NA48949   4.274  13.343   9.965  0.2441 -0.1343  0.0740
32766ION     NA48950   0.273   8.152  10.112 -0.0260  0.1052 -0.2951
32767ION     NA48951  10.772   8.717   9.910 -0.0791 -0.0375 -0.1947
32768ION     NA48952  12.366   8.907   5.457  0.2397 -0.2602 -0.2503
32769ION     NA48953   8.241   5.153   9.934  0.1201  0.0387  0.0047
32770ION     NA48954  11.403  17.626   9.754  0.0515 -0.2963 -0.1844
32771ION     NA48955   4.743   8.580   1.218 -0.1856  0.1386 -0.1081
32772ION     NA48956  15.197   5.381  10.289 -0.0560 -0.0056 -0.1375
32773ION     NA48957   8.668   4.416   0.443 -0.1899  0.0593  0.2357
32774ION     NA48958   3.334   5.580   9.992  0.0585  0.0640  0.1862
32775ION     NA48959  18.301  16.039   5.441 -0.4609  0.1486 -0.0394
32776ION     NA48960   7.379   5.515   9.905 -0.2414 -0.3975  0.1767
32777ION     NA48961  18.617  13.996  10.137 -0.1383 -0.3434  0.0756
32778ION     NA48962  16.961   3.894   0.697  0.1814 -0.0210 -0.0601
32779ION     NA48963   3.003   7.202   1.383  0.0418  0.0703  0.1831
32780ION     NA48964  11.908  14.557   9.861 -0.4386 -0.3459 -0.0028
32781ION     NA48965  15.507  12.587   9.917  0.0596  0.1255  0.0781
32782ION     NA48966   6.279   1.594  10.262  0.2329 -0.2516  0.0036
32783ION     NA48967  15.292   0.377   9.829  0.1654 -0.0020 -0.0958
32784ION     NA48968   4.376   6.776   3.954  0.1593 -0.0501  0.0249
32785ION     NA48969   4.525   3.671   9.813 -0.1468 -0.2171 -0.1219
32786ION     NA48970   1.939   3.726   6.035  0.4157  0.0262 -0.1806
32787ION     NA48971  13.559  15.903   2.753 -0.1131  0.0636 -0.0331
32788ION     NA48972   7.517  12.498   5.714  0.2761  0.3119 -0.1913
32789ION     NA48973   2.934  16.373   9.940 -0.3486  0.2946  0.1838
32790ION     NA48974  14.405   0.855   2.584  0.0305 -0.0249  0.2166
32791ION     NA48975  16.702  14.680   4.575  0.0174 -0.2440  0.3718
32792ION     NA48976  13.853  15.684   4.296 -0.0144 -0.2071  0.1011
32793ION     NA48977   4.703   4.180   4.697 -0.0418  0.2739 -0.0212
32794ION     NA48978   3.595  11.260  11.328 -0.1611 -0.3451  0.1302
32795ION     NA48979   8.206  13.167   5.641  0.1842 -0.3089  0.3339
32796ION     NA48980   2.068   5.748   5.823 -0.4375  0.1124  0.2496
32797ION     NA48981   6.058   6.347  12.948  0.0163  0.0150 -0.0265
32798ION     NA48982  16.537   2.162  10.094  0.2447  0.2238  0.0185
32799ION     NA48983   0.497   0.941  14.568 -0.0028  0.1593  0.0290
32800ION     NA48984  18.505   4.163  10.120 -0.3337  0.0836 -0.1794
32801ION     NA48985  16.608  15.408  13.151 -0.1671 -0.0445  0.1449
32802ION     NA48986  13.553  12.391   9.819 -0.3154 -0.1626  0.0452
32803ION     NA48987  15.554   7.162  12.696  0.1016  0.0062 -0.1797
32804ION     NA48988  13.471  13.819  14.413 -0.0472  0.2916 -0.2487
32805ION     NA48989  17.366   5.782  11.779  0.0568  0.2300  0.2102
32806ION     NA48990  14.231   8.833   5.316  0.2495 -0.1974 -0.3863
32807ION     NA48991   9.351  13.948   9.485 -0.0908  0.0685 -0.1169
32808ION     NA48992  10.528  14.822   9.492  0.0867  0.1476  0.1024
32809ION     NA48993   9.705  18.279   5.404 -0.4915  0.0891 -0.1830
32810ION     NA48994  18.904   5.998  10.269 -0.0338  0.2562 -0.1983
32811ION     NA48995  10.792  11.329   4.702  0.0512  0.1482  0.0968
32812ION     NA48996  18.087   9.338  14.205 -0.1663 -0.3629 -0.0173
32813ION     NA48997   9.797   0.484  14.408 -0.0781  0.0834 -0.1218
32814ION     NA48998   0.325   2.040  10.360  0.0514  0.0351  0.2963
32815ION     NA48999   6.544   2.749   9.952 -0.2421 -0.0992  0.1675
32816ION     NA49000  13.220   0.030   5.254  0.2555 -0.2623 -0.0500
32817ION     NA49001  10.158   4.056   9.748 -0.0433 -0.1039  0.3532
32818ION     NA49002   4.655   9.060   5.626 -0.2492 -0.0974 -0.1166
32819ION     NA49003   9.223   3.678  10.149 -0.2283 -0.3099 -0.0435
32820ION     NA49004  14.696   8.613   1.536  0.1331  0.0930  0.1105
32821ION     NA49005  15.277  13.394   9.985  0.0635 -0.1391 -0.0461
32822ION     NA49006  15.146  17.487  12.213  0.0155  0.2023 -0.1814
32823ION     NA49007  17.868  13.368   5.116  0.2349 -0.0198 -0.2598
32824ION     NA49008  17.990   7.264  12.035 -0.3311  0.3215 -0.0404
32825ION     NA49009  13.317   6.034   4.869 -0.0124  0.2323  0.2620
32826ION     NA49010  15.819  11.136  10.607  0.1927  0.4403 -0.0588
32827ION     NA49011  17.867   0.277   5.727 -0.0199  0.1215 -0.2099
32828ION     NA49012  16.078  18.665   4.239  0.3041  0.1402 -0.3025
32829ION     NA49013   1.246   8.731   5.384 -0.0721 -0.1246 -0.1021
32830ION     NA49014  18.331  11.713  13.778  0.0210  0.0541 -0.2388
32831ION     NA49015   6.571   1.951  13.020 -0.1899 -0.1118  0.0274
32832ION     NA49016   9.219   0.876  10.234  0.1310 -0.0312 -0.0654
32833ION     NA49017  15.793   3.836   5.061  0.2350  0.0104 -0.0642
32834ION     NA49018  15.001  11.403  10.081  0.0517  0.1796  0.1295
32835ION     NA49019  14.900  17.650  12.713 -0.1042  0.2704 -0.0060
32836ION     NA49020   7.916   2.070   5.265  0.0908  0.1073 -0.1217
32837ION     NA49021   5.855   6.450   2.861 -0.1903  0.0363  0.2118
32838ION     NA49022   5.597   9.951   1.893 -0.0486 -0.0003 -0.1040
32839ION     NA49023   3.240   9.201   9.824 -0.1206  0.3447 -0.0299
32840ION     NA49024   6.754   5.305   9.706 -0.4151 -0.2151 -0.1528
32841ION     NA49025   0.405  12.394   9.769  0.1469  0.1016 -0.2021
32842ION     NA49026   2.054  10.703   9.742  0.1370  0.0393 -0.1683
32843ION     NA49027   2.295   7.218   9.892  0.0776 -0.1707 -0.1458
32844ION     NA49028  15.750   9.641   5.457  0.2461 -0.1365 -0.2485
32845ION     NA49029   4.068  10.823  10.363 -0.0832 -0.2630 -0.1514
32846ION     NA49030   6.366   0.788   9.888 -0.1643  0.2226 -0.1828
32847ION     NA49031   7.695   3.568  12.135  0.1692  0.2204 -0.1035
32848ION     NA49032  10.603   2.323   9.697 -0.1172  0.3179  0.1265
32849ION     NA49033   9.900   1.369   9.773 -0.3255  0.2324  0.0702
32850ION     NA49034   0.756   0.374   5.713 -0.2017 -0.0081 -0.2786
32851ION     NA49035   4.260  15.751   9.848 -0.1126  0.1785 -0.0756
32852ION     NA49036  10.713   6.761   2.772 -0.2980 -0.3532  0.2203
32853ION     NA49037  16.736  12.144   6.016  0.1080 -0.0272  0.0192
32854ION     NA49038  12.437  10.113   9.652  0.1546  0.0292 -0.1569
32855ION     NA49039   9.841   8.560  10.218  0.1350 -0.3912  0.2985
32856ION     NA49040  14.742   8.123   5.334 -0.0846 -0.0933  0.6094
32857ION     NA49041  14.124   8.591   4.159  0.1584  0.0184  0.1222
32858ION     NA49042  11.007  10.243   4.857 -0.1126 -0.1255  0.0003
32859ION     NA49043   5.478   1.399   9.996  0.1510 -0.0934 -0.1912
32860ION     NA49044   3.408  11.308  10.355  0.0969 -0.0790 -0.1048
32861ION     NA49045   7.802   1.298   9.902 -0.2052 -0.1054  0.4060
32862ION     NA49046   1.719   7.848   9.866 -0.1527 -0.1024  0.0855
32863ION     NA49047   9.273   4.730  10.064  0.0492 -0.2877  0.3653
32864ION     NA49048   8.955   1.889  11.392  0.1026  0.2549 -0.3818
32865ION     NA49049  11.192  18.421   2.259  0.0121 -0.2443  0.0112
32866ION     NA49050  18.575   6.814   9.961  0.1640 -0.2930  0.1265
32867ION     NA49051  16.012  10.186   5.607  0.4348  0.2000  0.2293
32868ION     NA49052   8.773  16.193   9.548 -0.1278  0.3538  0.2023
32869ION     NA49053  18.448   9.112   9.616 -0.2647  0.3414 -0.0993
32870ION     NA49054   9.084   3.420   3.158  0.2049 -0.1076  0.0301
32871ION     NA49055   6.462  14.950   9.555  0.0975 -0.0543 -0.1004
32872ION     NA49056   9.055   5.684   9.860 -0.0153  0.0409 -0.0211
32873ION     NA49057  13.086   4.847   9.924  0.1092  0.0477  0.2487
32874ION     NA49058  11.573   3.513   9.734  0.0420  0.1241 -0.2913
32875ION     NA49059  16.057   8.159   4.169  0.1220 -0.3299  0.0382
32876ION     NA49060  10.895   2.927   9.855  0.0266 -0.0695 -0.0406
32877ION     NA49061  12.549  17.875  11.817 -0.4445 -0.3818 -0.2860
32878ION     NA49062  11.833   5.742   9.885  0.0090 -0.0450  0.0116
32879ION     NA49063   1.011  14.988  15.311 -0.0039  0.0956 -0.1061
32880ION     NA49064  11.149  15.690   9.637 -0.0901 -0.1936 -0.0189
32881ION     NA49065   0.861   2.442   3.299  0.1336  0.0991  0.0952
32882ION     NA49066  15.848   2.659   9.662  0.0395 -0.2385 -0.0096
32883ION     NA49067  15.930  18.850   9.694  0.0814  0.1084  0.1272
32884ION     NA49068   9.695  18.550   2.082  0.0503  0.1088  0.0471
32885ION     NA49069   7.733  17.220   9.613 -0.0659 -0.0045  0.0241
32886ION     NA49070   6.495   4.021  10.185  0.0050  0.1489 -0.0876
32887ION     NA49071  15.296  16.745   4.994 -0.1893  0.1751 -0.0136
32888ION     NA49072  12.513  12.207   9.666  0.2142  0.1225  0.1470
32889ION     NA49073  17.625   0.767  10.027  0.3236  0.0262 -0.3567
32890ION     NA49074  14.809   9.598  13.891 -0.1213 -0.1473 -0.1553
32891ION     NA49075  18.024   2.510  10.373  0.3197  0.0678 -0.1093
32892ION     NA49076   0.196  10.424   9.589 -0.2978 -0.0621 -0.2517
32893ION     NA49077   1.712  11.096   5.439  0.1888  0.2252 -0.0754
32894ION     NA49078  16.776   1.295   4.343 -0.2992  0.1474  0.0151
32895ION     NA49079   8.568   2.528  10.147  0.1484  0.1050 -0.2646
32896ION     NA49080   2.618   1.970   5.726  0.0811 -0.1115 -0.5448
32897ION     NA49081  13.217  11.524  10.037  0.0815  0.1125 -0.1554
32898ION     NA49082  13.570   1.717   9.906  0.0047 -0.0230 -0.1868
32899ION     NA49083   7.632  17.528  10.772  0.0393  0.1905 -0.3278
32900ION     NA49084   2.269   5.513  10.162  0.0434 -0.0730  0.3182
32901ION     NA49085   1.636   0.675   4.814 -0.2890 -0.4627  0.0927
32902ION     NA49086  11.574   2.524   9.789  0.2237  0.0801  0.0357
32903ION     NA49087   1.106   8.599  10.217 -0.0313 -0.3513 -0.2523
32904ION     NA49088  17.235   3.245  15.046  0.1765  0.1653 -0.1670
32905ION     NA49089   7.852  17.082   0.323 -0.2360 -0.1088  0.1367
32906ION     NA49090  12.105   5.095  11.754  0.1662 -0.0927 -0.1099
32907ION     NA49091  15.075   5.016   1.625 -0.0507 -0.0689 -0.0566
32908ION     NA49092  11.606   9.583   9.639 -0.0470 -0.3175  0.0890
32909ION     NA49093   9.870  16.741   9.572  0.2549 -0.4190  0.0911
32910ION     NA49094   1.940  13.774   1.654  0.2402  0.0945  0.0177
32911ION     NA49095  10.137  13.760  13.805  0.0712  0.0177 -0.0313
32912ION     NA49096  18.796  11.066   4.334 -0.4062  0.1766 -0.3186
32913ION     NA49097  16.903   8.849   0.043  0.0867 -0.1408  0.0025
32914ION     NA49098   3.102  14.348   5.671  0.2545 -0.0276  0.0757
32915ION     NA49099   9.043  16.270   3.097 -0.3388 -0.1440  0.0533
32916ION     NA49100  16.700   7.331  10.079 -0.0517  0.0328  0.0963
32917ION     NA49101   2.779   8.434  11.959 -0.4191  0.2282  0.1694
32918ION     NA49102  15.499  10.644  11.398 -0.2230  0.1262  0.3289
32919ION     NA49103   0.526  14.495   3.868  0.0060  0.0968 -0.2516
32920ION     NA49104   7.307  16.566   9.711  0.0171 -0.2231  0.0940
32921ION     NA49105   7.854   1.895  10.377  0.2098 -0.3382 -0.1314
32922ION     NA49106   8.973  14.419   0.522 -0.1151  0.1776 -0.1496
32923ION     NA49107  11.639  15.801   5.610  0.1797 -0.2541 -0.2925
32924ION     NA49108   1.395   4.047  10.479 -0.1238  0.0819 -0.0902
32925ION     NA49109  18.270  12.184   5.338 -0.1992 -0.0584 -0.0837
32926ION     NA49110   2.674  16.759  10.253  0.0457 -0.0077 -0.0167
32927ION     NA49111   3.366   7.019   9.822  0.3872  0.0087 -0.1364
32928ION     NA49112   7.704  16.166   9.585 -0.0242  0.0063  0.2437
32929ION     NA49113   2.484  18.539  10.039  0.0547  0.0429 -0.2766
32930ION     NA49114  10.690  14.971  13.567 -0.0076  0.2062  0.1817
32931ION     NA49115  16.423   3.098  10.075 -0.3143 -0.1373  0.1954
32932ION     NA49116   3.779   0.150  10.234 -0.0051 -0.0846  0.0174
32933ION     NA49117   1.885  17.333   1.013  0.0706 -0.0125  0.1325
32934ION     NA49118  16.964  18.846  10.360 -0.1290  0.1435  0.0021
32935ION     NA49119   3.210   7.829   9.613  0.1287  0.0413  0.1862
32936ION     NA49120   2.414   7.229   5.287 -0.1884  0.3542  0.0605
32937ION     NA49121   5.952  12.414  10.255 -0.1860  0.0832  0.0901
32938ION     NA49122  14.332   0.133   9.763 -0.0593  0.0749 -0.1910
32939ION     NA49123   0.713  17.122   9.901 -0.1464 -0.1233 -0.0362
32940ION     NA49124   5.477   1.147   0.671  0.1155 -0.0167  0.3257
32941ION     NA49125   5.954   4.321  10.091  0.2467  0.2465  0.2924
32942ION     NA49126  16.806   4.593  15.371  0.1462 -0.3976  0.0081
32943ION     NA49127   2.637   8.179   9.670 -0.0312 -0.1126 -0.2955
32944ION     NA49128  15.191   7.485   9.794  0.4003 -0.0676  0.0664
32945ION     NA49129   7.007   2.272   5.540 -0.3176 -0.1222 -0.0845
32946ION     NA49130  15.806   5.766   9.931  0.2857  0.0300  0.2132
32947ION     NA49131  16.413   6.884   5.482  0.0016 -0.0477  0.2190
32948ION     NA49132   4.839  13.289  11.146  0.2069 -0.2063 -0.0403
32949ION     NA49133   1.714   4.387   4.360 -0.1588 -0.3067 -0.0376
32950ION     NA49134  14.057  11.935  13.268 -0.2052 -0.1875 -0.3776
32951ION     NA49135   5.553  16.198   4.275  0.0677  0.2040 -0.0189
32952ION     NA49136  17.203  14.984   3.173 -0.1206  0.0293  0.0912
32953ION     NA49137  13.510   0.128  10.099  0.1251 -0.1382  0.0529
32954ION     NA49138  13.374   7.861  10.056  0.1099 -0.1570 -0.2946
32955ION     NA49139  13.234   8.084   9.601 -0.5506  0.2777 -0.1406
32956ION     NA49140  12.723   7.270   9.790 -0.2625 -0.0166 -0.0058
32957ION     NA49141   1.213  18.235  14.777  0.2125  0.1183  0.1169
32958ION     NA49142   1.776   0.245  10.157  0.1724 -0.1207  0.0984
32959ION     NA49143  16.928  12.207  10.344  0.1860  0.1401 -0.1037
32960ION     NA49144  17.111   5.047   9.699  0.1561  0.0767  0.3650
32961ION     NA49145  18.022   5.683  10.114 -0.0468  0.0493  0.0235
32962ION     NA49146  16.731   4.101   3.092  0.1605 -0.1187 -0.1307
32963ION     NA49147   9.468   2.533   3.131 -0.0470  0.0495 -0.1862
32964ION     NA49148   3.033  12.472   4.055 -0.1731 -0.1015  0.0266
32965ION     NA49149   4.319   5.768   5.819 -0.2144 -0.4255  0.2420
32966ION     NA49150  15.698   9.733   9.842  0.0311  0.1368 -0.2766
32967ION     NA49151  16.300  16.430  12.802  0.3568 -0.0675  0.1599
32968ION     NA49152  13.178  18.301  10.568  0.0326  0.2136 -0.2896
32969ION     NA49153   2.649   6.705   0.154 -0.0410 -0.0946 -0.4185
32970ION     NA49154   7.449  11.608  10.421 -0.1033 -0.0331 -0.0541
32971ION     NA49155   8.769   4.058  10.153 -0.0944  0.0844 -0.2168
32972ION     NA49156   2.749   6.266  10.123 -0.0242  0.0141  0.2186
32973ION     NA49157  15.150  11.937  15.242 -0.1160  0.1442 -0.1708
32974ION     NA49158  11.651   6.966   9.758 -0.1449 -0.0421  0.2162
32975ION     NA49159   7.324  14.185   0.415  0.1434  0.1493 -0.1689
32976ION     NA49160   9.843   6.284  10.131 -0.4149  0.1473 -0.1217
32977ION     NA49161   3.436  17.479  13.875 -0.2079 -0.0274  0.5619
32978ION     NA49162  18.592   5.209   5.246 -0.0007 -0.1806  0.1949
32979ION     NA49163   5.754  10.901   3.472 -0.1252  0.1079 -0.1267
32980ION     NA49164  12.288  11.285  14.914  0.0337 -0.2301  0.3100
32981ION     NA49165  14.123   7.679   9.930  0.0884  0.0348 -0.2138
32982ION     NA49166   2.141  16.366  10.552  0.2048  0.0122 -0.0379
32983ION     NA49167   8.600   8.560   5.740 -0.1565 -0.0929  0.3369
32984ION     NA49168   3.364   1.131  12.638 -0.2403  0.1715  0.0120
32985ION     NA49169   8.152   8.492   5.531  0.0160  0.3545  0.0715
32986ION     NA49170  16.603   6.081   5.384  0.2571 -0.1270 -0.4211
32987ION     NA49171   0.427  14.277   5.896 -0.0904  0.2610 -0.1056
32988ION     NA49172   3.839   4.265  10.114  0.0479  0.0038  0.2120
32989ION     NA49173   6.895   0.006   9.812 -0.0600  0.1923  0.1575
32990ION     NA49174   8.150  15.118   4.027 -0.0370  0.3740  0.0070
32991ION     NA49175  14.654   4.357   5.521  0.0259  0.2018 -0.0450
32992ION     NA49176   6.294   3.673   3.394 -0.0411 -0.3840 -0.1320
32993ION     NA49177   0.268   8.613   5.657  0.2612  0.0553 -0.4655
32994ION     NA49178   8.532   6.491   9.781 -0.1457  0.3537  0.1209
32995ION     NA49179  15.043  18.407  14.743 -0.3460  0.4316 -0.1182
32996ION     NA49180   9.212   3.195   0.740 -0.3688  0.0019 -0.0167
32997ION     NA49181   8.068   7.157   9.995  0.0750 -0.4420  0.0345
32998ION     NA49182  14.963  16.682   9.937 -0.1666 -0.0915 -0.0656
32999ION     NA49183   1.067  17.810  10.386 -0.0243 -0.1704 -0.0570
33000ION     NA49184   5.888  17.762   2.767  0.1547 -0.1117  0.1377
33001ION     NA49185   2.414   9.867  14.934 -0.0162 -0.1309  0.0292
33002ION     NA49186   3.358  10.154  10.389  0.0243 -0.3452  0.2047
33003ION     NA49187  18.240   4.250   5.492 -0.0777 -0.1410  0.0939
33004ION     NA49188   1.569  10.617  10.558 -0.0407  0.1623 -0.2590
33005ION     NA49189   0.482   7.135   9.752 -0.2259 -0.1687  0.3274
33006ION     NA49190   3.775  12.672   9.885 -0.1907 -0.0277  0.0948
33007ION     NA49191   4.279   3.464  12.424 -0.1436 -0.0607 -0.2739
33008ION     NA49192   0.771  16.358   5.921  0.3241 -0.0564  0.0903
33009ION     NA49193   6.894   4.593  10.079  0.1577  0.0279  0.0461
33010ION     NA49194   5.957  11.597  10.354  0.1997  0.2082 -0.5850
33011ION     NA49195   9.162   1.908   9.545  0.2740 -0.1388  0.3059
33012ION     NA49196  13.155  17.082  10.080 -0.1393  0.0819 -0.0815
33013ION     NA49197   9.453  12.274   9.882 -0.2877  0.0936  0.1666
33014ION     NA49198   5.481   7.453  10.159  0.1179 -0.1941 -0.4542
33015ION     NA49199   2.264  10.815   5.544 -0.1237 -0.2492  0.1582
33016ION     NA49200  17.213  17.006  14.771  0.0937 -0.1377 -0.0237
33017ION     NA49201  12.709   2.433   0.422  0.3152  0.1344 -0.2984
33018ION     NA49202  17.275  11.394   3.905  0.0745 -0.2388 -0.0604
33019ION     NA49203  18.694   9.149  12.660  0.0380 -0.2909  0.0801
33020ION     NA49204  12.917  16.190  10.404 -0.1314 -0.0593 -0.3833
33021ION     NA49205   3.412  13.863  14.567  0.0506 -0.3248  0.0279
33022ION     NA49206   1.831   8.810   9.908 -0.2047  0.1362  0.2275
33023ION     NA49207   5.747  10.088  10.517  0.0998  0.3479 -0.1997
33024ION     NA49208  16.182  15.472   5.820 -0.0973 -0.0826 -0.0907
33025ION     NA49209   9.737   9.385   5.798  0.3263  0.2170  0.0923
33026ION     NA49210  18.972  12.601  13.021 -0.2112  0.1671 -0.1427
33027ION     NA49211  12.108   6.041   5.557  0.0044 -0.2601 -0.0253
33028ION     NA49212  15.589   7.960   9.634 -0.0259 -0.1280 -0.2465
33029ION     NA49213   7.786  18.547   9.887 -0.3961 -0.0101  0.1124
33030ION     NA49214   9.518   8.481   9.804  0.2689 -0.0646 -0.2210
33031ION     NA49215  16.365  15.547   5.251 -0.0300 -0.1833  0.0040
33032ION     NA49216   8.452  17.852   9.622 -0.3502  0.2458  0.2053
33033ION     NA49217  10.704   9.281   9.801  0.1518  0.2763 -0.5411
33034ION     NA49218  14.970  14.833  12.337 -0.0540 -0.1758  0.0326
33035ION     NA49219  12.168   7.227  11.451 -0.1518  0.3583 -0.1126
33036ION     NA49220   6.926  12.603  13.718 -0.2293 -0.0059 -0.0711
33037ION     NA49221  18.621   7.126   3.790  0.2536 -0.0952  0.1577
33038ION     NA49222   6.766   3.080  12.496  0.2188  0.0875  0.0082
33039ION     NA49223  18.891   3.417   9.912  0.1028 -0.0466  0.2534
33040ION     NA49224   0.833   9.206  13.900 -0.0607 -0.2988 -0.1650
33041ION     NA49225  13.585  11.267   9.695 -0.0135  0.2143  0.3447
33042ION     NA49226   2.557  17.559   9.842  0.2455  0.0152 -0.3558
33043ION     NA49227  17.572   5.797   9.867  0.1138  0.0971 -0.2786
33044ION     NA49228  15.451  14.813   5.716 -0.0339 -0.1309 -0.2181
33045ION     NA49229   0.571   3.653   4.826  0.0318  0.0075 -0.3425
33046ION     NA49230  16.473   0.966   5.532  0.1516 -0.0595 -0.2351
33047ION     NA49231  18.759   7.493   4.807  0.2502  0.1188 -0.0645
33048ION     NA49232  15.368   6.238   9.735  0.0324  0.0520  0.2296
33049ION     NA49233  17.970  17.476   5.226 -0.3169 -0.2018 -0.4274
33050ION     NA49234   0.360   0.360   3.073  0.0343 -0.0258  0.1398
33051ION     NA49235   9.962  13.796   3.145  0.0107  0.1113 -0.1295
33052ION     NA49236  11.403  14.385   2.105 -0.1334  0.2704  0.2245
33053ION     NA49237  17.118   3.549   9.900  0.2720 -0.0076  0.0849
33054ION     NA49238   9.803   6.511   1.172  0.1135 -0.0285  0.1052
33055ION     NA49239  17.487  12.860  10.444 -0.2843 -0.3872  0.0075
33056ION     NA49240  13.384   3.097   9.745  0.0206  0.1724  0.0999
33057ION     NA49241  12.614   0.108  14.690 -0.2191 -0.0704 -0.0369
33058ION     NA49242  14.154  10.300  14.104  0.1170 -0.3530  0.0924
33059ION     NA49243  12.179  15.546   9.759  0.1961 -0.0506 -0.0393
33060ION     NA49244  14.585  11.022   2.706 -0.1669 -0.2807 -0.2879
33061ION     NA49245  11.018   9.382   5.264 -0.1260 -0.2372  0.1090
33062ION     NA49246   5.354   0.542   9.705 -0.1886  0.3388  0.1034
33063ION     NA49247   2.147  13.472  12.997  0.0401  0.2168 -0.0305
33064ION     NA49248  17.661   2.690  14.428  0.1985  0.1017  0.0153
33065ION     NA49249  11.242  12.561   0.446 -0.0006  0.0185 -0.1360
33066ION     NA49250  12.501  16.534   9.690 -0.0225  0.1502 -0.1166
33067ION     NA49251  17.942   3.489  10.232  0.1869 -0.1806 -0.2408
33068ION     NA49252   0.629  11.961   5.645 -0.1451  0.2020  0.0284
33069ION     NA49253   8.256   3.262  10.052 -0.2620  0.2104  0.0572
33070ION     NA49254  17.277   1.762  10.314  0.0552  0.2696 -0.1937
33071ION     NA49255   8.966   7.727   9.964  0.0145  0.2050  0.2092
33072ION     NA49256  17.325   4.233   4.891 -0.1935 -0.2583 -0.2823
33073ION     NA49257  18.822  12.822  10.147 -0.1650  0.3155  0.1431
33074ION     NA49258  16.364   1.097  10.789 -0.0417 -0.1253  0.0506
33075ION     NA49259  16.310  18.020   5.412  0.5165  0.0927 -0.1096
33076ION     NA49260   4.422   7.680   0.249 -0.2691 -0.4875 -0.0861
33077ION     NA49261  16.785   4.422   9.948  0.1364  0.0964  0.4962
33078ION     NA49262   4.151   9.628   4.538  0.0308 -0.2666 -0.0111
33079ION     NA49263  18.266  11.549  11.778  0.0654 -0.1952 -0.0860
33080ION     NA49264  10.226  10.450   9.825  0.2998 -0.0660 -0.1415
33081ION     NA49265  14.461  18.860  13.650  0.1414  0.1914 -0.2597
33082ION     NA49266   4.833   8.621  10.113 -0.0156 -0.1482  0.1498
33083ION     NA49267  12.920   4.795   0.654  0.1553 -0.1958 -0.0408
33084ION     NA49268  18.790  16.447  10.449 -0.2062 -0.0853 -0.0309
33085ION     NA49269  15.348   8.378  15.097 -0.0584  0.2102 -0.1376
33086ION     NA49270   3.880  11.629  13.770 -0.2665 -0.3096 -0.0630
33087ION     NA49271  12.400  18.452   5.230 -0.0342 -0.1983  0.0674
33088ION     NA49272   6.916  15.883  15.235 -0.2081  0.0694  0.2206
33089ION     NA49273   1.061   9.640   5.142 -0.0201  0.0089 -0.1101
33090ION     NA49274   7.946  18.544  11.786  0.5401  0.2640 -0.1137
33091ION     NA49275  17.932   4.882   9.875  0.1398 -0.1704  0.1582
33092ION     NA49276   2.049   0.299   5.446  0.1054  0.1221  0.0275
33093ION     NA49277   6.472  13.350   5.548 -0.2963  0.0575 -0.1448
33094ION     NA49278   8.854   9.695   9.961 -0.1104 -0.1318  0.0458
33095ION     NA49279  16.964   8.104  10.075 -0.2126  0.2713  0.3673
33096ION     NA49280  12.719  11.377   9.644 -0.2585  0.1866  0.0911
33097ION     NA49281  17.117  10.582   6.032  0.1468  0.1126  0.1038
33098ION     NA49282   6.206  15.253   5.516  0.0404  0.1132 -0.0544
33099ION     NA49283  13.703   6.095   9.867  0.2563  0.2562 -0.2049
33100ION     NA49284  16.185   8.198   9.679 -0.2129  0.0099 -0.2878
33101ION     NA49285   6.717   6.531   9.968  0.0233  0.3020  0.0656
33102ION     NA49286   3.293   1.108   2.554  0.2313 -0.1658 -0.0395
33103ION     NA49287   2.531  14.400   1.993 -0.0381 -0.1504  0.2149
33104ION     NA49288  17.648  14.471  12.912  0.1483  0.0732 -0.2522
33105ION     NA49289  17.265   8.955  10.161 -0.2571  0.1616  0.2231
33106ION     NA49290   0.391   3.594   6.138  0.1642  0.0550  0.1699
33107ION     NA49291  14.503  16.680  14.074 -0.0847 -0.0146  0.4005
33108ION     NA49292   4.700  14.660   9.934 -0.5367 -0.2336  0.0158
33109ION     NA49293   6.838   0.670   9.977 -0.2069  0.1367 -0.2868
33110ION     NA49294   6.292   7.727   9.856 -0.1235 -0.0765 -0.3817
33111ION     NA49295  12.801   6.839  12.362  0.1443 -0.0830 -0.1329
33112ION     NA49296  17.657   6.914   9.806  0.0070  0.1136  0.1171
33113ION     NA49297   4.692  16.365   5.299 -0.0676  0.2841 -0.1017
33114ION     NA49298  18.653  13.770  14.706  0.2735  0.0529 -0.3399
33115ION     NA49299   0.848   3.184  10.096  0.1586 -0.0297 -0.0200
33116ION     NA49300   6.743  15.030  14.652  0.0719  0.0968 -0.2069
33117ION     NA49301  15.908   0.384   5.167 -0.2043 -0.2279 -0.1621
33118ION     NA49302   5.351  16.921   9.637 -0.1952  0.0738 -0.1101
33119ION     NA49303  15.387  10.944   1.759 -0.4141  0.2406  0.3239
33120ION     NA49304  10.535   4.865   9.791 -0.0795 -0.0739  0.0377
33121ION     NA49305   1.500  18.688   3.928  0.0790 -0.0381  0.4674
33122ION     NA49306   3.874  14.629   9.987 -0.3560 -0.0427  0.0514
33123ION     NA49307  11.538  17.758  10.589 -0.0673  0.2880  0.1664
33124ION     NA49308  13.774  13.895   0.012 -0.1885 -0.3453  0.0116
33125ION     NA49309  15.574   2.095   9.762  0.0812 -0.0637 -0.0120
33126ION     NA49310   7.247  18.166   9.702 -0.3097  0.1118  0.1984
33127ION     NA49311  17.421  16.500  12.543 -0.0787 -0.0890 -0.3996
33128ION     NA49312  15.854  13.632  13.227  0.0584 -0.0911 -0.0477
33129ION     NA49313   3.666  16.287   5.629  0.1091  0.1079  0.1150
33130ION     NA49314   1.102  11.735   9.628 -0.2198 -0.1210 -0.1842
33131ION     NA49315   5.377  10.494  11.850  0.0957 -0.3404  0.0391
33132ION     NA49316   8.561  14.330   9.756 -0.1159  0.1453 -0.0003
33133ION     NA49317   9.540  14.772   9.742 -0.4552  0.0495  0.4326
33134ION     NA49318  12.714   8.121   9.588  0.2147  0.1845  0.1629
33135ION     NA49319   5.413   0.254   0.553  0.1445  0.1761 -0.2490
33136ION     NA49320  17.334   4.917   0.843 -0.1425 -0.0972 -0.2576
33137ION     NA49321  18.980   7.828   5.595 -0.1673  0.0871 -0.1199
33138ION     NA49322   9.075  17.432  10.127 -0.2638 -0.2839  0.0131
33139ION     NA49323   4.124   2.402   9.923  0.0539  0.0566  0.1023
33140ION     NA49324   3.779  16.710  12.009 -0.0153 -0.0901 -0.1481
33141ION     NA49325  13.862   3.164   0.267 -0.4767 -0.0276  0.4812
33142ION     NA49326   5.321   3.283   4.337 -0.3763 -0.0027  0.0668
33143ION     NA49327   2.450   3.093   5.934 -0.2307 -0.1554  0.0937
33144ION     NA49328  16.369   2.255   4.943 -0.0419 -0.2342 -0.1817
33145ION     NA49329   1.407   5.262   1.885 -0.1491  0.0870  0.1140
33146ION     NA49330  12.263   0.254  11.592  0.4753 -0.0603 -0.1217
33147ION     NA49331   9.266  13.629   5.367 -0.5460 -0.1382  0.3014
33148ION     NA49332  10.371  12.111   9.861 -0.0272  0.0911  0.4176
33149ION     NA49333  14.121  15.953   9.719  0.1286 -0.4139 -0.4350
33150ION     NA49334   6.996   8.740   9.951 -0.1002  0.0827  0.1958
33151ION     NA49335  15.333  11.543   0.816 -0.0904  0.0298 -0.1181
33152ION     NA49336  16.680   4.697   5.296  0.1421 -0.1508  0.0873
33153ION     NA49337   2.502   3.645  10.254  0.0204  0.1456  0.2294
33154ION     NA49338   9.811   9.564   9.801 -0.4344  0.0052 -0.0081
33155ION     NA49339   6.435   1.060  10.987 -0.1231 -0.3127 -0.1267
33156ION     NA49340   7.969  12.210   9.883  0.2320  0.0504  0.3354
33157ION     NA49341  11.197   8.061   5.496  0.0864 -0.0542 -0.0675
33158ION     NA49342   6.243   8.433   5.625  0.2764 -0.1519 -0.1787
33159ION     NA49343   7.118  13.803  10.012 -0.0022 -0.2265 -0.0805
33160ION     NA49344   1.771   4.318   2.662 -0.2288  0.0341 -0.1241
33161ION     NA49345   2.618  14.610   9.873 -0.0214 -0.0550  0.0190
33162ION     NA49346  11.925   1.103   4.584 -0.2169  0.0674  0.2345
33163ION     NA49347  18.501  14.639  10.089  0.5670  0.2045  0.4032
33164ION     NA49348   1.781  15.955  11.563 -0.1091 -0.0002 -0.1039
  19.00057  19.00057  15.38504
